 Gaussian 16, Revision A.03,
 Gaussian 16:  ES64L-G16RevA.03 25-Dec-2016

 -------------------------------------
 # td=(NStates=1) CAM-B3LYP/6-31G(d,p)
 -------------------------------------

 --
 TD
 --
 Symbolic Z-matrix:
 Charge =  0 Multiplicity = 1

                         Standard orientation:
 ---------------------------------------------------------------------
 Center     Atomic      Atomic             Coordinates (Angstroms)
 Number     Number       Type             X           Y           Z
 ---------------------------------------------------------------------
      1          8           0      -14.210374   -1.805766    0.466075
      2          8           0       14.746576    0.965989    0.385432
      3          6           0      -11.745199   -0.012825    1.425658
      4          6           0      -10.961581    0.280441    0.137749
      5          6           0      -12.085207   -1.461063    1.534739
      6          6           0      -12.782549   -2.112111    0.247820
      7          6           0      -11.668683   -0.350460   -1.188155
      8          6           0       11.114895    0.962235    1.215414
      9          6           0      -10.830520    0.528612    2.615773
     10          6           0      -12.998529    0.920232    1.383045
     11          6           0       12.461382    1.440504    1.030837
     12          6           0      -12.434616   -1.430900   -1.076901
     13          6           0       13.502382    0.416713    0.510483
     14          6           0       10.646826    0.041417   -0.075941
     15          6           0       -9.490594   -0.130250   -0.083659
     16          6           0       13.044092   -0.086570   -0.837642
     17          6           0       11.628146   -0.429988   -0.917089
     18          6           0       10.131086    2.121315    1.185215
     19          6           0       11.056431    0.146091    2.434811
     20          6           0      -11.334985    0.283940   -2.527551
     21          6           0       -8.485971    0.743730   -0.264385
     22          6           0        9.244103   -0.369408   -0.159795
     23          6           0       11.199952   -1.327455   -2.067193
     24          6           0       -7.078067    0.522127   -0.066373
     25          6           0        8.812212   -1.632273   -0.295253
     26          6           0       -6.618619   -0.968340    0.193253
     27          6           0        7.397934   -2.067322   -0.197558
     28          6           0       -6.201979    1.487243   -0.332264
     29          6           0        7.161873   -3.525635    0.047255
     30          6           0        6.381831   -1.129768   -0.278649
     31          6           0       -4.815874    1.366043   -0.345829
     32          6           0        4.965759   -1.544229   -0.206374
     33          6           0       -4.000628    2.464159   -0.582179
     34          6           0       -2.614448    2.588041   -0.845376
     35          6           0        4.055322   -0.549523   -0.366153
     36          6           0        2.629192   -0.772748   -0.163765
     37          6           0       -1.864364    3.871790   -1.173821
     38          6           0       -1.845752    1.416962   -0.532163
     39          6           0        1.821702    0.260931   -0.469044
     40          6           0        2.267985   -2.169612    0.017886
     41          6           0       -0.450159    1.384457   -0.679723
     42          6           0        0.377510    0.238722   -0.439988
     43          1           0      -11.110818    1.312343   -0.035804
     44          1           0      -12.677296   -1.707857    2.236469
     45          1           0      -11.171430   -1.868458    1.619209
     46          1           0      -12.500168   -3.164148    0.238442
     47          1           0       -9.795050    0.075867    2.613000
     48          1           0      -10.539013    1.643764    2.400270
     49          1           0      -11.248925    0.225689    3.609217
     50          1           0      -13.830770    0.399255    0.667576
     51          1           0      -13.575923    0.798086    2.396367
     52          1           0      -12.755823    1.950362    1.100131
     53          1           0       12.444782    2.208350    0.062674
     54          1           0       12.703958    1.928873    1.839532
     55          1           0      -13.086581   -1.966377   -1.999092
     56          1           0       13.651548   -0.424473    1.308843
     57          1           0       -9.350700   -1.254876    0.085390
     58          1           0       13.627618   -0.838749   -1.055430
     59          1           0       13.240955    0.779783   -1.592565
     60          1           0        9.080849    1.891057    1.383331
     61          1           0       10.288421    2.715913    0.210560
     62          1           0       10.479291    2.911605    1.979941
     63          1           0       11.534404   -0.888977    2.519055
     64          1           0        9.796004   -0.027924    2.529699
     65          1           0       11.328415    0.613125    3.392360
     66          1           0      -10.214317    0.434891   -2.538475
     67          1           0      -12.057395    1.002987   -2.740347
     68          1           0      -11.794921   -0.458998   -3.237162
     69          1           0      -14.445160   -1.951857   -0.446613
     70          1           0        8.520781    0.389307   -0.044437
     71          1           0       -8.775260    1.807149   -0.333670
     72          1           0       11.493468   -2.281887   -1.709067
     73          1           0       10.067286   -1.211440   -2.356183
     74          1           0       11.813969   -1.088290   -2.933706
     75          1           0       15.163840    1.060977    1.382196
     76          1           0        9.614276   -2.419991   -0.332523
     77          1           0       -5.630084   -1.217272    0.395493
     78          1           0       -7.054547   -1.345275    1.132481
     79          1           0       -6.931293   -1.498813   -0.726765
     80          1           0       -6.742216    2.533569   -0.586485
     81          1           0        6.964589   -3.857960    1.050477
     82          1           0        6.325916   -3.996561   -0.499468
     83          1           0        7.910246   -4.239851   -0.349071
     84          1           0        6.672896   -0.079746   -0.784897
     85          1           0       -4.402116    0.257360   -0.119567
     86          1           0        4.623326   -2.653139    0.309418
     87          1           0       -4.622353    3.275771   -0.576559
     88          1           0        4.452229    0.375510   -0.673531
     89          1           0       -1.075362    3.617643   -1.875077
     90          1           0       -1.357902    4.367309   -0.218895
     91          1           0       -2.616502    4.599884   -1.795825
     92          1           0       -2.485591    0.562007    0.188350
     93          1           0        2.127688    1.191153   -0.662897
     94          1           0        2.085058   -2.322745    1.181624
     95          1           0        1.111976   -2.432712   -0.034298
     96          1           0        2.849715   -3.132840   -0.583116
     97          1           0        0.119727    2.431148   -0.746111
     98          1           0       -0.089062   -0.802648    0.100781
 ---------------------------------------------------------------------

 SCF Done:  E(RCAM-B3LYP) =  -1706.89244722     A.U. after   15 cycles

 Excitation energies and oscillator strengths:

 Excited State   1:      Singlet-A      2.2282 eV  556.43 nm  f=2.7476  <S**2>=0.000
     155 ->158         0.14269
     156 ->157         0.69239
 This state for optimization and/or second-order correction.
 Total Energy, E(TD-HF/TD-DFT) =  -1706.81056274
 Copying the excited state density for this state as the 1-particle RhoCI density.

 The electronic state is 1-A.
 Alpha  occ. eigenvalues --  -19.22139 -19.21177 -10.30984 -10.30774 -10.28821
 Alpha  occ. eigenvalues --  -10.28611 -10.28126 -10.28079 -10.28012 -10.27967
 Alpha  occ. eigenvalues --  -10.27538 -10.27512 -10.27505 -10.27089 -10.27045
 Alpha  occ. eigenvalues --  -10.27022 -10.26993 -10.26919 -10.26871 -10.26676
 Alpha  occ. eigenvalues --  -10.26535 -10.26400 -10.26346 -10.26215 -10.26000
 Alpha  occ. eigenvalues --  -10.25972 -10.25893 -10.25737 -10.25599 -10.25564
 Alpha  occ. eigenvalues --  -10.25492 -10.25478 -10.25451 -10.25385 -10.25338
 Alpha  occ. eigenvalues --  -10.25244 -10.25073 -10.24582 -10.24550 -10.24502
 Alpha  occ. eigenvalues --  -10.23738 -10.22556  -1.09925  -1.09106  -0.93509
 Alpha  occ. eigenvalues --   -0.92766  -0.92193  -0.91651  -0.90110  -0.89738
 Alpha  occ. eigenvalues --   -0.87989  -0.86613  -0.86258  -0.85274  -0.84110
 Alpha  occ. eigenvalues --   -0.82590  -0.81437  -0.79994  -0.79709  -0.77883
 Alpha  occ. eigenvalues --   -0.76905  -0.76451  -0.76105  -0.75755  -0.75421
 Alpha  occ. eigenvalues --   -0.74694  -0.74320  -0.73641  -0.72341  -0.70133
 Alpha  occ. eigenvalues --   -0.68361  -0.67804  -0.65948  -0.64802  -0.62880
 Alpha  occ. eigenvalues --   -0.62396  -0.61972  -0.60830  -0.60068  -0.59071
 Alpha  occ. eigenvalues --   -0.59045  -0.58356  -0.57342  -0.57118  -0.56551
 Alpha  occ. eigenvalues --   -0.55270  -0.54644  -0.54615  -0.53779  -0.53455
 Alpha  occ. eigenvalues --   -0.53167  -0.52764  -0.52406  -0.52167  -0.50508
 Alpha  occ. eigenvalues --   -0.50029  -0.49733  -0.49494  -0.49416  -0.49114
 Alpha  occ. eigenvalues --   -0.48715  -0.48418  -0.48254  -0.47976  -0.47809
 Alpha  occ. eigenvalues --   -0.47684  -0.47487  -0.46891  -0.46031  -0.45837
 Alpha  occ. eigenvalues --   -0.45639  -0.45421  -0.45043  -0.44623  -0.44390
 Alpha  occ. eigenvalues --   -0.44248  -0.43806  -0.43605  -0.43434  -0.43324
 Alpha  occ. eigenvalues --   -0.43073  -0.42746  -0.42558  -0.42468  -0.42184
 Alpha  occ. eigenvalues --   -0.41445  -0.41400  -0.41101  -0.41057  -0.40389
 Alpha  occ. eigenvalues --   -0.39941  -0.39747  -0.39461  -0.39213  -0.38940
 Alpha  occ. eigenvalues --   -0.38594  -0.38437  -0.38128  -0.37822  -0.37690
 Alpha  occ. eigenvalues --   -0.37528  -0.36331  -0.36078  -0.35918  -0.35604
 Alpha  occ. eigenvalues --   -0.35121  -0.33920  -0.33215  -0.32195  -0.31532
 Alpha  occ. eigenvalues --   -0.30879  -0.29752  -0.28571  -0.26763  -0.23570
 Alpha  occ. eigenvalues --   -0.19793
 Alpha virt. eigenvalues --   -0.05640  -0.00588   0.02742   0.05774   0.07617
 Alpha virt. eigenvalues --    0.08244   0.08982   0.09236   0.10564   0.11198
 Alpha virt. eigenvalues --    0.12223   0.12589   0.12744   0.13199   0.13624

 Mulliken charges:
               1
     1  O   -0.528361
     2  O   -0.553223
     3  C    0.025471
     4  C   -0.118904
     5  C   -0.146885
     6  C    0.099358
     7  C    0.070296
     8  C    0.023144
     9  C   -0.303831
    10  C   -0.302558
    11  C   -0.156785
    12  C   -0.145957
    13  C    0.176683
    14  C    0.034279
    15  C   -0.094992
    16  C   -0.205842
    17  C    0.038824
    18  C   -0.300769
    19  C   -0.287131
    20  C   -0.357019
    21  C   -0.104744
    22  C   -0.113595
    23  C   -0.361265
    24  C    0.097748
    25  C   -0.099091
    26  C   -0.369845
    27  C    0.101397
    28  C   -0.115197
    29  C   -0.393191
    30  C   -0.151994
    31  C   -0.064683
    32  C   -0.085622
    33  C   -0.122095
    34  C    0.090455
    35  C   -0.105354
    36  C    0.144133
    37  C   -0.363684
    38  C   -0.089225
    39  C   -0.089807
    40  C   -0.391344
    41  C   -0.128603
    42  C   -0.087199
    43  H    0.090799
    44  H    0.112402
    45  H    0.091225
    46  H    0.094703
    47  H    0.094365
    48  H    0.091288
    49  H    0.100042
    50  H    0.114286
    51  H    0.085584
    52  H    0.092933
    53  H    0.061610
    54  H    0.074998
    55  H    0.049646
    56  H    0.047444
    57  H    0.091131
    58  H    0.111836
    59  H    0.116530
    60  H    0.109538
    61  H    0.103545
    62  H    0.075346
    63  H    0.106770
    64  H    0.065749
    65  H    0.098379
    66  H    0.127622
    67  H    0.132160
    68  H    0.104611
    69  H    0.299023
    70  H    0.080728
    71  H    0.082839
    72  H    0.120738
    73  H    0.120838
    74  H    0.098092
    75  H    0.311767
    76  H    0.085340
    77  H    0.112292
    78  H    0.113949
    79  H    0.126554
    80  H    0.071438
    81  H    0.130925
    82  H    0.112208
    83  H    0.110020
    84  H    0.090706
    85  H    0.075521
    86  H    0.094121
    87  H    0.074200
    88  H    0.084980
    89  H    0.136248
    90  H    0.122143
    91  H    0.094293
    92  H    0.082280
    93  H    0.074309
    94  H    0.114848
    95  H    0.097131
    96  H    0.120210
    97  H    0.091544
    98  H    0.063180
 Sum of Mulliken charges =  -0.00000

 Dipole moment (field-independent basis, Debye):
    X=              2.2103    Y=             -1.1357    Z=              0.7163  Tot=              2.5862
 Quadrupole moment (field-independent basis, Debye-Ang):
   XX=           -287.8100   YY=           -244.6784   ZZ=           -262.1652
   XY=             -4.9778   XZ=             38.5877   YZ=             -1.3079

 Normal termination of Gaussian 16 at Sun Jul 14 23:48:57 2019.
