 Gaussian 16, Revision A.03,
 Gaussian 16:  ES64L-G16RevA.03 25-Dec-2016

 -------------------------------------
 # td=(NStates=1) CAM-B3LYP/6-31G(d,p)
 -------------------------------------

 --
 TD
 --
 Symbolic Z-matrix:
 Charge =  0 Multiplicity = 1

                         Standard orientation:
 ---------------------------------------------------------------------
 Center     Atomic      Atomic             Coordinates (Angstroms)
 Number     Number       Type             X           Y           Z
 ---------------------------------------------------------------------
      1          8           0      -14.130642   -2.067172    0.716517
      2          8           0       14.778329    1.099725    0.176448
      3          6           0      -11.674194    0.080818    1.408718
      4          6           0      -11.099759    0.394903    0.036454
      5          6           0      -11.885925   -1.457466    1.501921
      6          6           0      -12.751076   -1.990552    0.305032
      7          6           0      -11.785923   -0.196944   -1.207907
      8          6           0       11.110633    1.011545    1.183891
      9          6           0      -10.769125    0.519331    2.625808
     10          6           0      -13.121781    0.741727    1.617873
     11          6           0       12.494167    1.594765    0.872153
     12          6           0      -12.563048   -1.364321   -1.023573
     13          6           0       13.563094    0.498417    0.414597
     14          6           0       10.666980    0.045132   -0.051376
     15          6           0       -9.544332   -0.044479   -0.061041
     16          6           0       13.041494   -0.088793   -0.840449
     17          6           0       11.566363   -0.467172   -0.943716
     18          6           0       10.085444    2.259695    1.192325
     19          6           0       11.123191    0.192699    2.446924
     20          6           0      -11.517679    0.342637   -2.566894
     21          6           0       -8.543358    0.817057   -0.250120
     22          6           0        9.286003   -0.402383    0.000524
     23          6           0       11.274095   -1.343659   -1.991011
     24          6           0       -7.135463    0.485906   -0.284906
     25          6           0        8.868613   -1.728329   -0.102395
     26          6           0       -6.773715   -1.056144   -0.210631
     27          6           0        7.471705   -2.122945   -0.035133
     28          6           0       -6.209705    1.461348   -0.529485
     29          6           0        7.216302   -3.598972    0.056329
     30          6           0        6.352238   -1.254541   -0.222787
     31          6           0       -4.805518    1.398185   -0.429604
     32          6           0        5.083723   -1.630905   -0.139142
     33          6           0       -4.003248    2.511797   -0.637834
     34          6           0       -2.657668    2.509893   -0.707101
     35          6           0        4.082222   -0.635627   -0.299089
     36          6           0        2.633994   -0.911822   -0.228281
     37          6           0       -1.934998    3.818124   -0.978394
     38          6           0       -1.836298    1.436971   -0.469445
     39          6           0        1.781271    0.222011   -0.351234
     40          6           0        2.136347   -2.264073   -0.049554
     41          6           0       -0.389061    1.473749   -0.594899
     42          6           0        0.464014    0.302016   -0.364038
     43          1           0      -11.132013    1.522007   -0.037404
     44          1           0      -12.269009   -1.839336    2.519550
     45          1           0      -10.906085   -2.123556    1.285966
     46          1           0      -12.551962   -2.900184    0.063780
     47          1           0       -9.901366   -0.041784    2.459433
     48          1           0      -10.406217    1.597999    2.645604
     49          1           0      -11.353736    0.643788    3.613935
     50          1           0      -13.810649    0.412330    0.821108
     51          1           0      -13.588494    0.439454    2.623189
     52          1           0      -12.980902    1.956957    1.550202
     53          1           0       12.300701    2.574441    0.237451
     54          1           0       12.772582    1.871754    1.873335
     55          1           0      -12.975108   -1.841071   -1.836951
     56          1           0       13.474932   -0.175234    1.251710
     57          1           0       -9.271643   -1.035885   -0.062192
     58          1           0       13.571508   -1.102259   -0.933171
     59          1           0       13.481216    0.388579   -1.672278
     60          1           0        9.227346    1.762432    1.502012
     61          1           0        9.994042    2.737645    0.276417
     62          1           0       10.559405    2.928486    1.880009
     63          1           0       11.770136   -0.686516    2.570141
     64          1           0       10.078307   -0.253579    2.711846
     65          1           0       11.554651    0.705164    3.358918
     66          1           0      -10.434891    0.294812   -2.838482
     67          1           0      -11.809627    1.429753   -2.616471
     68          1           0      -11.898911   -0.350083   -3.584514
     69          1           0      -14.480018   -2.169889   -0.187954
     70          1           0        8.672291    0.552702    0.014118
     71          1           0       -8.718733    1.987110   -0.510689
     72          1           0       11.427865   -2.529537   -1.550467
     73          1           0       10.206984   -1.268103   -2.348843
     74          1           0       11.881705   -1.225676   -3.083952
     75          1           0       15.281801    1.175175    1.122053
     76          1           0        9.606987   -2.467784   -0.268181
     77          1           0       -5.752673   -1.389034    0.078170
     78          1           0       -7.379616   -1.541243    0.591377
     79          1           0       -7.248512   -1.467834   -1.263111
     80          1           0       -6.521191    2.581652   -0.701551
     81          1           0        6.587469   -3.779251    1.059926
     82          1           0        6.538123   -3.713053   -0.745696
     83          1           0        8.174122   -4.259808    0.026160
     84          1           0        6.633673   -0.286080   -0.539368
     85          1           0       -4.366009    0.364864   -0.266613
     86          1           0        4.723093   -2.702516   -0.073572
     87          1           0       -4.460742    3.565185   -0.806388
     88          1           0        4.366621    0.342255   -0.375901
     89          1           0       -1.630603    3.721881   -2.123974
     90          1           0       -1.052864    4.157319   -0.470398
     91          1           0       -2.611762    4.691793   -1.046780
     92          1           0       -2.579525    0.445004   -0.302234
     93          1           0        2.127865    1.243034   -0.190280
     94          1           0        2.600101   -2.740128    0.893747
     95          1           0        1.100738   -2.526899   -0.200736
     96          1           0        2.292251   -2.957819   -0.935172
     97          1           0        0.218900    2.361388   -0.949734
     98          1           0       -0.114158   -0.698819   -0.205859
 ---------------------------------------------------------------------

 SCF Done:  E(RCAM-B3LYP) =  -1706.93201670     A.U. after   16 cycles

 Excitation energies and oscillator strengths:

 Excited State   1:      Singlet-A      1.7781 eV  697.29 nm  f=3.0994  <S**2>=0.000
     155 ->158         0.13591
     156 ->157         0.70122
     156 <-157        -0.12366
 This state for optimization and/or second-order correction.
 Total Energy, E(TD-HF/TD-DFT) =  -1706.86667324
 Copying the excited state density for this state as the 1-particle RhoCI density.

 The electronic state is 1-A.
 Alpha  occ. eigenvalues --  -19.22788 -19.20150 -10.30309 -10.28517 -10.28420
 Alpha  occ. eigenvalues --  -10.28383 -10.28070 -10.27982 -10.27963 -10.27953
 Alpha  occ. eigenvalues --  -10.27848 -10.27776 -10.27752 -10.27571 -10.27525
 Alpha  occ. eigenvalues --  -10.27330 -10.26933 -10.26903 -10.26793 -10.26690
 Alpha  occ. eigenvalues --  -10.26648 -10.26611 -10.26606 -10.26534 -10.26490
 Alpha  occ. eigenvalues --  -10.26470 -10.26431 -10.26328 -10.26089 -10.26037
 Alpha  occ. eigenvalues --  -10.25880 -10.25774 -10.25742 -10.25669 -10.25388
 Alpha  occ. eigenvalues --  -10.25238 -10.25182 -10.24895 -10.24679 -10.24561
 Alpha  occ. eigenvalues --  -10.24518 -10.23956  -1.09908  -1.08769  -0.93062
 Alpha  occ. eigenvalues --   -0.92497  -0.92121  -0.91799  -0.90313  -0.89694
 Alpha  occ. eigenvalues --   -0.87656  -0.86661  -0.85709  -0.85295  -0.84271
 Alpha  occ. eigenvalues --   -0.82766  -0.82052  -0.80009  -0.79785  -0.78122
 Alpha  occ. eigenvalues --   -0.77244  -0.76032  -0.75969  -0.75328  -0.75318
 Alpha  occ. eigenvalues --   -0.75045  -0.74652  -0.73687  -0.72085  -0.70319
 Alpha  occ. eigenvalues --   -0.68675  -0.67309  -0.66591  -0.65063  -0.63094
 Alpha  occ. eigenvalues --   -0.62920  -0.62587  -0.62105  -0.60464  -0.59668
 Alpha  occ. eigenvalues --   -0.59432  -0.58894  -0.57532  -0.56451  -0.55451
 Alpha  occ. eigenvalues --   -0.55221  -0.54842  -0.54481  -0.54184  -0.53603
 Alpha  occ. eigenvalues --   -0.53339  -0.52679  -0.52341  -0.51675  -0.50934
 Alpha  occ. eigenvalues --   -0.50658  -0.50068  -0.49952  -0.49711  -0.49085
 Alpha  occ. eigenvalues --   -0.48728  -0.48599  -0.48455  -0.47755  -0.47567
 Alpha  occ. eigenvalues --   -0.47331  -0.47166  -0.46794  -0.46554  -0.46147
 Alpha  occ. eigenvalues --   -0.46011  -0.45801  -0.45162  -0.45076  -0.44278
 Alpha  occ. eigenvalues --   -0.44180  -0.44097  -0.44010  -0.43727  -0.43405
 Alpha  occ. eigenvalues --   -0.43116  -0.42958  -0.42748  -0.42553  -0.41606
 Alpha  occ. eigenvalues --   -0.41371  -0.41169  -0.41064  -0.40839  -0.40266
 Alpha  occ. eigenvalues --   -0.39916  -0.39722  -0.39310  -0.39122  -0.38875
 Alpha  occ. eigenvalues --   -0.38398  -0.38356  -0.38140  -0.37995  -0.37566
 Alpha  occ. eigenvalues --   -0.37412  -0.37347  -0.37094  -0.36221  -0.35803
 Alpha  occ. eigenvalues --   -0.35344  -0.34391  -0.33662  -0.31786  -0.31428
 Alpha  occ. eigenvalues --   -0.30350  -0.28808  -0.28370  -0.26880  -0.23281
 Alpha  occ. eigenvalues --   -0.18057
 Alpha virt. eigenvalues --   -0.06969  -0.01454   0.02454   0.04725   0.06651
 Alpha virt. eigenvalues --    0.08369   0.09456   0.10486   0.11154   0.12006
 Alpha virt. eigenvalues --    0.12331   0.12841   0.13038   0.13191   0.13652

 Mulliken charges:
               1
     1  O   -0.544625
     2  O   -0.552292
     3  C    0.030130
     4  C   -0.129180
     5  C   -0.178563
     6  C    0.157249
     7  C    0.130798
     8  C   -0.011004
     9  C   -0.299301
    10  C   -0.290226
    11  C   -0.192699
    12  C   -0.177201
    13  C    0.185058
    14  C    0.021406
    15  C   -0.118072
    16  C   -0.226823
    17  C    0.118970
    18  C   -0.315671
    19  C   -0.317383
    20  C   -0.357849
    21  C   -0.065599
    22  C   -0.118059
    23  C   -0.373454
    24  C    0.092725
    25  C   -0.111344
    26  C   -0.371026
    27  C    0.063894
    28  C   -0.124783
    29  C   -0.368851
    30  C   -0.091820
    31  C   -0.070182
    32  C   -0.083808
    33  C   -0.131303
    34  C    0.141484
    35  C   -0.111751
    36  C    0.117509
    37  C   -0.382857
    38  C   -0.108022
    39  C   -0.120939
    40  C   -0.391694
    41  C   -0.132102
    42  C   -0.075931
    43  H    0.090131
    44  H    0.108340
    45  H    0.066008
    46  H    0.091471
    47  H    0.114779
    48  H    0.086589
    49  H    0.100984
    50  H    0.120633
    51  H    0.101558
    52  H    0.061449
    53  H    0.083584
    54  H    0.071066
    55  H    0.080856
    56  H    0.080940
    57  H    0.088363
    58  H    0.086845
    59  H    0.128606
    60  H    0.113361
    61  H    0.118366
    62  H    0.107516
    63  H    0.111027
    64  H    0.103138
    65  H    0.091770
    66  H    0.128797
    67  H    0.118382
    68  H    0.082218
    69  H    0.294242
    70  H    0.098083
    71  H    0.072635
    72  H    0.082080
    73  H    0.125970
    74  H    0.085494
    75  H    0.312885
    76  H    0.090129
    77  H    0.115603
    78  H    0.118699
    79  H    0.111342
    80  H    0.073758
    81  H    0.107359
    82  H    0.138918
    83  H    0.102939
    84  H    0.083618
    85  H    0.084218
    86  H    0.094564
    87  H    0.084781
    88  H    0.079226
    89  H    0.103856
    90  H    0.129789
    91  H    0.097579
    92  H    0.063041
    93  H    0.079319
    94  H    0.123175
    95  H    0.120039
    96  H    0.113444
    97  H    0.097184
    98  H    0.064441
 Sum of Mulliken charges =  -0.00000

 Dipole moment (field-independent basis, Debye):
    X=              3.6234    Y=             -1.1710    Z=             -0.6445  Tot=              3.8621
 Quadrupole moment (field-independent basis, Debye-Ang):
   XX=           -277.5773   YY=           -246.4906   ZZ=           -261.4348
   XY=             -9.1390   XZ=             48.3502   YZ=              2.9082

 Normal termination of Gaussian 16 at Sun Jul 14 14:51:36 2019.
