 Gaussian 16, Revision A.03,
 Gaussian 16:  ES64L-G16RevA.03 25-Dec-2016

 -------------------------------------
 # td=(NStates=1) CAM-B3LYP/6-31G(d,p)
 -------------------------------------

 --
 TD
 --
 Symbolic Z-matrix:
 Charge =  0 Multiplicity = 1

                         Standard orientation:
 ---------------------------------------------------------------------
 Center     Atomic      Atomic             Coordinates (Angstroms)
 Number     Number       Type             X           Y           Z
 ---------------------------------------------------------------------
      1          8           0      -14.221794   -1.996620    0.502995
      2          8           0       14.890067    0.671147    0.315154
      3          6           0      -11.902472   -0.027427    1.262278
      4          6           0      -11.005079    0.217464   -0.039092
      5          6           0      -12.128536   -1.375662    1.517395
      6          6           0      -12.777592   -2.167163    0.404040
      7          6           0      -11.534825   -0.622985   -1.192703
      8          6           0       11.240490    0.911684    1.062396
      9          6           0      -11.222593    0.753988    2.452862
     10          6           0      -13.136457    0.826842    1.039111
     11          6           0       12.721056    1.312336    0.942931
     12          6           0      -12.390202   -1.586521   -1.035288
     13          6           0       13.540955    0.261727    0.498972
     14          6           0       10.785706   -0.013781    0.057138
     15          6           0       -9.585333   -0.109076    0.115682
     16          6           0       13.071264   -0.196256   -0.904482
     17          6           0       11.614572   -0.490223   -0.999927
     18          6           0       10.311920    2.068015    1.136002
     19          6           0       11.050440    0.194604    2.408419
     20          6           0      -11.167049   -0.088108   -2.548928
     21          6           0       -8.445884    0.660678   -0.136935
     22          6           0        9.372174   -0.424238    0.057579
     23          6           0       11.089391   -1.178276   -2.247576
     24          6           0       -6.970619    0.415288   -0.083075
     25          6           0        8.835607   -1.696323   -0.197032
     26          6           0       -6.630738   -0.961763    0.423792
     27          6           0        7.444076   -2.035479   -0.195162
     28          6           0       -6.165728    1.602591   -0.354045
     29          6           0        7.114164   -3.514669   -0.113787
     30          6           0        6.361883   -1.113341   -0.289395
     31          6           0       -4.826912    1.468979   -0.390295
     32          6           0        5.038808   -1.363747   -0.235464
     33          6           0       -4.115340    2.667055   -0.827388
     34          6           0       -2.685595    2.682584   -0.727602
     35          6           0        3.982666   -0.488442   -0.331553
     36          6           0        2.593129   -0.681838   -0.137145
     37          6           0       -1.926323    4.028325   -1.037871
     38          6           0       -1.870401    1.549692   -0.500416
     39          6           0        1.714043    0.412406   -0.283607
     40          6           0        2.199372   -2.045034    0.204360
     41          6           0       -0.491469    1.536218   -0.462241
     42          6           0        0.323303    0.456406   -0.255138
     43          1           0      -10.963839    1.321557   -0.435635
     44          1           0      -12.822102   -1.796565    2.201196
     45          1           0      -11.164391   -1.798751    1.594067
     46          1           0      -12.383820   -3.158307    0.487624
     47          1           0      -10.346694    0.380000    2.529310
     48          1           0      -11.155311    1.913058    2.286050
     49          1           0      -11.628024    0.459703    3.328981
     50          1           0      -13.788321    0.716091    0.037395
     51          1           0      -13.956958    0.707605    1.863937
     52          1           0      -12.668135    1.870709    0.862257
     53          1           0       12.861216    2.152402    0.208020
     54          1           0       13.016774    1.691644    1.991463
     55          1           0      -12.741647   -2.051523   -1.847182
     56          1           0       13.493868   -0.476278    1.280767
     57          1           0       -9.274571   -1.176980    0.450939
     58          1           0       13.467957   -1.070399   -1.384983
     59          1           0       13.245857    0.653838   -1.670859
     60          1           0        9.398007    1.751428    1.696515
     61          1           0       10.049736    2.672265    0.314618
     62          1           0       10.724408    2.758872    1.839793
     63          1           0       11.646292   -0.596760    2.497018
     64          1           0       10.124830   -0.265434    2.595081
     65          1           0       11.352703    0.780956    3.396557
     66          1           0      -10.119801   -0.004047   -2.705556
     67          1           0      -11.788878    0.699405   -2.747891
     68          1           0      -11.388945   -0.700644   -3.373732
     69          1           0      -14.583475   -2.526254   -0.199105
     70          1           0        8.481808    0.261925    0.633020
     71          1           0       -8.791710    1.583140   -0.581827
     72          1           0       11.745966   -2.140138   -2.086114
     73          1           0       10.147920   -1.304097   -2.669305
     74          1           0       11.684218   -0.823881   -2.974059
     75          1           0       15.323783    0.687497    1.149244
     76          1           0        9.389994   -2.458951   -0.287077
     77          1           0       -5.349559   -0.869100    0.364994
     78          1           0       -7.033008   -0.980868    1.433885
     79          1           0       -6.813216   -1.855081   -0.156805
     80          1           0       -6.885111    2.547003   -0.744500
     81          1           0        6.747316   -3.783790    0.987594
     82          1           0        6.308956   -3.996417   -0.686392
     83          1           0        7.892049   -4.139001   -0.151397
     84          1           0        6.635854   -0.118438   -0.465264
     85          1           0       -4.484667    0.460724   -0.068825
     86          1           0        4.704268   -2.451379   -0.116116
     87          1           0       -4.775214    3.377891   -1.215272
     88          1           0        4.382897    0.552131   -0.615152
     89          1           0       -1.307775    3.962032   -1.821037
     90          1           0       -1.505793    4.543310   -0.078485
     91          1           0       -2.843031    4.868169   -1.289299
     92          1           0       -2.286304    0.609161   -0.159267
     93          1           0        2.267372    1.268193   -0.533783
     94          1           0        2.807051   -2.394001    1.067021
     95          1           0        1.083826   -1.871267    0.791077
     96          1           0        2.100359   -2.700264   -0.675938
     97          1           0        0.072215    2.333072   -0.871222
     98          1           0       -0.208614   -0.550571   -0.162376
 ---------------------------------------------------------------------

 SCF Done:  E(RCAM-B3LYP) =  -1706.88147139     A.U. after   17 cycles

 Excitation energies and oscillator strengths:

 Excited State   1:      Singlet-A      1.7487 eV  708.99 nm  f=3.1866  <S**2>=0.000
     155 ->158        -0.15154
     156 ->157         0.69639
     156 <-157        -0.11351
 This state for optimization and/or second-order correction.
 Total Energy, E(TD-HF/TD-DFT) =  -1706.81720645
 Copying the excited state density for this state as the 1-particle RhoCI density.

 The electronic state is 1-A.
 Alpha  occ. eigenvalues --  -19.21265 -19.21084 -10.30814 -10.30566 -10.28845
 Alpha  occ. eigenvalues --  -10.28098 -10.28095 -10.28038 -10.27998 -10.27725
 Alpha  occ. eigenvalues --  -10.27387 -10.27248 -10.27024 -10.26936 -10.26870
 Alpha  occ. eigenvalues --  -10.26776 -10.26724 -10.26670 -10.26486 -10.26372
 Alpha  occ. eigenvalues --  -10.26275 -10.25952 -10.25909 -10.25885 -10.25627
 Alpha  occ. eigenvalues --  -10.25590 -10.25546 -10.25364 -10.25337 -10.25282
 Alpha  occ. eigenvalues --  -10.25240 -10.25052 -10.24966 -10.24629 -10.24580
 Alpha  occ. eigenvalues --  -10.24446 -10.23653 -10.23470 -10.23448 -10.23351
 Alpha  occ. eigenvalues --  -10.23122 -10.22107  -1.10468  -1.09083  -0.95198
 Alpha  occ. eigenvalues --   -0.94358  -0.91701  -0.91249  -0.90119  -0.89149
 Alpha  occ. eigenvalues --   -0.88376  -0.87968  -0.86790  -0.85861  -0.84826
 Alpha  occ. eigenvalues --   -0.83707  -0.82629  -0.80806  -0.80429  -0.78144
 Alpha  occ. eigenvalues --   -0.77590  -0.77132  -0.77084  -0.76084  -0.76069
 Alpha  occ. eigenvalues --   -0.75506  -0.75205  -0.74226  -0.72435  -0.70052
 Alpha  occ. eigenvalues --   -0.69631  -0.68117  -0.66807  -0.65296  -0.65106
 Alpha  occ. eigenvalues --   -0.63103  -0.62264  -0.61173  -0.60768  -0.60618
 Alpha  occ. eigenvalues --   -0.59374  -0.58921  -0.58649  -0.57976  -0.56832
 Alpha  occ. eigenvalues --   -0.56675  -0.55707  -0.55047  -0.54310  -0.53785
 Alpha  occ. eigenvalues --   -0.53637  -0.53315  -0.52264  -0.51918  -0.51649
 Alpha  occ. eigenvalues --   -0.51091  -0.50553  -0.50051  -0.50000  -0.49944
 Alpha  occ. eigenvalues --   -0.49430  -0.49209  -0.48971  -0.48818  -0.48447
 Alpha  occ. eigenvalues --   -0.47989  -0.47318  -0.47088  -0.46508  -0.46372
 Alpha  occ. eigenvalues --   -0.45678  -0.45385  -0.45258  -0.44669  -0.44610
 Alpha  occ. eigenvalues --   -0.44365  -0.44273  -0.43596  -0.43465  -0.43431
 Alpha  occ. eigenvalues --   -0.43229  -0.42932  -0.42458  -0.42210  -0.41866
 Alpha  occ. eigenvalues --   -0.41769  -0.41341  -0.40966  -0.40625  -0.40449
 Alpha  occ. eigenvalues --   -0.40277  -0.39750  -0.39477  -0.39331  -0.38943
 Alpha  occ. eigenvalues --   -0.38612  -0.38512  -0.38125  -0.37913  -0.37733
 Alpha  occ. eigenvalues --   -0.37651  -0.37209  -0.36983  -0.36367  -0.36124
 Alpha  occ. eigenvalues --   -0.34941  -0.34250  -0.33237  -0.33058  -0.32543
 Alpha  occ. eigenvalues --   -0.31193  -0.29791  -0.28194  -0.25934  -0.22198
 Alpha  occ. eigenvalues --   -0.17744
 Alpha virt. eigenvalues --   -0.06647  -0.02025   0.02622   0.06222   0.07861
 Alpha virt. eigenvalues --    0.09292   0.09937   0.11426   0.12242   0.12524
 Alpha virt. eigenvalues --    0.12814   0.13376   0.13492   0.13906   0.14283

 Mulliken charges:
               1
     1  O   -0.543972
     2  O   -0.554969
     3  C    0.022368
     4  C   -0.164175
     5  C   -0.176142
     6  C    0.104544
     7  C    0.131546
     8  C   -0.031858
     9  C   -0.279558
    10  C   -0.259481
    11  C   -0.177005
    12  C   -0.128055
    13  C    0.170217
    14  C    0.088232
    15  C   -0.078196
    16  C   -0.218171
    17  C    0.020576
    18  C   -0.292964
    19  C   -0.312824
    20  C   -0.370813
    21  C   -0.103747
    22  C   -0.130245
    23  C   -0.337709
    24  C    0.062787
    25  C   -0.080260
    26  C   -0.347921
    27  C    0.086183
    28  C   -0.094197
    29  C   -0.381988
    30  C   -0.124701
    31  C   -0.053000
    32  C   -0.065442
    33  C   -0.133974
    34  C    0.066958
    35  C   -0.127302
    36  C    0.116916
    37  C   -0.355585
    38  C   -0.100246
    39  C   -0.107656
    40  C   -0.376433
    41  C   -0.065224
    42  C   -0.099600
    43  H    0.088385
    44  H    0.126544
    45  H    0.093061
    46  H    0.094031
    47  H    0.103168
    48  H    0.090349
    49  H    0.102764
    50  H    0.081218
    51  H    0.092143
    52  H    0.072541
    53  H    0.099336
    54  H    0.079986
    55  H    0.060127
    56  H    0.085241
    57  H    0.061043
    58  H    0.105651
    59  H    0.118336
    60  H    0.101593
    61  H    0.108810
    62  H    0.096405
    63  H    0.105656
    64  H    0.119637
    65  H    0.072126
    66  H    0.121347
    67  H    0.129968
    68  H    0.104053
    69  H    0.306010
    70  H    0.076650
    71  H    0.055620
    72  H    0.094546
    73  H    0.143671
    74  H    0.123532
    75  H    0.300214
    76  H    0.061644
    77  H    0.055333
    78  H    0.144956
    79  H    0.142227
    80  H    0.091729
    81  H    0.097394
    82  H    0.122657
    83  H    0.114198
    84  H    0.073610
    85  H    0.097862
    86  H    0.067360
    87  H    0.100266
    88  H    0.062662
    89  H    0.140304
    90  H    0.120582
    91  H    0.065399
    92  H    0.073395
    93  H    0.073081
    94  H    0.128418
    95  H    0.074222
    96  H    0.133148
    97  H    0.076941
    98  H    0.071936
 Sum of Mulliken charges =  -0.00000

 Dipole moment (field-independent basis, Debye):
    X=              1.8001    Y=             -2.3095    Z=             -0.4865  Tot=              2.9683
 Quadrupole moment (field-independent basis, Debye-Ang):
   XX=           -246.3845   YY=           -244.2008   ZZ=           -257.2046
   XY=              8.9736   XZ=             33.9591   YZ=             -0.4815

 Normal termination of Gaussian 16 at Sun Jul 14 09:58:33 2019.
