 Gaussian 16, Revision A.03,
 Gaussian 16:  ES64L-G16RevA.03 25-Dec-2016

 -------------------------------------
 # td=(NStates=1) CAM-B3LYP/6-31G(d,p)
 -------------------------------------

 --
 TD
 --
 Symbolic Z-matrix:
 Charge =  0 Multiplicity = 1

                         Standard orientation:
 ---------------------------------------------------------------------
 Center     Atomic      Atomic             Coordinates (Angstroms)
 Number     Number       Type             X           Y           Z
 ---------------------------------------------------------------------
      1          8           0      -14.323425   -1.810755    0.590530
      2          8           0       14.893442    0.794559    0.151346
      3          6           0      -11.863094    0.107706    1.302190
      4          6           0      -11.022690    0.341460   -0.013018
      5          6           0      -12.125243   -1.410054    1.437755
      6          6           0      -12.925501   -2.067943    0.329754
      7          6           0      -11.614186   -0.558780   -1.170374
      8          6           0       11.169281    1.039810    1.057780
      9          6           0      -11.033922    0.602593    2.518721
     10          6           0      -13.187934    0.878599    1.169355
     11          6           0       12.632492    1.470903    0.734330
     12          6           0      -12.507546   -1.536745   -0.951753
     13          6           0       13.486354    0.399323    0.427071
     14          6           0       10.698093   -0.069228    0.040930
     15          6           0       -9.524344    0.023290    0.043103
     16          6           0       13.079837   -0.187565   -0.867666
     17          6           0       11.509880   -0.583687   -0.807287
     18          6           0       10.262816    2.275871    0.897406
     19          6           0       11.172103    0.589583    2.507642
     20          6           0      -11.314874   -0.077018   -2.537097
     21          6           0       -8.508832    0.847046   -0.151516
     22          6           0        9.337681   -0.416735    0.171869
     23          6           0       11.244241   -1.516621   -2.007379
     24          6           0       -7.121983    0.473969   -0.215030
     25          6           0        8.842893   -1.695628    0.079045
     26          6           0       -6.626522   -0.820912    0.302689
     27          6           0        7.445246   -2.114217   -0.014618
     28          6           0       -6.270298    1.532199   -0.469624
     29          6           0        7.189447   -3.511435    0.120906
     30          6           0        6.398935   -1.237085   -0.080258
     31          6           0       -4.816357    1.570791   -0.379289
     32          6           0        4.994743   -1.588941   -0.067969
     33          6           0       -3.993155    2.568872   -0.618604
     34          6           0       -2.585511    2.545858   -0.736713
     35          6           0        4.027972   -0.602052   -0.321585
     36          6           0        2.680322   -0.712091   -0.251895
     37          6           0       -1.925995    3.775130   -1.223859
     38          6           0       -1.812474    1.379225   -0.503751
     39          6           0        1.749033    0.283438   -0.426907
     40          6           0        2.150107   -2.227803   -0.029004
     41          6           0       -0.402526    1.343534   -0.527898
     42          6           0        0.382693    0.283172   -0.340444
     43          1           0      -10.925512    1.539926   -0.155906
     44          1           0      -12.661504   -1.634573    2.343714
     45          1           0      -11.132870   -1.824579    1.365926
     46          1           0      -12.670790   -3.165580    0.425156
     47          1           0      -10.064940   -0.185903    2.715066
     48          1           0      -10.446247    1.609944    2.219351
     49          1           0      -11.816788    0.697041    3.388890
     50          1           0      -13.872021    0.446789    0.375256
     51          1           0      -13.771187    1.047434    2.244492
     52          1           0      -12.770046    1.821969    0.857651
     53          1           0       12.779698    2.056163   -0.099818
     54          1           0       12.977715    2.236219    1.727301
     55          1           0      -12.700057   -2.428554   -1.882418
     56          1           0       13.499463   -0.484597    1.084587
     57          1           0       -9.337124   -1.137428    0.116588
     58          1           0       13.411865   -1.205526   -1.127357
     59          1           0       13.414584    0.355295   -1.720471
     60          1           0        9.363779    2.171189    1.211405
     61          1           0       10.153332    2.557615   -0.095300
     62          1           0       10.597198    3.235693    1.413189
     63          1           0       11.922845   -0.036643    2.612052
     64          1           0       10.069397    0.195188    2.853963
     65          1           0       11.373568    1.472787    3.075965
     66          1           0      -10.083453   -0.075940   -2.608831
     67          1           0      -11.458470    0.987469   -3.029576
     68          1           0      -11.534681   -0.677540   -3.420914
     69          1           0      -14.942768   -2.145182   -0.157540
     70          1           0        8.617062    0.280739    0.365706
     71          1           0       -8.765669    1.714556   -0.454006
     72          1           0       11.673144   -2.692830   -1.965986
     73          1           0       10.164617   -1.214273   -2.122711
     74          1           0       11.752134   -1.109999   -3.044257
     75          1           0       15.358596    1.306506    0.778265
     76          1           0        9.415968   -2.530715   -0.050955
     77          1           0       -5.570987   -0.897553    0.389772
     78          1           0       -7.109277   -1.039803    1.222801
     79          1           0       -6.890286   -1.734218   -0.340067
     80          1           0       -6.665466    2.487917   -0.855768
     81          1           0        6.844887   -3.845029    1.303275
     82          1           0        6.226397   -3.833275   -0.291756
     83          1           0        7.874232   -4.347141   -0.117761
     84          1           0        6.750565   -0.097613   -0.287751
     85          1           0       -4.462080    0.688256    0.074085
     86          1           0        4.738278   -2.664865   -0.075887
     87          1           0       -4.642645    3.499819   -0.724206
     88          1           0        4.379759    0.290177   -0.651022
     89          1           0       -1.375565    3.782266   -2.258765
     90          1           0       -1.159151    3.903742   -0.493377
     91          1           0       -2.591528    4.622736   -1.414588
     92          1           0       -2.332254    0.445687   -0.117780
     93          1           0        2.314006    1.292694   -0.519614
     94          1           0        2.725749   -2.866850    0.890844
     95          1           0        0.922000   -2.208202    0.032654
     96          1           0        2.267436   -2.778251   -0.796684
     97          1           0        0.048801    2.473464   -0.462035
     98          1           0       -0.070932   -0.614035   -0.241912
 ---------------------------------------------------------------------

 SCF Done:  E(RCAM-B3LYP) =  -1706.87300781     A.U. after   15 cycles

 Excitation energies and oscillator strengths:

 Excited State   1:      Singlet-A      2.1592 eV  574.22 nm  f=3.0863  <S**2>=0.000
     155 ->158         0.15532
     156 ->157         0.68945
 This state for optimization and/or second-order correction.
 Total Energy, E(TD-HF/TD-DFT) =  -1706.79365979
 Copying the excited state density for this state as the 1-particle RhoCI density.

 The electronic state is 1-A.
 Alpha  occ. eigenvalues --  -19.21798 -19.19389 -10.30760 -10.29597 -10.28718
 Alpha  occ. eigenvalues --  -10.28699 -10.28256 -10.27984 -10.27902 -10.27744
 Alpha  occ. eigenvalues --  -10.27527 -10.27322 -10.27295 -10.27167 -10.27092
 Alpha  occ. eigenvalues --  -10.27078 -10.26956 -10.26890 -10.26811 -10.26788
 Alpha  occ. eigenvalues --  -10.26785 -10.26680 -10.26651 -10.26588 -10.26580
 Alpha  occ. eigenvalues --  -10.26457 -10.26388 -10.25956 -10.25795 -10.25689
 Alpha  occ. eigenvalues --  -10.25583 -10.25396 -10.25363 -10.25264 -10.25200
 Alpha  occ. eigenvalues --  -10.25197 -10.24791 -10.24450 -10.24383 -10.24134
 Alpha  occ. eigenvalues --  -10.24106 -10.22955  -1.07930  -1.07019  -0.94502
 Alpha  occ. eigenvalues --   -0.93604  -0.92754  -0.92087  -0.91377  -0.90656
 Alpha  occ. eigenvalues --   -0.88302  -0.87197  -0.86484  -0.86370  -0.85903
 Alpha  occ. eigenvalues --   -0.83913  -0.82387  -0.81401  -0.80620  -0.78108
 Alpha  occ. eigenvalues --   -0.77813  -0.77615  -0.76342  -0.75758  -0.75430
 Alpha  occ. eigenvalues --   -0.75051  -0.74633  -0.73305  -0.73201  -0.70740
 Alpha  occ. eigenvalues --   -0.69638  -0.68047  -0.66719  -0.66263  -0.63863
 Alpha  occ. eigenvalues --   -0.63347  -0.62500  -0.61782  -0.61416  -0.60864
 Alpha  occ. eigenvalues --   -0.59904  -0.59448  -0.58367  -0.57991  -0.56632
 Alpha  occ. eigenvalues --   -0.56012  -0.55513  -0.54839  -0.54492  -0.53961
 Alpha  occ. eigenvalues --   -0.53451  -0.53121  -0.52622  -0.52107  -0.51535
 Alpha  occ. eigenvalues --   -0.50818  -0.50148  -0.50075  -0.49551  -0.49186
 Alpha  occ. eigenvalues --   -0.48916  -0.48662  -0.48349  -0.48186  -0.47314
 Alpha  occ. eigenvalues --   -0.46881  -0.46618  -0.46434  -0.46408  -0.46309
 Alpha  occ. eigenvalues --   -0.45764  -0.45623  -0.44937  -0.44543  -0.44510
 Alpha  occ. eigenvalues --   -0.44088  -0.43725  -0.43638  -0.43448  -0.43375
 Alpha  occ. eigenvalues --   -0.43340  -0.43133  -0.42576  -0.42431  -0.42165
 Alpha  occ. eigenvalues --   -0.41254  -0.41108  -0.40944  -0.40825  -0.40599
 Alpha  occ. eigenvalues --   -0.40500  -0.40166  -0.40031  -0.39378  -0.39162
 Alpha  occ. eigenvalues --   -0.38930  -0.38652  -0.38458  -0.38062  -0.38020
 Alpha  occ. eigenvalues --   -0.37502  -0.36707  -0.36371  -0.35931  -0.35617
 Alpha  occ. eigenvalues --   -0.35311  -0.34009  -0.33483  -0.32588  -0.32201
 Alpha  occ. eigenvalues --   -0.31943  -0.30017  -0.29811  -0.27504  -0.24161
 Alpha  occ. eigenvalues --   -0.19753
 Alpha virt. eigenvalues --   -0.06185  -0.01374   0.02479   0.04149   0.06254
 Alpha virt. eigenvalues --    0.09095   0.10431   0.10958   0.11367   0.12089
 Alpha virt. eigenvalues --    0.12631   0.12682   0.12963   0.13348   0.13796

 Mulliken charges:
               1
     1  O   -0.556805
     2  O   -0.592734
     3  C    0.024093
     4  C   -0.154422
     5  C   -0.169308
     6  C    0.143253
     7  C    0.142813
     8  C   -0.031996
     9  C   -0.278763
    10  C   -0.270072
    11  C   -0.157322
    12  C   -0.131998
    13  C    0.172593
    14  C    0.120385
    15  C   -0.084184
    16  C   -0.208540
    17  C   -0.006605
    18  C   -0.310242
    19  C   -0.272054
    20  C   -0.360609
    21  C   -0.054803
    22  C   -0.131054
    23  C   -0.352065
    24  C    0.120934
    25  C   -0.078413
    26  C   -0.381659
    27  C    0.126514
    28  C   -0.142304
    29  C   -0.394473
    30  C   -0.128278
    31  C   -0.038431
    32  C   -0.097743
    33  C   -0.138333
    34  C    0.091250
    35  C   -0.105875
    36  C    0.122892
    37  C   -0.371783
    38  C   -0.114638
    39  C   -0.131434
    40  C   -0.359685
    41  C   -0.072352
    42  C   -0.059332
    43  H    0.078010
    44  H    0.108048
    45  H    0.090445
    46  H    0.085311
    47  H    0.075565
    48  H    0.086114
    49  H    0.097791
    50  H    0.125305
    51  H    0.071348
    52  H    0.088598
    53  H    0.110664
    54  H    0.039835
    55  H    0.052035
    56  H    0.086593
    57  H    0.071682
    58  H    0.105907
    59  H    0.122595
    60  H    0.112395
    61  H    0.109636
    62  H    0.087297
    63  H    0.110595
    64  H    0.085452
    65  H    0.104807
    66  H    0.083781
    67  H    0.117063
    68  H    0.116285
    69  H    0.309428
    70  H    0.082710
    71  H    0.065660
    72  H    0.101632
    73  H    0.124722
    74  H    0.090421
    75  H    0.293166
    76  H    0.075490
    77  H    0.118951
    78  H    0.133073
    79  H    0.110155
    80  H    0.074355
    81  H    0.081559
    82  H    0.117629
    83  H    0.120101
    84  H    0.073113
    85  H    0.070046
    86  H    0.092638
    87  H    0.079983
    88  H    0.075442
    89  H    0.116460
    90  H    0.132086
    91  H    0.115052
    92  H    0.080832
    93  H    0.068666
    94  H    0.087932
    95  H    0.072452
    96  H    0.144346
    97  H    0.067128
    98  H    0.075199
 Sum of Mulliken charges =  -0.00000

 Dipole moment (field-independent basis, Debye):
    X=             -1.3251    Y=             -0.4247    Z=             -0.9382  Tot=              1.6782
 Quadrupole moment (field-independent basis, Debye-Ang):
   XX=           -285.0897   YY=           -241.2441   ZZ=           -264.6593
   XY=             14.9526   XZ=             30.7862   YZ=              1.5496

 Normal termination of Gaussian 16 at Sat Jul 13 11:36:56 2019.
