 Gaussian 16, Revision A.03,
 Gaussian 16:  ES64L-G16RevA.03 25-Dec-2016

 -------------------------------------
 # td=(NStates=1) CAM-B3LYP/6-31G(d,p)
 -------------------------------------

 --
 TD
 --
 Symbolic Z-matrix:
 Charge =  0 Multiplicity = 1

                         Standard orientation:
 ---------------------------------------------------------------------
 Center     Atomic      Atomic             Coordinates (Angstroms)
 Number     Number       Type             X           Y           Z
 ---------------------------------------------------------------------
      1          8           0      -14.120036   -2.247765    0.648429
      2          8           0       14.815863    0.836777   -0.166811
      3          6           0      -11.831753    0.241103    1.197605
      4          6           0      -11.045780    0.262459   -0.163433
      5          6           0      -11.958238   -1.230636    1.610815
      6          6           0      -12.640509   -2.115138    0.491646
      7          6           0      -11.531993   -0.768319   -1.199630
      8          6           0       11.089710    1.207582    0.893805
      9          6           0      -11.168225    0.991062    2.331277
     10          6           0      -13.260643    0.930913    0.955632
     11          6           0       12.535404    1.619426    0.458257
     12          6           0      -12.289645   -1.761854   -0.957292
     13          6           0       13.487896    0.393183    0.363888
     14          6           0       10.630151   -0.054607    0.017395
     15          6           0       -9.573864   -0.022640    0.041213
     16          6           0       12.995504   -0.501907   -0.821770
     17          6           0       11.508350   -0.801397   -0.698399
     18          6           0       10.100824    2.375812    0.669443
     19          6           0       11.094254    0.812418    2.375784
     20          6           0      -11.077954   -0.418725   -2.651595
     21          6           0       -8.540997    0.864580   -0.248492
     22          6           0        9.256523   -0.449944    0.137079
     23          6           0       11.170625   -1.972248   -1.608739
     24          6           0       -7.104180    0.554538   -0.085002
     25          6           0        8.845853   -1.712191   -0.021758
     26          6           0       -6.635737   -0.882285    0.318175
     27          6           0        7.418994   -2.099792    0.199388
     28          6           0       -6.229544    1.580213   -0.442538
     29          6           0        7.071019   -3.610193    0.280709
     30          6           0        6.361755   -1.263204    0.089413
     31          6           0       -4.801911    1.508857   -0.378264
     32          6           0        5.012276   -1.448834   -0.027717
     33          6           0       -4.032758    2.568360   -0.794847
     34          6           0       -2.591430    2.591480   -0.822909
     35          6           0        4.102573   -0.523456   -0.198598
     36          6           0        2.587883   -0.700986   -0.116971
     37          6           0       -1.915805    3.892484   -1.048819
     38          6           0       -1.797150    1.530663   -0.500142
     39          6           0        1.791177    0.460922   -0.266082
     40          6           0        2.118681   -2.105611    0.115022
     41          6           0       -0.357037    1.537346   -0.343732
     42          6           0        0.407348    0.332089   -0.256547
     43          1           0      -11.069611    1.266355   -0.478925
     44          1           0      -12.549034   -1.341440    2.559862
     45          1           0      -10.792841   -1.542143    1.472331
     46          1           0      -12.043705   -3.065255    0.559763
     47          1           0      -10.053765    0.606405    2.587046
     48          1           0      -10.958254    1.891518    1.754380
     49          1           0      -11.606330    1.288777    3.196044
     50          1           0      -13.724664    0.551053   -0.096665
     51          1           0      -14.033651    0.736632    1.786874
     52          1           0      -13.000027    2.031286    0.613957
     53          1           0       12.566388    2.000917   -0.501672
     54          1           0       12.638100    2.467903    1.230394
     55          1           0      -12.521811   -2.523837   -1.802566
     56          1           0       13.549652   -0.197059    1.175479
     57          1           0       -9.355875   -1.053941    0.563960
     58          1           0       13.401381   -1.478580   -0.788891
     59          1           0       13.339080   -0.152446   -1.891536
     60          1           0        9.060191    2.300460    1.027035
     61          1           0        9.918909    2.497329   -0.255685
     62          1           0       10.329572    3.225737    1.153721
     63          1           0       11.698214    0.149434    2.353895
     64          1           0       10.089966    0.690254    2.515291
     65          1           0       11.199542    1.584407    2.878627
     66          1           0      -10.012019   -0.420928   -2.643873
     67          1           0      -11.316887    0.614204   -3.113339
     68          1           0      -11.356869   -1.236510   -3.405157
     69          1           0      -14.476494   -2.513470   -0.228715
     70          1           0        8.435442    0.284526    0.346379
     71          1           0       -8.828898    1.601695   -0.902000
     72          1           0       11.340069   -3.027911   -1.093878
     73          1           0       10.098663   -1.907524   -2.008493
     74          1           0       11.958906   -1.900725   -2.517527
     75          1           0       15.252451    1.439132    0.481320
     76          1           0        9.542607   -2.655927   -0.170576
     77          1           0       -5.492911   -0.822809    0.545777
     78          1           0       -7.044024   -1.359009    1.107988
     79          1           0       -6.949464   -1.478103   -0.464156
     80          1           0       -6.571820    2.470075   -0.653116
     81          1           0        6.535307   -3.985653    1.339051
     82          1           0        6.593622   -4.022678   -0.718724
     83          1           0        7.930824   -4.470346    0.537453
     84          1           0        6.763191   -0.115050   -0.154515
     85          1           0       -4.509214    0.601811   -0.085062
     86          1           0        4.688387   -2.416453    0.125233
     87          1           0       -4.654657    3.513573   -0.800380
     88          1           0        4.439025    0.583378   -0.225175
     89          1           0       -0.882090    3.649855   -1.745110
     90          1           0       -1.583766    4.363218   -0.088089
     91          1           0       -2.757336    4.701576   -1.529810
     92          1           0       -2.138443    0.590803   -0.322401
     93          1           0        2.163680    1.501087   -0.579483
     94          1           0        2.565651   -2.414871    1.123361
     95          1           0        1.174439   -2.144137    0.383772
     96          1           0        2.430370   -2.682935   -0.615324
     97          1           0        0.002205    2.688726   -0.594721
     98          1           0       -0.197874   -0.543622   -0.155997
 ---------------------------------------------------------------------

 SCF Done:  E(RCAM-B3LYP) =  -1706.83366851     A.U. after   15 cycles

 Excitation energies and oscillator strengths:

 Excited State   1:      Singlet-A      2.3521 eV  527.12 nm  f=2.9792  <S**2>=0.000
     155 ->158         0.15862
     156 ->157         0.68685
 This state for optimization and/or second-order correction.
 Total Energy, E(TD-HF/TD-DFT) =  -1706.74722994
 Copying the excited state density for this state as the 1-particle RhoCI density.

 The electronic state is 1-A.
 Alpha  occ. eigenvalues --  -19.21101 -19.20808 -10.31225 -10.30740 -10.28860
 Alpha  occ. eigenvalues --  -10.28463 -10.28378 -10.28344 -10.27621 -10.27615
 Alpha  occ. eigenvalues --  -10.27607 -10.27450 -10.27333 -10.27300 -10.27198
 Alpha  occ. eigenvalues --  -10.27032 -10.26973 -10.26901 -10.26897 -10.26787
 Alpha  occ. eigenvalues --  -10.26579 -10.26577 -10.26573 -10.26465 -10.26462
 Alpha  occ. eigenvalues --  -10.26288 -10.26175 -10.26084 -10.25732 -10.25722
 Alpha  occ. eigenvalues --  -10.25719 -10.25650 -10.25628 -10.25211 -10.25119
 Alpha  occ. eigenvalues --  -10.24968 -10.24670 -10.24519 -10.24456 -10.24007
 Alpha  occ. eigenvalues --  -10.22361 -10.20070  -1.06607  -1.06466  -0.93783
 Alpha  occ. eigenvalues --   -0.93396  -0.92000  -0.91557  -0.90255  -0.89479
 Alpha  occ. eigenvalues --   -0.87995  -0.87035  -0.86795  -0.85721  -0.84467
 Alpha  occ. eigenvalues --   -0.82894  -0.82257  -0.80086  -0.80028  -0.79596
 Alpha  occ. eigenvalues --   -0.78737  -0.77374  -0.76002  -0.75555  -0.75278
 Alpha  occ. eigenvalues --   -0.75060  -0.74547  -0.73816  -0.72240  -0.69627
 Alpha  occ. eigenvalues --   -0.68546  -0.67721  -0.66584  -0.65090  -0.63657
 Alpha  occ. eigenvalues --   -0.63526  -0.62546  -0.62241  -0.61389  -0.60733
 Alpha  occ. eigenvalues --   -0.59549  -0.58889  -0.57689  -0.56710  -0.56410
 Alpha  occ. eigenvalues --   -0.56336  -0.55588  -0.55057  -0.54589  -0.53672
 Alpha  occ. eigenvalues --   -0.52971  -0.52629  -0.52349  -0.51940  -0.51532
 Alpha  occ. eigenvalues --   -0.51325  -0.50827  -0.50262  -0.49720  -0.49364
 Alpha  occ. eigenvalues --   -0.49096  -0.48702  -0.48171  -0.47588  -0.47513
 Alpha  occ. eigenvalues --   -0.47393  -0.47167  -0.46640  -0.46512  -0.46234
 Alpha  occ. eigenvalues --   -0.46138  -0.45673  -0.45457  -0.45362  -0.44924
 Alpha  occ. eigenvalues --   -0.44499  -0.44213  -0.44022  -0.43654  -0.43350
 Alpha  occ. eigenvalues --   -0.43267  -0.42699  -0.42502  -0.42068  -0.41962
 Alpha  occ. eigenvalues --   -0.41907  -0.41490  -0.41400  -0.41034  -0.40551
 Alpha  occ. eigenvalues --   -0.40159  -0.39874  -0.39691  -0.39077  -0.38718
 Alpha  occ. eigenvalues --   -0.38498  -0.38290  -0.38162  -0.37766  -0.37448
 Alpha  occ. eigenvalues --   -0.37049  -0.36788  -0.36748  -0.36242  -0.36067
 Alpha  occ. eigenvalues --   -0.35106  -0.34347  -0.34002  -0.32505  -0.32326
 Alpha  occ. eigenvalues --   -0.31630  -0.30254  -0.29508  -0.26519  -0.23612
 Alpha  occ. eigenvalues --   -0.19911
 Alpha virt. eigenvalues --   -0.05136  -0.00830   0.02371   0.05977   0.07537
 Alpha virt. eigenvalues --    0.09013   0.10689   0.11485   0.11938   0.12266
 Alpha virt. eigenvalues --    0.12531   0.12617   0.13100   0.13208   0.13569

 Mulliken charges:
               1
     1  O   -0.569144
     2  O   -0.576882
     3  C    0.034305
     4  C   -0.160999
     5  C   -0.175123
     6  C    0.162171
     7  C    0.162451
     8  C   -0.075256
     9  C   -0.287075
    10  C   -0.291117
    11  C   -0.172394
    12  C   -0.188775
    13  C    0.146339
    14  C    0.079882
    15  C   -0.089358
    16  C   -0.226110
    17  C    0.037374
    18  C   -0.319643
    19  C   -0.219351
    20  C   -0.365490
    21  C   -0.103567
    22  C   -0.108548
    23  C   -0.372451
    24  C    0.062760
    25  C   -0.103663
    26  C   -0.362316
    27  C    0.072714
    28  C   -0.097260
    29  C   -0.370538
    30  C   -0.106576
    31  C   -0.021426
    32  C   -0.052129
    33  C   -0.145760
    34  C    0.112375
    35  C   -0.110060
    36  C    0.052281
    37  C   -0.373855
    38  C   -0.092742
    39  C   -0.111694
    40  C   -0.348316
    41  C   -0.099415
    42  C   -0.089217
    43  H    0.093955
    44  H    0.114479
    45  H    0.071303
    46  H    0.084020
    47  H    0.080543
    48  H    0.093857
    49  H    0.116731
    50  H    0.090567
    51  H    0.111882
    52  H    0.078198
    53  H    0.114609
    54  H    0.075157
    55  H    0.084578
    56  H    0.101110
    57  H    0.079972
    58  H    0.118162
    59  H    0.119941
    60  H    0.090136
    61  H    0.119010
    62  H    0.103272
    63  H    0.086539
    64  H    0.106074
    65  H    0.094849
    66  H    0.125664
    67  H    0.106970
    68  H    0.096479
    69  H    0.311164
    70  H    0.091344
    71  H    0.090348
    72  H    0.106551
    73  H    0.130707
    74  H    0.086287
    75  H    0.300160
    76  H    0.101362
    77  H    0.098874
    78  H    0.130706
    79  H    0.137326
    80  H    0.063152
    81  H    0.097510
    82  H    0.119179
    83  H    0.078362
    84  H    0.048374
    85  H    0.061516
    86  H    0.081321
    87  H    0.085888
    88  H    0.072531
    89  H    0.098632
    90  H    0.133893
    91  H    0.082932
    92  H    0.062392
    93  H    0.103242
    94  H    0.114628
    95  H    0.113810
    96  H    0.141255
    97  H    0.062898
    98  H    0.099199
 Sum of Mulliken charges =  -0.00000

 Dipole moment (field-independent basis, Debye):
    X=              0.6606    Y=             -0.4261    Z=              0.1195  Tot=              0.7951
 Quadrupole moment (field-independent basis, Debye-Ang):
   XX=           -293.5601   YY=           -243.9577   ZZ=           -263.2755
   XY=              3.4535   XZ=             38.6652   YZ=              4.8499

 Normal termination of Gaussian 16 at Sun Jul 14 00:22:04 2019.
