 Gaussian 16, Revision A.03,
 Gaussian 16:  ES64L-G16RevA.03 25-Dec-2016

 -------------------------------------
 # td=(NStates=1) CAM-B3LYP/6-31G(d,p)
 -------------------------------------

 --
 TD
 --
 Symbolic Z-matrix:
 Charge =  0 Multiplicity = 1

                         Standard orientation:
 ---------------------------------------------------------------------
 Center     Atomic      Atomic             Coordinates (Angstroms)
 Number     Number       Type             X           Y           Z
 ---------------------------------------------------------------------
      1          8           0      -14.184257   -2.024057    0.496301
      2          8           0       14.792762    1.003942    0.372810
      3          6           0      -11.718069   -0.056319    1.363237
      4          6           0      -10.941398    0.406322    0.135592
      5          6           0      -11.986497   -1.557316    1.422391
      6          6           0      -12.815838   -2.133181    0.251351
      7          6           0      -11.714360   -0.265068   -1.081781
      8          6           0       11.037837    0.921438    1.132832
      9          6           0      -10.857793    0.217317    2.594700
     10          6           0      -13.014476    0.676072    1.554977
     11          6           0       12.415086    1.436223    1.017882
     12          6           0      -12.323975   -1.348310   -0.996113
     13          6           0       13.477682    0.445582    0.562159
     14          6           0       10.645661   -0.042710    0.089103
     15          6           0       -9.482631    0.020234    0.151297
     16          6           0       12.965511   -0.048650   -0.792046
     17          6           0       11.525482   -0.432269   -0.913529
     18          6           0       10.066196    2.128304    1.266423
     19          6           0       10.911928    0.158454    2.528476
     20          6           0      -11.425915    0.356183   -2.471314
     21          6           0       -8.442825    0.886714   -0.230381
     22          6           0        9.293873   -0.452491    0.047180
     23          6           0       11.147501   -1.076260   -2.163619
     24          6           0       -7.041833    0.588728   -0.364479
     25          6           0        8.884251   -1.703606   -0.274658
     26          6           0       -6.635161   -0.743851   -0.040784
     27          6           0        7.470822   -2.226621   -0.138321
     28          6           0       -6.207326    1.634271   -0.498923
     29          6           0        7.244046   -3.726649   -0.109269
     30          6           0        6.363497   -1.305801   -0.263190
     31          6           0       -4.805414    1.570206   -0.458835
     32          6           0        4.995314   -1.560117   -0.264965
     33          6           0       -3.975000    2.565341   -0.714155
     34          6           0       -2.514117    2.657569   -0.666257
     35          6           0        4.040071   -0.619286   -0.355429
     36          6           0        2.626180   -0.936253   -0.351033
     37          6           0       -1.897947    3.978170   -1.021459
     38          6           0       -1.735932    1.503353   -0.497767
     39          6           0        1.790728    0.201165   -0.460804
     40          6           0        2.001550   -2.336538   -0.183810
     41          6           0       -0.427112    1.445128   -0.606321
     42          6           0        0.357908    0.303090   -0.402791
     43          1           0      -11.092670    1.486116    0.147078
     44          1           0      -12.530418   -1.832033    2.401052
     45          1           0      -10.968869   -1.971485    1.421103
     46          1           0      -12.509150   -3.181359    0.148667
     47          1           0       -9.976353   -0.561261    3.042349
     48          1           0      -10.414668    1.240013    2.857817
     49          1           0      -11.592978    0.280621    3.414041
     50          1           0      -13.468243    0.440755    0.457833
     51          1           0      -13.704823    0.091832    2.293245
     52          1           0      -12.698411    1.765230    1.759304
     53          1           0       12.477516    2.268789    0.362457
     54          1           0       12.833199    1.621467    2.156361
     55          1           0      -12.816057   -1.908135   -1.882204
     56          1           0       13.693109   -0.348313    1.330250
     57          1           0       -9.344282   -0.973539    0.498360
     58          1           0       13.566173   -0.989943   -1.029990
     59          1           0       13.266108    0.626515   -1.574788
     60          1           0        9.032431    1.993194    1.592460
     61          1           0        9.926943    2.552220    0.329608
     62          1           0       10.444704    3.044782    1.868617
     63          1           0       11.446926   -0.656051    2.440578
     64          1           0        9.868533   -0.000097    2.814106
     65          1           0       11.238150    0.828861    3.241438
     66          1           0      -10.294737    0.458905   -2.747491
     67          1           0      -11.856048    1.222430   -2.548224
     68          1           0      -11.805245   -0.314162   -3.205936
     69          1           0      -14.688366   -2.224517   -0.355174
     70          1           0        8.802149    0.258663    0.679704
     71          1           0       -8.770558    1.964519   -0.601748
     72          1           0       11.452295   -2.184785   -2.309986
     73          1           0       10.079358   -1.201947   -2.288721
     74          1           0       11.513453   -0.660853   -2.922211
     75          1           0       15.079034    1.428621    1.202619
     76          1           0        9.636822   -2.551796   -0.491100
     77          1           0       -5.443208   -0.780899   -0.343095
     78          1           0       -6.801225   -0.943870    1.075860
     79          1           0       -7.236122   -1.552925   -0.336100
     80          1           0       -6.601333    2.683546   -0.442843
     81          1           0        7.110321   -3.984608    1.012556
     82          1           0        6.450691   -4.139953   -0.809164
     83          1           0        8.172009   -4.164063   -0.544680
     84          1           0        6.865299   -0.178810   -0.220849
     85          1           0       -4.510226    0.535984   -0.047183
     86          1           0        4.782948   -2.744575   -0.195063
     87          1           0       -4.310140    3.711830   -0.771118
     88          1           0        4.390578    0.356597   -0.405881
     89          1           0       -1.434422    3.965808   -1.955003
     90          1           0       -1.078299    4.303762   -0.481299
     91          1           0       -2.518880    4.540662   -1.432521
     92          1           0       -2.323933    0.562581   -0.377837
     93          1           0        2.363976    1.116188   -0.445317
     94          1           0        2.353533   -2.648402    0.821534
     95          1           0        0.955213   -2.491855   -0.317853
     96          1           0        2.436922   -2.998295   -1.059140
     97          1           0        0.012501    2.467417   -0.587197
     98          1           0       -0.114294   -0.639877   -0.365554
 ---------------------------------------------------------------------

 SCF Done:  E(RCAM-B3LYP) =  -1706.94436944     A.U. after   15 cycles

 Excitation energies and oscillator strengths:

 Excited State   1:      Singlet-A      2.1105 eV  587.46 nm  f=3.1354  <S**2>=0.000
     155 ->158        -0.15804
     156 ->157         0.68974
 This state for optimization and/or second-order correction.
 Total Energy, E(TD-HF/TD-DFT) =  -1706.86680940
 Copying the excited state density for this state as the 1-particle RhoCI density.

 The electronic state is 1-A.
 Alpha  occ. eigenvalues --  -19.22322 -19.21072 -10.30754 -10.30658 -10.28175
 Alpha  occ. eigenvalues --  -10.28075 -10.27378 -10.27362 -10.27289 -10.27129
 Alpha  occ. eigenvalues --  -10.26984 -10.26921 -10.26885 -10.26877 -10.26699
 Alpha  occ. eigenvalues --  -10.26542 -10.26465 -10.26460 -10.26452 -10.26314
 Alpha  occ. eigenvalues --  -10.26296 -10.26209 -10.26116 -10.25904 -10.25874
 Alpha  occ. eigenvalues --  -10.25755 -10.25738 -10.25675 -10.25673 -10.25274
 Alpha  occ. eigenvalues --  -10.25226 -10.25137 -10.25097 -10.25073 -10.24981
 Alpha  occ. eigenvalues --  -10.24959 -10.24916 -10.24841 -10.23979 -10.23393
 Alpha  occ. eigenvalues --  -10.22926 -10.22698  -1.10014  -1.08626  -0.94809
 Alpha  occ. eigenvalues --   -0.93977  -0.92609  -0.91558  -0.90841  -0.89007
 Alpha  occ. eigenvalues --   -0.87751  -0.87203  -0.87124  -0.85772  -0.84864
 Alpha  occ. eigenvalues --   -0.83204  -0.82879  -0.80767  -0.80275  -0.79195
 Alpha  occ. eigenvalues --   -0.77412  -0.77286  -0.76781  -0.76259  -0.76015
 Alpha  occ. eigenvalues --   -0.75620  -0.74796  -0.73658  -0.72670  -0.70513
 Alpha  occ. eigenvalues --   -0.69330  -0.68408  -0.66182  -0.65560  -0.64612
 Alpha  occ. eigenvalues --   -0.63064  -0.62155  -0.62043  -0.60585  -0.59481
 Alpha  occ. eigenvalues --   -0.59206  -0.58366  -0.58173  -0.57650  -0.56767
 Alpha  occ. eigenvalues --   -0.56088  -0.55033  -0.54836  -0.54180  -0.53937
 Alpha  occ. eigenvalues --   -0.53267  -0.52340  -0.52139  -0.52070  -0.51505
 Alpha  occ. eigenvalues --   -0.51142  -0.50286  -0.50029  -0.49897  -0.49664
 Alpha  occ. eigenvalues --   -0.49535  -0.49321  -0.48744  -0.48353  -0.47967
 Alpha  occ. eigenvalues --   -0.47951  -0.47607  -0.47355  -0.46939  -0.46700
 Alpha  occ. eigenvalues --   -0.46111  -0.45749  -0.45363  -0.45120  -0.44720
 Alpha  occ. eigenvalues --   -0.44594  -0.44319  -0.43906  -0.43745  -0.43672
 Alpha  occ. eigenvalues --   -0.43444  -0.42811  -0.42677  -0.42545  -0.42108
 Alpha  occ. eigenvalues --   -0.41901  -0.41276  -0.40919  -0.40698  -0.40582
 Alpha  occ. eigenvalues --   -0.40299  -0.40164  -0.39907  -0.39788  -0.39322
 Alpha  occ. eigenvalues --   -0.38982  -0.38826  -0.38564  -0.38088  -0.37734
 Alpha  occ. eigenvalues --   -0.37322  -0.36809  -0.35874  -0.35500  -0.35239
 Alpha  occ. eigenvalues --   -0.34909  -0.34264  -0.33088  -0.32471  -0.32241
 Alpha  occ. eigenvalues --   -0.31690  -0.31531  -0.28421  -0.26181  -0.23209
 Alpha  occ. eigenvalues --   -0.19063
 Alpha virt. eigenvalues --   -0.05816  -0.01119   0.02426   0.05883   0.07962
 Alpha virt. eigenvalues --    0.09327   0.10928   0.11061   0.11404   0.11952
 Alpha virt. eigenvalues --    0.12464   0.12579   0.13527   0.13676   0.14493

 Mulliken charges:
               1
     1  O   -0.538656
     2  O   -0.569662
     3  C    0.002295
     4  C   -0.107343
     5  C   -0.173947
     6  C    0.156012
     7  C    0.114382
     8  C   -0.034544
     9  C   -0.308443
    10  C   -0.279144
    11  C   -0.188741
    12  C   -0.151038
    13  C    0.169348
    14  C    0.079612
    15  C   -0.067295
    16  C   -0.243056
    17  C    0.061377
    18  C   -0.338390
    19  C   -0.288553
    20  C   -0.354505
    21  C   -0.119198
    22  C   -0.089177
    23  C   -0.359469
    24  C    0.140259
    25  C   -0.122460
    26  C   -0.377226
    27  C    0.049454
    28  C   -0.104560
    29  C   -0.370250
    30  C   -0.105338
    31  C   -0.081319
    32  C   -0.085570
    33  C   -0.131141
    34  C    0.061628
    35  C   -0.100649
    36  C    0.095572
    37  C   -0.367949
    38  C   -0.079442
    39  C   -0.125816
    40  C   -0.363245
    41  C   -0.068690
    42  C   -0.098191
    43  H    0.089750
    44  H    0.096081
    45  H    0.090180
    46  H    0.079441
    47  H    0.065672
    48  H    0.090488
    49  H    0.094818
    50  H    0.091284
    51  H    0.110792
    52  H    0.087507
    53  H    0.111112
    54  H    0.052789
    55  H    0.055137
    56  H    0.079895
    57  H    0.082202
    58  H    0.100308
    59  H    0.124005
    60  H    0.110375
    61  H    0.116616
    62  H    0.097955
    63  H    0.110595
    64  H    0.099585
    65  H    0.102495
    66  H    0.106554
    67  H    0.124979
    68  H    0.106247
    69  H    0.310842
    70  H    0.083860
    71  H    0.074572
    72  H    0.090731
    73  H    0.125376
    74  H    0.118464
    75  H    0.303994
    76  H    0.097618
    77  H    0.087316
    78  H    0.121100
    79  H    0.125529
    80  H    0.084880
    81  H    0.125339
    82  H    0.120078
    83  H    0.106780
    84  H    0.062253
    85  H    0.092009
    86  H    0.079797
    87  H    0.071789
    88  H    0.092781
    89  H    0.128852
    90  H    0.133344
    91  H    0.102653
    92  H    0.070830
    93  H    0.071431
    94  H    0.130305
    95  H    0.125407
    96  H    0.105741
    97  H    0.069956
    98  H    0.072574
 Sum of Mulliken charges =  -0.00000

 Dipole moment (field-independent basis, Debye):
    X=              0.7415    Y=             -0.4912    Z=             -0.2151  Tot=              0.9151
 Quadrupole moment (field-independent basis, Debye-Ang):
   XX=           -275.8398   YY=           -241.6128   ZZ=           -261.3879
   XY=              8.2366   XZ=             36.2144   YZ=              2.9083

 Normal termination of Gaussian 16 at Sat Jul 13 07:39:34 2019.
