 Gaussian 16, Revision A.03,
 Gaussian 16:  ES64L-G16RevA.03 25-Dec-2016

 -------------------------------------
 # td=(NStates=1) CAM-B3LYP/6-31G(d,p)
 -------------------------------------

 --
 TD
 --
 Symbolic Z-matrix:
 Charge =  0 Multiplicity = 1

                         Standard orientation:
 ---------------------------------------------------------------------
 Center     Atomic      Atomic             Coordinates (Angstroms)
 Number     Number       Type             X           Y           Z
 ---------------------------------------------------------------------
      1          8           0      -14.119043   -2.157439    0.606186
      2          8           0       14.784996    0.665841    0.251164
      3          6           0      -11.780954    0.051254    1.251220
      4          6           0      -11.095475    0.336509   -0.054553
      5          6           0      -11.992194   -1.460182    1.485375
      6          6           0      -12.667571   -2.120422    0.286952
      7          6           0      -11.619701   -0.421443   -1.272356
      8          6           0       11.154232    1.005914    1.060028
      9          6           0      -10.958893    0.624671    2.514268
     10          6           0      -13.103541    0.721218    1.170030
     11          6           0       12.617709    1.403124    0.836918
     12          6           0      -12.444607   -1.449558   -1.030126
     13          6           0       13.499091    0.258956    0.378172
     14          6           0       10.669261    0.054530   -0.029689
     15          6           0       -9.584468   -0.064240   -0.019584
     16          6           0       12.989504   -0.255788   -1.017237
     17          6           0       11.475338   -0.403286   -1.071514
     18          6           0       10.309622    2.243086    1.118623
     19          6           0       11.043298    0.241061    2.413610
     20          6           0      -11.269928    0.139681   -2.620091
     21          6           0       -8.569943    0.743307   -0.352852
     22          6           0        9.370832   -0.466193    0.103496
     23          6           0       11.073378   -1.185199   -2.267502
     24          6           0       -7.130115    0.403909   -0.226028
     25          6           0        8.906737   -1.697101   -0.170534
     26          6           0       -6.686203   -1.009458    0.152313
     27          6           0        7.458720   -2.066108   -0.115101
     28          6           0       -6.240728    1.395129   -0.346927
     29          6           0        7.136542   -3.567242    0.075162
     30          6           0        6.375699   -1.236450   -0.239665
     31          6           0       -4.842055    1.388506   -0.396486
     32          6           0        5.055182   -1.417675   -0.103156
     33          6           0       -4.053268    2.502206   -0.539423
     34          6           0       -2.652122    2.671899   -0.529220
     35          6           0        4.067176   -0.485956   -0.393197
     36          6           0        2.687086   -0.721004   -0.247303
     37          6           0       -2.124351    4.020969   -0.772051
     38          6           0       -1.773607    1.519520   -0.292759
     39          6           0        1.784251    0.359707   -0.399281
     40          6           0        2.190569   -2.067188    0.440225
     41          6           0       -0.387106    1.601233   -0.560213
     42          6           0        0.416161    0.460323   -0.342113
     43          1           0      -11.149840    1.505913   -0.181818
     44          1           0      -12.573661   -1.769117    2.232890
     45          1           0      -11.025545   -2.067965    1.659622
     46          1           0      -12.348880   -3.049045   -0.107903
     47          1           0      -10.085709   -0.080725    2.506697
     48          1           0      -10.567842    1.632732    2.391689
     49          1           0      -11.550560    0.505147    3.298364
     50          1           0      -13.867257    0.212218    0.515956
     51          1           0      -13.464592    0.798777    2.220221
     52          1           0      -13.027275    1.886975    1.053345
     53          1           0       12.844931    2.391184    0.079716
     54          1           0       13.063320    1.684426    1.919630
     55          1           0      -12.868940   -1.935968   -1.890250
     56          1           0       13.342111   -0.466604    1.208207
     57          1           0       -9.227949   -1.105242   -0.023150
     58          1           0       13.375578   -1.242476   -1.162434
     59          1           0       13.320587    0.320431   -1.644976
     60          1           0        9.281107    1.958688    1.379674
     61          1           0       10.368854    2.739665    0.131939
     62          1           0       10.738110    2.915296    1.938284
     63          1           0       11.670575   -0.699516    2.560010
     64          1           0       10.047335   -0.250190    2.449747
     65          1           0       11.383785    1.009588    3.203821
     66          1           0      -10.176128    0.417238   -2.792849
     67          1           0      -11.779436    1.119502   -2.800478
     68          1           0      -11.644597   -0.472638   -3.288876
     69          1           0      -14.527070   -2.045332   -0.336207
     70          1           0        8.704941    0.236714    0.398389
     71          1           0       -8.797395    1.911800   -0.344965
     72          1           0       11.196278   -2.290748   -2.245475
     73          1           0        9.915704   -1.191073   -2.461498
     74          1           0       11.651698   -0.820705   -3.279559
     75          1           0       15.121568    0.707865    1.333685
     76          1           0        9.631364   -2.648576   -0.286612
     77          1           0       -5.621858   -1.177940    0.175334
     78          1           0       -7.054522   -1.375845    1.134244
     79          1           0       -7.200589   -1.848228   -0.481743
     80          1           0       -6.681353    2.304366   -0.684375
     81          1           0        7.009792   -3.788911    1.205383
     82          1           0        6.177786   -3.885564   -0.490599
     83          1           0        8.046976   -4.140073   -0.085818
     84          1           0        6.544976   -0.071698   -0.573432
     85          1           0       -4.363624    0.494775   -0.289314
     86          1           0        4.988026   -2.442704    0.336743
     87          1           0       -4.570927    3.504098   -0.970873
     88          1           0        4.351701    0.525312   -0.762282
     89          1           0       -1.524378    3.740920   -1.637331
     90          1           0       -1.570989    4.314878    0.175366
     91          1           0       -2.947798    4.645267   -1.179641
     92          1           0       -2.153037    0.484625   -0.148767
     93          1           0        2.214327    1.369260   -0.756219
     94          1           0        2.987038   -2.373681    1.307183
     95          1           0        0.964259   -1.936784    1.028985
     96          1           0        2.252839   -2.790676   -0.518955
     97          1           0        0.079709    2.684930   -0.666247
     98          1           0       -0.052494   -0.435093    0.124115
 ---------------------------------------------------------------------

 SCF Done:  E(RCAM-B3LYP) =  -1706.94506662     A.U. after   15 cycles

 Excitation energies and oscillator strengths:

 Excited State   1:      Singlet-A      1.8797 eV  659.58 nm  f=3.0479  <S**2>=0.000
     155 ->158        -0.13122
     156 ->157         0.70090
     156 <-157        -0.11738
 This state for optimization and/or second-order correction.
 Total Energy, E(TD-HF/TD-DFT) =  -1706.87598777
 Copying the excited state density for this state as the 1-particle RhoCI density.

 The electronic state is 1-A.
 Alpha  occ. eigenvalues --  -19.22653 -19.21664 -10.30548 -10.30437 -10.29733
 Alpha  occ. eigenvalues --  -10.28039 -10.28035 -10.27919 -10.27737 -10.27618
 Alpha  occ. eigenvalues --  -10.27508 -10.27500 -10.27292 -10.27114 -10.27101
 Alpha  occ. eigenvalues --  -10.26948 -10.26912 -10.26890 -10.26850 -10.26687
 Alpha  occ. eigenvalues --  -10.26686 -10.26681 -10.26599 -10.26560 -10.26463
 Alpha  occ. eigenvalues --  -10.26399 -10.26299 -10.26163 -10.25804 -10.25796
 Alpha  occ. eigenvalues --  -10.25767 -10.25675 -10.25449 -10.25324 -10.25104
 Alpha  occ. eigenvalues --  -10.25077 -10.25031 -10.24990 -10.24555 -10.24166
 Alpha  occ. eigenvalues --  -10.23777 -10.23081  -1.09951  -1.07133  -0.94025
 Alpha  occ. eigenvalues --   -0.93705  -0.92164  -0.91510  -0.90564  -0.89376
 Alpha  occ. eigenvalues --   -0.87436  -0.87359  -0.86837  -0.85774  -0.84835
 Alpha  occ. eigenvalues --   -0.83233  -0.81985  -0.80841  -0.79375  -0.78073
 Alpha  occ. eigenvalues --   -0.77482  -0.76887  -0.76106  -0.75967  -0.75289
 Alpha  occ. eigenvalues --   -0.75099  -0.75058  -0.74091  -0.71899  -0.70392
 Alpha  occ. eigenvalues --   -0.68596  -0.68108  -0.65941  -0.64549  -0.63937
 Alpha  occ. eigenvalues --   -0.63051  -0.62430  -0.61707  -0.60099  -0.59576
 Alpha  occ. eigenvalues --   -0.58787  -0.58649  -0.58038  -0.56757  -0.55972
 Alpha  occ. eigenvalues --   -0.55501  -0.55233  -0.54960  -0.53881  -0.53736
 Alpha  occ. eigenvalues --   -0.53154  -0.52942  -0.52294  -0.51791  -0.51136
 Alpha  occ. eigenvalues --   -0.51049  -0.50662  -0.49806  -0.49678  -0.49569
 Alpha  occ. eigenvalues --   -0.48834  -0.48122  -0.47986  -0.47303  -0.47217
 Alpha  occ. eigenvalues --   -0.47066  -0.46813  -0.46666  -0.46591  -0.46375
 Alpha  occ. eigenvalues --   -0.46277  -0.45816  -0.45302  -0.45067  -0.44974
 Alpha  occ. eigenvalues --   -0.44772  -0.44333  -0.44186  -0.44077  -0.43788
 Alpha  occ. eigenvalues --   -0.43156  -0.42910  -0.42235  -0.42033  -0.41700
 Alpha  occ. eigenvalues --   -0.41533  -0.41244  -0.41102  -0.40833  -0.40288
 Alpha  occ. eigenvalues --   -0.40105  -0.40054  -0.39967  -0.39901  -0.39517
 Alpha  occ. eigenvalues --   -0.39402  -0.38471  -0.38350  -0.38254  -0.37907
 Alpha  occ. eigenvalues --   -0.37347  -0.37126  -0.37007  -0.36433  -0.35855
 Alpha  occ. eigenvalues --   -0.35657  -0.34755  -0.34143  -0.32595  -0.32063
 Alpha  occ. eigenvalues --   -0.30925  -0.29758  -0.28683  -0.26717  -0.23795
 Alpha  occ. eigenvalues --   -0.18573
 Alpha virt. eigenvalues --   -0.06879  -0.01117   0.02626   0.04790   0.06670
 Alpha virt. eigenvalues --    0.07709   0.08597   0.10344   0.11308   0.12266
 Alpha virt. eigenvalues --    0.12563   0.12915   0.13228   0.13540   0.13745

 Mulliken charges:
               1
     1  O   -0.560081
     2  O   -0.538422
     3  C    0.000361
     4  C   -0.122587
     5  C   -0.169633
     6  C    0.148149
     7  C    0.133336
     8  C   -0.013940
     9  C   -0.296635
    10  C   -0.286845
    11  C   -0.161370
    12  C   -0.205287
    13  C    0.158003
    14  C    0.076468
    15  C   -0.088058
    16  C   -0.188088
    17  C    0.040129
    18  C   -0.288094
    19  C   -0.304199
    20  C   -0.350865
    21  C   -0.109737
    22  C   -0.099996
    23  C   -0.369326
    24  C    0.130617
    25  C   -0.114136
    26  C   -0.389660
    27  C    0.063558
    28  C   -0.124642
    29  C   -0.382813
    30  C   -0.098321
    31  C   -0.051732
    32  C   -0.071012
    33  C   -0.119820
    34  C    0.059512
    35  C   -0.115987
    36  C    0.087485
    37  C   -0.367890
    38  C   -0.104671
    39  C   -0.120648
    40  C   -0.323746
    41  C   -0.093668
    42  C   -0.088154
    43  H    0.088227
    44  H    0.131208
    45  H    0.080556
    46  H    0.107143
    47  H    0.101299
    48  H    0.101787
    49  H    0.111975
    50  H    0.115612
    51  H    0.089459
    52  H    0.073131
    53  H    0.067810
    54  H    0.041978
    55  H    0.073786
    56  H    0.065149
    57  H    0.082526
    58  H    0.113917
    59  H    0.117570
    60  H    0.102890
    61  H    0.111208
    62  H    0.094916
    63  H    0.096795
    64  H    0.113027
    65  H    0.092435
    66  H    0.123031
    67  H    0.113383
    68  H    0.115119
    69  H    0.305790
    70  H    0.084881
    71  H    0.069363
    72  H    0.117119
    73  H    0.113403
    74  H    0.086503
    75  H    0.304608
    76  H    0.080468
    77  H    0.117907
    78  H    0.123676
    79  H    0.105119
    80  H    0.074162
    81  H    0.111238
    82  H    0.119544
    83  H    0.111196
    84  H    0.047193
    85  H    0.074701
    86  H    0.079304
    87  H    0.056492
    88  H    0.095551
    89  H    0.140065
    90  H    0.138790
    91  H    0.112419
    92  H    0.090469
    93  H    0.064414
    94  H    0.115606
    95  H    0.074767
    96  H    0.118944
    97  H    0.092660
    98  H    0.070165
 Sum of Mulliken charges =  -0.00000

 Dipole moment (field-independent basis, Debye):
    X=             -0.4077    Y=             -0.5174    Z=             -0.0165  Tot=              0.6589
 Quadrupole moment (field-independent basis, Debye-Ang):
   XX=           -279.5821   YY=           -248.9198   ZZ=           -260.3937
   XY=            -12.9409   XZ=             44.3471   YZ=              0.5119

 Normal termination of Gaussian 16 at Fri Jul 12 23:36:15 2019.
