 Gaussian 16, Revision A.03,
 Gaussian 16:  ES64L-G16RevA.03 25-Dec-2016

 -------------------------------------
 # td=(NStates=1) CAM-B3LYP/6-31G(d,p)
 -------------------------------------

 --
 TD
 --
 Symbolic Z-matrix:
 Charge =  0 Multiplicity = 1

                         Standard orientation:
 ---------------------------------------------------------------------
 Center     Atomic      Atomic             Coordinates (Angstroms)
 Number     Number       Type             X           Y           Z
 ---------------------------------------------------------------------
      1          8           0      -14.180572   -2.060582    0.387279
      2          8           0       14.732851    1.045016    0.210484
      3          6           0      -11.715246    0.069454    1.357294
      4          6           0      -10.936459    0.394767    0.036635
      5          6           0      -12.030502   -1.357914    1.564498
      6          6           0      -12.659197   -2.030670    0.376011
      7          6           0      -11.590046   -0.308540   -1.186929
      8          6           0       10.971635    1.072092    1.031963
      9          6           0      -11.022678    0.583524    2.587147
     10          6           0      -13.068980    0.879322    1.294004
     11          6           0       12.421654    1.716767    0.714609
     12          6           0      -12.290996   -1.457651   -1.026445
     13          6           0       13.451626    0.506271    0.541136
     14          6           0       10.638018    0.051359    0.040442
     15          6           0       -9.511863   -0.049548    0.335145
     16          6           0       13.040969   -0.273131   -0.788998
     17          6           0       11.573555   -0.581537   -0.812823
     18          6           0       10.081304    2.272242    0.978990
     19          6           0       10.949956    0.609575    2.485376
     20          6           0      -11.325310    0.313118   -2.495924
     21          6           0       -8.480653    0.726598   -0.157937
     22          6           0        9.204324   -0.328375    0.005924
     23          6           0       11.292703   -1.647170   -1.837588
     24          6           0       -7.080809    0.347576   -0.256249
     25          6           0        8.799254   -1.631152   -0.008614
     26          6           0       -6.586008   -0.938127    0.114816
     27          6           0        7.497205   -2.164362   -0.025019
     28          6           0       -6.206358    1.450314   -0.435699
     29          6           0        7.359307   -3.634048    0.360819
     30          6           0        6.444668   -1.293893   -0.255588
     31          6           0       -4.792287    1.396062   -0.519029
     32          6           0        5.029069   -1.569233   -0.299027
     33          6           0       -3.997098    2.474971   -0.749770
     34          6           0       -2.571010    2.609434   -0.731894
     35          6           0        3.992574   -0.712660   -0.452704
     36          6           0        2.597810   -0.949769   -0.367363
     37          6           0       -1.935672    3.891175   -1.002413
     38          6           0       -1.792409    1.409724   -0.661411
     39          6           0        1.650993    0.091387   -0.500193
     40          6           0        2.140038   -2.352673   -0.041043
     41          6           0       -0.378335    1.357659   -0.764672
     42          6           0        0.252387    0.096827   -0.619423
     43          1           0      -10.911418    1.531778   -0.048292
     44          1           0      -12.685750   -1.625695    2.495907
     45          1           0      -11.165006   -1.901060    1.761020
     46          1           0      -12.320824   -3.044276    0.319844
     47          1           0       -9.971580    0.099198    3.035246
     48          1           0      -10.591289    1.636011    2.611667
     49          1           0      -11.462922    0.477357    3.430865
     50          1           0      -13.718769    0.732717    0.519084
     51          1           0      -13.734526    0.844054    2.272400
     52          1           0      -12.891585    2.028869    1.063666
     53          1           0       12.469998    2.452007   -0.072250
     54          1           0       12.525754    2.310423    1.693462
     55          1           0      -12.754637   -2.091866   -1.864722
     56          1           0       13.496199   -0.070433    1.580088
     57          1           0       -9.210768   -1.104089    0.655174
     58          1           0       13.739566   -1.137401   -0.838811
     59          1           0       13.294266    0.415623   -1.516831
     60          1           0        9.124659    2.029435    1.174562
     61          1           0       10.037904    2.692750   -0.019342
     62          1           0       10.267131    3.002778    1.852079
     63          1           0       11.682515   -0.156858    2.758882
     64          1           0        9.994598   -0.075410    2.730622
     65          1           0       10.895742    1.408605    3.269177
     66          1           0      -10.279545    0.473156   -2.564052
     67          1           0      -11.533542    1.410294   -2.251193
     68          1           0      -11.698935   -0.142416   -3.520213
     69          1           0      -14.513025   -2.183406   -0.459261
     70          1           0        8.475472    0.531718    0.214023
     71          1           0       -8.702016    1.831037   -0.275555
     72          1           0       11.767255   -2.655702   -1.496342
     73          1           0       10.332174   -1.566810   -2.064932
     74          1           0       11.693644   -1.113947   -2.718813
     75          1           0       15.078729    1.650567    0.845945
     76          1           0        9.470232   -2.448628    0.039368
     77          1           0       -5.625693   -1.205581    0.009246
     78          1           0       -6.894262   -1.204190    1.205343
     79          1           0       -7.244037   -1.898211   -0.403070
     80          1           0       -6.573686    2.448735   -0.514256
     81          1           0        6.679905   -3.632834    1.393413
     82          1           0        6.759594   -4.088978   -0.464527
     83          1           0        8.350911   -4.172993    0.321454
     84          1           0        6.689356   -0.231844   -0.355135
     85          1           0       -4.323109    0.453032   -0.312184
     86          1           0        4.833827   -2.662795   -0.192000
     87          1           0       -4.681308    3.423391   -1.004944
     88          1           0        4.210596    0.371869   -0.640993
     89          1           0       -1.245456    3.987646   -1.872946
     90          1           0       -1.409735    4.218194   -0.026634
     91          1           0       -2.517809    4.817578   -1.121197
     92          1           0       -2.388777    0.464831   -0.348450
     93          1           0        2.150557    1.209383   -0.609095
     94          1           0        2.173666   -2.198561    1.014360
     95          1           0        1.134941   -2.654063   -0.472916
     96          1           0        2.971481   -3.302812   -0.499136
     97          1           0        0.157688    2.396073   -0.823516
     98          1           0       -0.329378   -0.892320   -0.645727
 ---------------------------------------------------------------------

 SCF Done:  E(RCAM-B3LYP) =  -1706.97281469     A.U. after   15 cycles

 Excitation energies and oscillator strengths:

 Excited State   1:      Singlet-A      1.9887 eV  623.45 nm  f=3.0047  <S**2>=0.000
     155 ->158         0.15091
     156 ->157         0.69266
 This state for optimization and/or second-order correction.
 Total Energy, E(TD-HF/TD-DFT) =  -1706.89973261
 Copying the excited state density for this state as the 1-particle RhoCI density.

 The electronic state is 1-A.
 Alpha  occ. eigenvalues --  -19.20161 -19.19165 -10.31664 -10.30491 -10.28076
 Alpha  occ. eigenvalues --  -10.27992 -10.27956 -10.27922 -10.27916 -10.27889
 Alpha  occ. eigenvalues --  -10.27887 -10.27511 -10.27489 -10.27454 -10.27177
 Alpha  occ. eigenvalues --  -10.27151 -10.27127 -10.27123 -10.26991 -10.26914
 Alpha  occ. eigenvalues --  -10.26782 -10.26576 -10.26556 -10.26462 -10.26335
 Alpha  occ. eigenvalues --  -10.26314 -10.26262 -10.26217 -10.26174 -10.26066
 Alpha  occ. eigenvalues --  -10.26043 -10.25698 -10.25676 -10.25598 -10.25289
 Alpha  occ. eigenvalues --  -10.25244 -10.25049 -10.25023 -10.24693 -10.24169
 Alpha  occ. eigenvalues --  -10.23994 -10.23733  -1.08640  -1.06407  -0.93673
 Alpha  occ. eigenvalues --   -0.93483  -0.91910  -0.91470  -0.90566  -0.89943
 Alpha  occ. eigenvalues --   -0.87575  -0.87173  -0.86888  -0.85059  -0.84004
 Alpha  occ. eigenvalues --   -0.83172  -0.82035  -0.80786  -0.79859  -0.77962
 Alpha  occ. eigenvalues --   -0.76753  -0.76319  -0.76172  -0.76079  -0.75580
 Alpha  occ. eigenvalues --   -0.75400  -0.74864  -0.74515  -0.72107  -0.70100
 Alpha  occ. eigenvalues --   -0.68838  -0.67929  -0.66044  -0.65082  -0.64061
 Alpha  occ. eigenvalues --   -0.63222  -0.62793  -0.61956  -0.60108  -0.59420
 Alpha  occ. eigenvalues --   -0.58924  -0.58078  -0.57906  -0.57229  -0.55866
 Alpha  occ. eigenvalues --   -0.55335  -0.54880  -0.54224  -0.53897  -0.53364
 Alpha  occ. eigenvalues --   -0.53280  -0.52845  -0.52359  -0.51873  -0.51650
 Alpha  occ. eigenvalues --   -0.50852  -0.50407  -0.50151  -0.49844  -0.48956
 Alpha  occ. eigenvalues --   -0.48886  -0.48502  -0.48253  -0.48061  -0.47812
 Alpha  occ. eigenvalues --   -0.47136  -0.47015  -0.46712  -0.46381  -0.46275
 Alpha  occ. eigenvalues --   -0.45902  -0.45621  -0.45156  -0.44812  -0.44200
 Alpha  occ. eigenvalues --   -0.43646  -0.43508  -0.43377  -0.43184  -0.43102
 Alpha  occ. eigenvalues --   -0.42766  -0.42629  -0.42423  -0.42300  -0.41853
 Alpha  occ. eigenvalues --   -0.41447  -0.41213  -0.40920  -0.40784  -0.40572
 Alpha  occ. eigenvalues --   -0.40067  -0.39910  -0.39674  -0.39605  -0.39403
 Alpha  occ. eigenvalues --   -0.39286  -0.38887  -0.38692  -0.38515  -0.37891
 Alpha  occ. eigenvalues --   -0.37746  -0.37654  -0.36444  -0.36206  -0.35557
 Alpha  occ. eigenvalues --   -0.35491  -0.34613  -0.33248  -0.31534  -0.31190
 Alpha  occ. eigenvalues --   -0.30579  -0.28922  -0.28805  -0.26241  -0.23194
 Alpha  occ. eigenvalues --   -0.18983
 Alpha virt. eigenvalues --   -0.06306  -0.01403   0.02203   0.05744   0.06948
 Alpha virt. eigenvalues --    0.08589   0.10854   0.10999   0.11605   0.12082
 Alpha virt. eigenvalues --    0.12474   0.12826   0.13010   0.13186   0.13809

 Mulliken charges:
               1
     1  O   -0.572636
     2  O   -0.567397
     3  C    0.029927
     4  C   -0.156416
     5  C   -0.176575
     6  C    0.156269
     7  C    0.155768
     8  C   -0.027259
     9  C   -0.290476
    10  C   -0.291609
    11  C   -0.187614
    12  C   -0.181794
    13  C    0.157034
    14  C    0.084592
    15  C   -0.070945
    16  C   -0.207489
    17  C    0.003611
    18  C   -0.302623
    19  C   -0.308341
    20  C   -0.366734
    21  C   -0.117148
    22  C   -0.135793
    23  C   -0.334086
    24  C    0.141197
    25  C   -0.083483
    26  C   -0.378166
    27  C    0.085280
    28  C   -0.131872
    29  C   -0.366662
    30  C   -0.111792
    31  C   -0.040458
    32  C   -0.089770
    33  C   -0.137396
    34  C    0.105685
    35  C   -0.105966
    36  C    0.091249
    37  C   -0.400573
    38  C   -0.113581
    39  C   -0.130035
    40  C   -0.347505
    41  C   -0.089815
    42  C   -0.080634
    43  H    0.096983
    44  H    0.112974
    45  H    0.106830
    46  H    0.090909
    47  H    0.054873
    48  H    0.094249
    49  H    0.115061
    50  H    0.126751
    51  H    0.085998
    52  H    0.059764
    53  H    0.103225
    54  H    0.068662
    55  H    0.078525
    56  H    0.070051
    57  H    0.087355
    58  H    0.112416
    59  H    0.138595
    60  H    0.106000
    61  H    0.102948
    62  H    0.087882
    63  H    0.105230
    64  H    0.086721
    65  H    0.103352
    66  H    0.134097
    67  H    0.102666
    68  H    0.111845
    69  H    0.296161
    70  H    0.093978
    71  H    0.079205
    72  H    0.115942
    73  H    0.125412
    74  H    0.108252
    75  H    0.300123
    76  H    0.075148
    77  H    0.125367
    78  H    0.119346
    79  H    0.076269
    80  H    0.078965
    81  H    0.119202
    82  H    0.125849
    83  H    0.112571
    84  H    0.073777
    85  H    0.068719
    86  H    0.068659
    87  H    0.068412
    88  H    0.074659
    89  H    0.127988
    90  H    0.116349
    91  H    0.117308
    92  H    0.081266
    93  H    0.064871
    94  H    0.150800
    95  H    0.110889
    96  H    0.071993
    97  H    0.102735
    98  H    0.097857
 Sum of Mulliken charges =  -0.00000

 Dipole moment (field-independent basis, Debye):
    X=              2.3927    Y=              0.1085    Z=              0.2301  Tot=              2.4062
 Quadrupole moment (field-independent basis, Debye-Ang):
   XX=           -307.1596   YY=           -241.7620   ZZ=           -260.9095
   XY=              0.0652   XZ=             33.1057   YZ=              1.8679

 Normal termination of Gaussian 16 at Sun Jul 14 17:44:34 2019.
