 Gaussian 16, Revision A.03,
 Gaussian 16:  ES64L-G16RevA.03 25-Dec-2016

 -------------------------------------
 # td=(NStates=1) CAM-B3LYP/6-31G(d,p)
 -------------------------------------

 --
 TD
 --
 Symbolic Z-matrix:
 Charge =  0 Multiplicity = 1

                         Standard orientation:
 ---------------------------------------------------------------------
 Center     Atomic      Atomic             Coordinates (Angstroms)
 Number     Number       Type             X           Y           Z
 ---------------------------------------------------------------------
      1          8           0      -13.984875   -2.101098    0.380828
      2          8           0       14.782650    0.787784   -0.013373
      3          6           0      -11.720394   -0.091193    1.348070
      4          6           0      -10.958367    0.391591    0.011424
      5          6           0      -11.846953   -1.580992    1.349294
      6          6           0      -12.555067   -2.112237    0.103146
      7          6           0      -11.578081   -0.154337   -1.200667
      8          6           0       11.179026    0.824166    1.186040
      9          6           0      -10.942613    0.397313    2.537693
     10          6           0      -13.152796    0.565686    1.333222
     11          6           0       12.590932    1.357252    0.775239
     12          6           0      -12.319874   -1.272180   -1.207164
     13          6           0       13.523516    0.336765    0.257196
     14          6           0       10.622577    0.006738    0.038215
     15          6           0       -9.503182   -0.004106    0.071854
     16          6           0       12.821441   -0.110460   -1.096228
     17          6           0       11.433566   -0.356579   -0.995586
     18          6           0       10.362694    2.241621    1.325946
     19          6           0       11.076495    0.149082    2.493127
     20          6           0      -11.263678    0.505903   -2.541094
     21          6           0       -8.478152    0.908799   -0.108257
     22          6           0        9.208534   -0.387314    0.239155
     23          6           0       10.962955   -1.181228   -2.094958
     24          6           0       -7.098588    0.467663   -0.179921
     25          6           0        8.782595   -1.607092   -0.041433
     26          6           0       -6.757358   -0.982373    0.001539
     27          6           0        7.376019   -2.066903   -0.120275
     28          6           0       -6.251878    1.608123   -0.255716
     29          6           0        7.155928   -3.564293   -0.194251
     30          6           0        6.238367   -1.243181   -0.198404
     31          6           0       -4.846036    1.516822   -0.306341
     32          6           0        4.977793   -1.570211   -0.172614
     33          6           0       -3.969991    2.571384   -0.623010
     34          6           0       -2.563664    2.551841   -0.604979
     35          6           0        3.924007   -0.603856   -0.257474
     36          6           0        2.564300   -0.851593   -0.136799
     37          6           0       -1.912627    3.925293   -0.822425
     38          6           0       -1.795722    1.379487   -0.458291
     39          6           0        1.718833    0.191237   -0.295281
     40          6           0        2.123491   -2.236016    0.281404
     41          6           0       -0.396439    1.536406   -0.446875
     42          6           0        0.300447    0.406425   -0.353022
     43          1           0      -11.165914    1.390655   -0.041290
     44          1           0      -12.487868   -1.961290    2.163881
     45          1           0      -10.723556   -1.966558    1.489946
     46          1           0      -12.257342   -3.214570   -0.031075
     47          1           0       -9.919680    0.027288    2.230629
     48          1           0      -10.980475    1.601696    2.463931
     49          1           0      -11.402429   -0.255766    3.388494
     50          1           0      -13.460978    0.015269    0.523150
     51          1           0      -13.701721    0.282457    2.340515
     52          1           0      -13.004922    1.597419    1.223597
     53          1           0       12.650847    2.337580   -0.085315
     54          1           0       12.966632    1.998998    1.664542
     55          1           0      -12.840518   -1.841481   -2.067591
     56          1           0       13.390646   -0.628128    1.032048
     57          1           0       -9.287800   -1.019176    0.177437
     58          1           0       13.338539   -0.856834   -1.650012
     59          1           0       13.096445    0.846009   -1.701194
     60          1           0        9.272061    2.075586    1.761952
     61          1           0       10.056870    2.700187    0.335058
     62          1           0       10.740539    2.952063    1.947699
     63          1           0       11.758958   -0.876360    2.627248
     64          1           0        9.976867   -0.130969    2.660391
     65          1           0       11.497796    0.800644    3.207603
     66          1           0      -10.184365    0.484679   -2.616474
     67          1           0      -11.545638    1.546138   -2.506737
     68          1           0      -11.838035    0.119350   -3.399848
     69          1           0      -14.209275   -2.361697   -0.437149
     70          1           0        8.486025    0.353649    0.473155
     71          1           0       -8.621922    2.038093   -0.187769
     72          1           0       11.275854   -2.208917   -1.891211
     73          1           0        9.787915   -1.314384   -1.980082
     74          1           0       11.443602   -0.762863   -3.006270
     75          1           0       15.315274    0.997597    0.806723
     76          1           0        9.671262   -2.269528   -0.298472
     77          1           0       -5.644855   -1.160182   -0.257482
     78          1           0       -6.746078   -1.373417    1.119284
     79          1           0       -7.406777   -1.722093   -0.703034
     80          1           0       -6.634822    2.619345   -0.232011
     81          1           0        6.660127   -3.944919    0.690273
     82          1           0        6.370415   -3.732180   -1.024444
     83          1           0        8.051159   -4.239921   -0.431039
     84          1           0        6.522039   -0.188485   -0.448566
     85          1           0       -4.317342    0.713518   -0.237370
     86          1           0        4.594310   -2.586050   -0.170052
     87          1           0       -4.320811    3.508137   -0.628405
     88          1           0        4.275001    0.446044   -0.322144
     89          1           0       -1.591661    3.907190   -1.871753
     90          1           0       -1.107418    3.957972   -0.187757
     91          1           0       -2.596736    4.820082   -0.731980
     92          1           0       -2.235003    0.442310   -0.240195
     93          1           0        2.290580    1.201735   -0.624115
     94          1           0        2.644147   -2.446015    1.284986
     95          1           0        1.257809   -2.454420    0.573943
     96          1           0        2.220679   -3.045210   -0.449876
     97          1           0        0.191349    2.574148   -0.252777
     98          1           0       -0.144316   -0.468616   -0.261648
 ---------------------------------------------------------------------

 SCF Done:  E(RCAM-B3LYP) =  -1706.95337886     A.U. after   15 cycles

 Excitation energies and oscillator strengths:

 Excited State   1:      Singlet-A      2.0764 eV  597.12 nm  f=3.1971  <S**2>=0.000
     155 ->158        -0.15686
     156 ->157         0.68861
 This state for optimization and/or second-order correction.
 Total Energy, E(TD-HF/TD-DFT) =  -1706.87707389
 Copying the excited state density for this state as the 1-particle RhoCI density.

 The electronic state is 1-A.
 Alpha  occ. eigenvalues --  -19.22473 -19.20559 -10.31522 -10.31358 -10.29252
 Alpha  occ. eigenvalues --  -10.28578 -10.27497 -10.27415 -10.27409 -10.27294
 Alpha  occ. eigenvalues --  -10.27265 -10.27179 -10.27172 -10.27093 -10.26728
 Alpha  occ. eigenvalues --  -10.26475 -10.26298 -10.26288 -10.26201 -10.26147
 Alpha  occ. eigenvalues --  -10.25872 -10.25738 -10.25733 -10.25546 -10.25515
 Alpha  occ. eigenvalues --  -10.25512 -10.25432 -10.25380 -10.25361 -10.25315
 Alpha  occ. eigenvalues --  -10.25169 -10.25138 -10.25103 -10.25086 -10.25063
 Alpha  occ. eigenvalues --  -10.24924 -10.24866 -10.24862 -10.24811 -10.24705
 Alpha  occ. eigenvalues --  -10.24633 -10.22118  -1.11298  -1.11038  -0.94184
 Alpha  occ. eigenvalues --   -0.93846  -0.92712  -0.91959  -0.90836  -0.89871
 Alpha  occ. eigenvalues --   -0.87821  -0.87557  -0.87069  -0.86047  -0.84715
 Alpha  occ. eigenvalues --   -0.82691  -0.82245  -0.80170  -0.79960  -0.79253
 Alpha  occ. eigenvalues --   -0.77154  -0.76895  -0.76477  -0.75510  -0.75174
 Alpha  occ. eigenvalues --   -0.75130  -0.74484  -0.74219  -0.72942  -0.70685
 Alpha  occ. eigenvalues --   -0.68990  -0.67159  -0.66640  -0.64928  -0.64777
 Alpha  occ. eigenvalues --   -0.63462  -0.62290  -0.61830  -0.61548  -0.60761
 Alpha  occ. eigenvalues --   -0.59976  -0.58330  -0.57903  -0.57387  -0.56336
 Alpha  occ. eigenvalues --   -0.55808  -0.55565  -0.54817  -0.54160  -0.53772
 Alpha  occ. eigenvalues --   -0.53462  -0.53061  -0.52678  -0.52366  -0.51876
 Alpha  occ. eigenvalues --   -0.50354  -0.49757  -0.49466  -0.49287  -0.49090
 Alpha  occ. eigenvalues --   -0.48778  -0.48652  -0.48463  -0.48261  -0.47832
 Alpha  occ. eigenvalues --   -0.47539  -0.47264  -0.47243  -0.46977  -0.46183
 Alpha  occ. eigenvalues --   -0.45930  -0.45883  -0.45542  -0.45359  -0.45261
 Alpha  occ. eigenvalues --   -0.45096  -0.44842  -0.44216  -0.44053  -0.43856
 Alpha  occ. eigenvalues --   -0.43405  -0.43182  -0.42989  -0.42754  -0.42535
 Alpha  occ. eigenvalues --   -0.42112  -0.41454  -0.41212  -0.41125  -0.40893
 Alpha  occ. eigenvalues --   -0.40378  -0.40304  -0.39915  -0.39651  -0.39349
 Alpha  occ. eigenvalues --   -0.39170  -0.38746  -0.38308  -0.38116  -0.37612
 Alpha  occ. eigenvalues --   -0.37411  -0.37017  -0.36688  -0.35939  -0.35320
 Alpha  occ. eigenvalues --   -0.34333  -0.33815  -0.33116  -0.32151  -0.31821
 Alpha  occ. eigenvalues --   -0.31575  -0.29875  -0.28412  -0.26915  -0.23094
 Alpha  occ. eigenvalues --   -0.19163
 Alpha virt. eigenvalues --   -0.06121  -0.01888   0.03316   0.05734   0.07077
 Alpha virt. eigenvalues --    0.08751   0.10762   0.11218   0.11965   0.12290
 Alpha virt. eigenvalues --    0.12800   0.13144   0.13227   0.13597   0.14042

 Mulliken charges:
               1
     1  O   -0.507818
     2  O   -0.549895
     3  C   -0.032423
     4  C   -0.110945
     5  C   -0.163801
     6  C    0.076441
     7  C    0.101095
     8  C   -0.014570
     9  C   -0.263265
    10  C   -0.268150
    11  C   -0.165866
    12  C   -0.141261
    13  C    0.188921
    14  C    0.043762
    15  C   -0.122025
    16  C   -0.246813
    17  C    0.117964
    18  C   -0.316113
    19  C   -0.275551
    20  C   -0.355016
    21  C   -0.075945
    22  C   -0.086650
    23  C   -0.388513
    24  C    0.128192
    25  C   -0.138473
    26  C   -0.376611
    27  C    0.069076
    28  C   -0.127327
    29  C   -0.377971
    30  C   -0.107635
    31  C   -0.034934
    32  C   -0.073507
    33  C   -0.110069
    34  C    0.046322
    35  C   -0.135460
    36  C    0.144744
    37  C   -0.362536
    38  C   -0.107607
    39  C   -0.160819
    40  C   -0.369800
    41  C   -0.070834
    42  C   -0.067907
    43  H    0.091230
    44  H    0.116704
    45  H    0.068773
    46  H    0.081332
    47  H    0.093493
    48  H    0.079080
    49  H    0.091775
    50  H    0.130032
    51  H    0.079181
    52  H    0.084025
    53  H    0.057326
    54  H    0.062130
    55  H    0.077587
    56  H    0.042063
    57  H    0.099384
    58  H    0.110922
    59  H    0.111406
    60  H    0.069071
    61  H    0.105586
    62  H    0.113055
    63  H    0.070961
    64  H    0.114189
    65  H    0.106148
    66  H    0.127535
    67  H    0.108900
    68  H    0.112085
    69  H    0.291318
    70  H    0.090456
    71  H    0.087253
    72  H    0.119577
    73  H    0.116305
    74  H    0.106705
    75  H    0.317515
    76  H    0.093143
    77  H    0.109486
    78  H    0.126553
    79  H    0.113145
    80  H    0.092478
    81  H    0.126852
    82  H    0.108291
    83  H    0.105141
    84  H    0.080999
    85  H    0.050136
    86  H    0.087989
    87  H    0.058085
    88  H    0.083267
    89  H    0.135540
    90  H    0.127185
    91  H    0.106764
    92  H    0.098025
    93  H    0.051822
    94  H    0.112528
    95  H    0.113713
    96  H    0.117303
    97  H    0.095806
    98  H    0.062237
 Sum of Mulliken charges =  -0.00000

 Dipole moment (field-independent basis, Debye):
    X=              0.5426    Y=             -0.3593    Z=             -0.2439  Tot=              0.6950
 Quadrupole moment (field-independent basis, Debye-Ang):
   XX=           -291.8221   YY=           -242.3653   ZZ=           -265.2490
   XY=              3.1648   XZ=             41.6828   YZ=              2.7500

 Normal termination of Gaussian 16 at Sun Jul 14 23:56:44 2019.
