 Gaussian 16, Revision A.03,
 Gaussian 16:  ES64L-G16RevA.03 25-Dec-2016

 -------------------------------------
 # td=(NStates=1) CAM-B3LYP/6-31G(d,p)
 -------------------------------------

 --
 TD
 --
 Symbolic Z-matrix:
 Charge =  0 Multiplicity = 1

                         Standard orientation:
 ---------------------------------------------------------------------
 Center     Atomic      Atomic             Coordinates (Angstroms)
 Number     Number       Type             X           Y           Z
 ---------------------------------------------------------------------
      1          8           0      -14.123225   -2.002826    0.660621
      2          8           0       14.711557    0.929706    0.426231
      3          6           0      -11.684363   -0.010343    1.438560
      4          6           0      -10.903870    0.300618    0.108742
      5          6           0      -12.010042   -1.539608    1.576241
      6          6           0      -12.664384   -2.167409    0.426437
      7          6           0      -11.565154   -0.390392   -1.097212
      8          6           0       10.990847    0.799803    1.279448
      9          6           0      -10.888077    0.492666    2.690238
     10          6           0      -13.039448    0.806743    1.329165
     11          6           0       12.387704    1.397445    1.124944
     12          6           0      -12.290481   -1.553841   -0.914329
     13          6           0       13.400872    0.411605    0.504274
     14          6           0       10.556752   -0.003617    0.102281
     15          6           0       -9.442922    0.019237    0.140237
     16          6           0       12.831620    0.037511   -0.918328
     17          6           0       11.421219   -0.310141   -0.921725
     18          6           0       10.084181    1.990525    1.514924
     19          6           0       11.054944   -0.074625    2.633348
     20          6           0      -11.264906    0.196826   -2.517263
     21          6           0       -8.431439    0.934702   -0.170787
     22          6           0        9.132475   -0.490339    0.000946
     23          6           0       11.060772   -1.016702   -2.229651
     24          6           0       -7.087763    0.604063   -0.369189
     25          6           0        8.809482   -1.737686   -0.246396
     26          6           0       -6.717190   -0.832128   -0.092858
     27          6           0        7.411943   -2.123604   -0.276995
     28          6           0       -6.066682    1.562021   -0.430402
     29          6           0        7.132142   -3.630563   -0.279125
     30          6           0        6.386586   -1.232358   -0.393060
     31          6           0       -4.741893    1.451635   -0.482979
     32          6           0        5.018269   -1.483039   -0.210588
     33          6           0       -4.014167    2.592747   -0.576511
     34          6           0       -2.621593    2.736246   -0.782757
     35          6           0        4.010124   -0.643489   -0.283309
     36          6           0        2.689522   -0.823391   -0.283553
     37          6           0       -1.891664    4.010597   -1.108605
     38          6           0       -1.731123    1.556790   -0.678606
     39          6           0        1.770641    0.222682   -0.499451
     40          6           0        2.115679   -2.268121   -0.078959
     41          6           0       -0.335613    1.509994   -0.715131
     42          6           0        0.423156    0.277341   -0.561277
     43          1           0      -10.979831    1.440614    0.055844
     44          1           0      -12.540358   -1.956958    2.463349
     45          1           0      -10.889898   -2.144005    1.666294
     46          1           0      -12.224419   -3.255262    0.204256
     47          1           0       -9.921440    0.179963    2.609512
     48          1           0      -10.945045    1.506175    2.481591
     49          1           0      -11.532220    0.296324    3.548068
     50          1           0      -13.609489    0.502838    0.483559
     51          1           0      -13.497802    0.477916    2.288002
     52          1           0      -12.688019    1.813186    1.232743
     53          1           0       12.325394    2.291441    0.439685
     54          1           0       12.899765    1.556445    2.282101
     55          1           0      -13.013209   -2.141108   -1.676095
     56          1           0       13.499567   -0.519887    1.034410
     57          1           0       -9.096037   -1.034837    0.553722
     58          1           0       13.466374   -0.878354   -1.170689
     59          1           0       12.959849    0.801776   -1.535981
     60          1           0        9.123199    1.784950    1.961834
     61          1           0        9.825711    2.819613    0.735615
     62          1           0       10.565785    2.714447    2.345455
     63          1           0       11.879745   -0.701200    2.514899
     64          1           0       10.268087   -0.688711    2.843312
     65          1           0       11.239506    0.804042    3.445328
     66          1           0      -10.277806    0.078990   -2.916321
     67          1           0      -11.477538    1.253889   -2.652410
     68          1           0      -11.878646   -0.493843   -3.307330
     69          1           0      -14.507405   -2.633833   -0.133062
     70          1           0        8.420407    0.277253    0.186443
     71          1           0       -8.696645    1.921774   -0.664890
     72          1           0       11.470401   -1.969347   -2.265507
     73          1           0       10.078293   -0.960916   -2.538246
     74          1           0       11.644915   -0.362923   -2.921086
     75          1           0       15.040708    0.958044    1.408062
     76          1           0        9.713823   -2.547810   -0.547915
     77          1           0       -5.734650   -1.014500   -0.268719
     78          1           0       -7.151486   -1.307736    0.816275
     79          1           0       -7.377819   -1.350643   -0.950763
     80          1           0       -6.514724    2.537512   -0.675814
     81          1           0        7.079078   -3.814436    0.750199
     82          1           0        6.293362   -3.953003   -0.930894
     83          1           0        8.078018   -4.208335   -0.655080
     84          1           0        6.581160   -0.299315   -0.766444
     85          1           0       -4.059483    0.565951   -0.499669
     86          1           0        4.755692   -2.493884    0.018087
     87          1           0       -4.613269    3.532620   -0.796028
     88          1           0        4.402968    0.419459   -0.067134
     89          1           0       -1.328617    4.057085   -2.052095
     90          1           0       -1.253934    4.155938   -0.249380
     91          1           0       -2.523840    4.921244   -1.040467
     92          1           0       -2.272210    0.668358   -0.679965
     93          1           0        2.424753    1.083981   -0.276720
     94          1           0        2.543436   -2.526225    0.913446
     95          1           0        0.946383   -2.190857   -0.375850
     96          1           0        2.626776   -2.999457   -0.741605
     97          1           0        0.106137    2.646672   -0.811575
     98          1           0       -0.137048   -0.518576   -0.313610
 ---------------------------------------------------------------------

 SCF Done:  E(RCAM-B3LYP) =  -1706.94614445     A.U. after   17 cycles

 Excitation energies and oscillator strengths:

 Excited State   1:      Singlet-A      1.7409 eV  712.19 nm  f=2.9238  <S**2>=0.000
     155 ->158        -0.11518
     156 ->157         0.70917
     156 <-157        -0.14336
 This state for optimization and/or second-order correction.
 Total Energy, E(TD-HF/TD-DFT) =  -1706.88216776
 Copying the excited state density for this state as the 1-particle RhoCI density.

 The electronic state is 1-A.
 Alpha  occ. eigenvalues --  -19.22990 -19.21763 -10.31457 -10.30116 -10.28515
 Alpha  occ. eigenvalues --  -10.28196 -10.28188 -10.27946 -10.27510 -10.27376
 Alpha  occ. eigenvalues --  -10.27298 -10.27185 -10.27087 -10.26975 -10.26896
 Alpha  occ. eigenvalues --  -10.26773 -10.26731 -10.26701 -10.26523 -10.26501
 Alpha  occ. eigenvalues --  -10.26407 -10.26343 -10.26326 -10.26235 -10.26139
 Alpha  occ. eigenvalues --  -10.26034 -10.26016 -10.26013 -10.25871 -10.25823
 Alpha  occ. eigenvalues --  -10.25818 -10.25667 -10.25496 -10.25135 -10.25125
 Alpha  occ. eigenvalues --  -10.25027 -10.24917 -10.24625 -10.24550 -10.24164
 Alpha  occ. eigenvalues --  -10.23008 -10.22705  -1.08745  -1.06846  -0.93958
 Alpha  occ. eigenvalues --   -0.92937  -0.92729  -0.92207  -0.90862  -0.89920
 Alpha  occ. eigenvalues --   -0.87793  -0.87595  -0.86037  -0.85394  -0.84579
 Alpha  occ. eigenvalues --   -0.83341  -0.82137  -0.80250  -0.79965  -0.78477
 Alpha  occ. eigenvalues --   -0.76744  -0.76627  -0.76187  -0.76060  -0.75844
 Alpha  occ. eigenvalues --   -0.75407  -0.74963  -0.74839  -0.73039  -0.70593
 Alpha  occ. eigenvalues --   -0.68783  -0.67071  -0.66142  -0.65084  -0.64174
 Alpha  occ. eigenvalues --   -0.63217  -0.62683  -0.62345  -0.60363  -0.59602
 Alpha  occ. eigenvalues --   -0.58815  -0.58619  -0.57637  -0.56724  -0.55903
 Alpha  occ. eigenvalues --   -0.55602  -0.54795  -0.54326  -0.53891  -0.53718
 Alpha  occ. eigenvalues --   -0.53187  -0.52717  -0.52413  -0.52028  -0.51891
 Alpha  occ. eigenvalues --   -0.51341  -0.50518  -0.50188  -0.50018  -0.49770
 Alpha  occ. eigenvalues --   -0.49610  -0.49475  -0.48980  -0.48436  -0.48212
 Alpha  occ. eigenvalues --   -0.47440  -0.47001  -0.46629  -0.46180  -0.45994
 Alpha  occ. eigenvalues --   -0.45790  -0.45448  -0.45381  -0.45074  -0.44971
 Alpha  occ. eigenvalues --   -0.44676  -0.44156  -0.43974  -0.43861  -0.43699
 Alpha  occ. eigenvalues --   -0.43160  -0.43139  -0.42882  -0.42514  -0.42172
 Alpha  occ. eigenvalues --   -0.41954  -0.41798  -0.41140  -0.40876  -0.40829
 Alpha  occ. eigenvalues --   -0.40607  -0.40544  -0.40265  -0.39868  -0.39746
 Alpha  occ. eigenvalues --   -0.39490  -0.38703  -0.38042  -0.37880  -0.37715
 Alpha  occ. eigenvalues --   -0.37013  -0.36805  -0.36564  -0.35854  -0.35274
 Alpha  occ. eigenvalues --   -0.35183  -0.34685  -0.33575  -0.32184  -0.31874
 Alpha  occ. eigenvalues --   -0.31505  -0.29419  -0.28651  -0.26994  -0.23910
 Alpha  occ. eigenvalues --   -0.18033
 Alpha virt. eigenvalues --   -0.07357  -0.00971   0.02577   0.05206   0.06711
 Alpha virt. eigenvalues --    0.08628   0.09435   0.09900   0.11105   0.11722
 Alpha virt. eigenvalues --    0.12130   0.12492   0.12862   0.13211   0.13517

 Mulliken charges:
               1
     1  O   -0.538344
     2  O   -0.564453
     3  C   -0.027074
     4  C   -0.138182
     5  C   -0.161059
     6  C    0.121276
     7  C    0.105315
     8  C   -0.005438
     9  C   -0.283820
    10  C   -0.284771
    11  C   -0.172864
    12  C   -0.106413
    13  C    0.162361
    14  C    0.046891
    15  C   -0.083305
    16  C   -0.231020
    17  C    0.029823
    18  C   -0.318668
    19  C   -0.292304
    20  C   -0.358874
    21  C   -0.101144
    22  C   -0.101515
    23  C   -0.345471
    24  C    0.081010
    25  C   -0.095372
    26  C   -0.357190
    27  C    0.059991
    28  C   -0.120812
    29  C   -0.364935
    30  C   -0.108166
    31  C   -0.025120
    32  C   -0.084593
    33  C   -0.131235
    34  C    0.069313
    35  C   -0.107083
    36  C    0.089909
    37  C   -0.388567
    38  C   -0.102520
    39  C   -0.093514
    40  C   -0.365479
    41  C   -0.084474
    42  C   -0.109027
    43  H    0.089916
    44  H    0.113208
    45  H    0.044160
    46  H    0.081356
    47  H    0.113395
    48  H    0.100649
    49  H    0.102752
    50  H    0.129275
    51  H    0.099133
    52  H    0.089041
    53  H    0.106199
    54  H    0.043550
    55  H    0.059182
    56  H    0.077916
    57  H    0.084558
    58  H    0.103398
    59  H    0.130811
    60  H    0.107945
    61  H    0.097779
    62  H    0.080698
    63  H    0.105960
    64  H    0.115184
    65  H    0.085156
    66  H    0.131782
    67  H    0.116835
    68  H    0.087919
    69  H    0.303010
    70  H    0.100329
    71  H    0.074732
    72  H    0.123046
    73  H    0.125945
    74  H    0.099416
    75  H    0.308851
    76  H    0.085881
    77  H    0.107676
    78  H    0.122110
    79  H    0.095312
    80  H    0.074101
    81  H    0.139788
    82  H    0.123698
    83  H    0.096358
    84  H    0.079344
    85  H    0.094758
    86  H    0.065886
    87  H    0.077095
    88  H    0.066551
    89  H    0.135239
    90  H    0.136936
    91  H    0.103262
    92  H    0.065176
    93  H    0.074595
    94  H    0.127334
    95  H    0.098653
    96  H    0.115753
    97  H    0.078564
    98  H    0.089762
 Sum of Mulliken charges =  -0.00000

 Dipole moment (field-independent basis, Debye):
    X=              1.5418    Y=             -1.4825    Z=             -0.2166  Tot=              2.1499
 Quadrupole moment (field-independent basis, Debye-Ang):
   XX=           -275.5678   YY=           -243.8185   ZZ=           -262.2419
   XY=             -1.2936   XZ=             35.1357   YZ=              0.6144

 Normal termination of Gaussian 16 at Sun Jul 14 11:43:13 2019.
