 Gaussian 16, Revision A.03,
 Gaussian 16:  ES64L-G16RevA.03 25-Dec-2016

 -------------------------------------
 # td=(NStates=1) CAM-B3LYP/6-31G(d,p)
 -------------------------------------

 --
 TD
 --
 Symbolic Z-matrix:
 Charge =  0 Multiplicity = 1

                         Standard orientation:
 ---------------------------------------------------------------------
 Center     Atomic      Atomic             Coordinates (Angstroms)
 Number     Number       Type             X           Y           Z
 ---------------------------------------------------------------------
      1          8           0      -13.966095   -2.238596    0.342074
      2          8           0       14.815647    0.939351    0.261918
      3          6           0      -11.710697   -0.144163    1.309518
      4          6           0      -10.957180    0.423721    0.066861
      5          6           0      -11.762661   -1.730435    1.371150
      6          6           0      -12.485667   -2.179708    0.131856
      7          6           0      -11.554019   -0.264138   -1.235679
      8          6           0       11.123089    0.945205    1.203108
      9          6           0      -10.907024    0.263371    2.558535
     10          6           0      -13.075652    0.470977    1.520968
     11          6           0       12.574847    1.517931    0.837897
     12          6           0      -12.267346   -1.411422   -1.116813
     13          6           0       13.519945    0.401804    0.382791
     14          6           0       10.644156   -0.056664    0.040074
     15          6           0       -9.465985   -0.020781    0.054745
     16          6           0       13.061467   -0.174338   -0.898198
     17          6           0       11.541545   -0.518096   -0.841966
     18          6           0       10.076203    2.045306    1.210662
     19          6           0       11.081275    0.127141    2.516032
     20          6           0      -11.427203    0.518510   -2.524082
     21          6           0       -8.523755    0.927826   -0.106537
     22          6           0        9.216820   -0.468180   -0.008901
     23          6           0       11.155447   -1.385304   -2.039884
     24          6           0       -7.050553    0.609541   -0.083003
     25          6           0        8.764441   -1.737640   -0.090696
     26          6           0       -6.604172   -0.764536    0.114095
     27          6           0        7.369277   -2.115350   -0.195726
     28          6           0       -6.186417    1.777923   -0.313817
     29          6           0        7.026645   -3.518902   -0.132649
     30          6           0        6.307636   -1.284895   -0.208437
     31          6           0       -4.872464    1.658620   -0.368453
     32          6           0        4.898399   -1.554425   -0.245452
     33          6           0       -3.976825    2.757248   -0.581735
     34          6           0       -2.583463    2.689841   -0.741878
     35          6           0        3.971857   -0.578292   -0.214854
     36          6           0        2.572541   -0.772046   -0.173459
     37          6           0       -1.776792    3.981785   -0.967405
     38          6           0       -1.880293    1.525860   -0.448410
     39          6           0        1.742540    0.388311   -0.379985
     40          6           0        1.983621   -2.165123   -0.153442
     41          6           0       -0.468241    1.556054   -0.589737
     42          6           0        0.271808    0.392494   -0.275225
     43          1           0      -10.863434    1.535542    0.114153
     44          1           0      -12.468005   -1.854693    2.117382
     45          1           0      -10.943082   -2.360359    1.419598
     46          1           0      -12.345355   -3.279535    0.040718
     47          1           0      -10.009862   -0.261858    2.805441
     48          1           0      -10.824627    1.514139    2.879492
     49          1           0      -11.579476   -0.056434    3.426719
     50          1           0      -13.809060    0.211506    0.676467
     51          1           0      -13.745523    0.227231    2.285926
     52          1           0      -12.856522    1.524332    1.547958
     53          1           0       12.413204    2.149822   -0.131221
     54          1           0       12.925388    1.917902    1.704232
     55          1           0      -12.873520   -1.897712   -1.980571
     56          1           0       13.534921   -0.454352    1.108350
     57          1           0       -9.357129   -0.895205    0.321853
     58          1           0       13.531879   -1.062816   -1.123139
     59          1           0       13.451031    0.645531   -1.630309
     60          1           0        9.171397    1.669040    1.711750
     61          1           0        9.654873    2.267408    0.000185
     62          1           0       10.537995    2.834829    1.662656
     63          1           0       11.727666   -0.781091    2.455986
     64          1           0        9.917725   -0.190308    2.917116
     65          1           0       11.299700    0.977811    3.190039
     66          1           0      -10.276520    0.285408   -2.579360
     67          1           0      -11.430771    1.466159   -2.291103
     68          1           0      -11.902693    0.107792   -3.407921
     69          1           0      -14.324284   -2.666329   -0.400616
     70          1           0        8.441966    0.164015    0.395643
     71          1           0       -8.784828    1.962642   -0.319892
     72          1           0       11.847352   -2.397994   -2.017225
     73          1           0       10.172631   -1.482534   -2.027496
     74          1           0       11.513078   -0.998789   -2.983943
     75          1           0       15.106803    1.121096    1.259586
     76          1           0        9.329868   -2.624274   -0.201836
     77          1           0       -5.613999   -1.156074   -0.086157
     78          1           0       -6.923616   -0.907608    1.202452
     79          1           0       -7.231632   -1.472680   -0.530513
     80          1           0       -6.631136    2.641945   -0.281028
     81          1           0        6.696924   -3.759513    0.809872
     82          1           0        6.129135   -3.851901   -0.886693
     83          1           0        7.707214   -4.242962   -0.598368
     84          1           0        6.552441   -0.373871   -0.343232
     85          1           0       -4.602481    0.390895   -0.684486
     86          1           0        4.598788   -2.588895   -0.297051
     87          1           0       -4.567304    3.721367   -0.468573
     88          1           0        4.321248    0.391472   -0.039396
     89          1           0       -1.376741    3.958178   -2.140242
     90          1           0       -1.059544    4.373004   -0.200479
     91          1           0       -2.603926    4.795324   -1.079773
     92          1           0       -2.347942    0.522146   -0.189922
     93          1           0        2.289980    1.353720   -0.746752
     94          1           0        2.410848   -2.737374    0.657611
     95          1           0        0.927395   -2.066802   -0.199655
     96          1           0        2.328474   -2.722756   -1.091001
     97          1           0        0.041004    2.546983   -0.796684
     98          1           0       -0.227241   -0.548768   -0.079695
 ---------------------------------------------------------------------

 SCF Done:  E(RCAM-B3LYP) =  -1706.90140757     A.U. after   15 cycles

 Excitation energies and oscillator strengths:

 Excited State   1:      Singlet-A      2.0216 eV  613.29 nm  f=2.9181  <S**2>=0.000
     155 ->158         0.14333
     156 ->157         0.69597
     156 <-157        -0.10210
 This state for optimization and/or second-order correction.
 Total Energy, E(TD-HF/TD-DFT) =  -1706.82711458
 Copying the excited state density for this state as the 1-particle RhoCI density.

 The electronic state is 1-A.
 Alpha  occ. eigenvalues --  -19.21852 -19.19399 -10.30191 -10.29794 -10.28670
 Alpha  occ. eigenvalues --  -10.27935 -10.27716 -10.27704 -10.27645 -10.27549
 Alpha  occ. eigenvalues --  -10.27545 -10.27505 -10.27375 -10.27233 -10.27071
 Alpha  occ. eigenvalues --  -10.26992 -10.26965 -10.26868 -10.26757 -10.26747
 Alpha  occ. eigenvalues --  -10.26222 -10.26165 -10.25984 -10.25880 -10.25698
 Alpha  occ. eigenvalues --  -10.25625 -10.25552 -10.25539 -10.25498 -10.25459
 Alpha  occ. eigenvalues --  -10.25386 -10.25266 -10.25039 -10.24895 -10.24895
 Alpha  occ. eigenvalues --  -10.24877 -10.24838 -10.24692 -10.24386 -10.24190
 Alpha  occ. eigenvalues --  -10.23187 -10.23017  -1.08845  -1.07610  -0.93428
 Alpha  occ. eigenvalues --   -0.92899  -0.91799  -0.91626  -0.90399  -0.89716
 Alpha  occ. eigenvalues --   -0.87186  -0.86684  -0.86484  -0.85571  -0.84622
 Alpha  occ. eigenvalues --   -0.83387  -0.82224  -0.81282  -0.80265  -0.77376
 Alpha  occ. eigenvalues --   -0.77085  -0.76404  -0.76228  -0.75896  -0.75522
 Alpha  occ. eigenvalues --   -0.75249  -0.75148  -0.74067  -0.72355  -0.69940
 Alpha  occ. eigenvalues --   -0.68592  -0.67320  -0.66205  -0.64598  -0.63802
 Alpha  occ. eigenvalues --   -0.62642  -0.62309  -0.61935  -0.60710  -0.60590
 Alpha  occ. eigenvalues --   -0.59581  -0.58855  -0.58491  -0.57439  -0.56097
 Alpha  occ. eigenvalues --   -0.55600  -0.55345  -0.54886  -0.54613  -0.53992
 Alpha  occ. eigenvalues --   -0.53530  -0.53422  -0.52879  -0.51992  -0.50978
 Alpha  occ. eigenvalues --   -0.50676  -0.50533  -0.50261  -0.49806  -0.49169
 Alpha  occ. eigenvalues --   -0.49093  -0.48882  -0.48464  -0.48212  -0.47935
 Alpha  occ. eigenvalues --   -0.47745  -0.47585  -0.47285  -0.46982  -0.46704
 Alpha  occ. eigenvalues --   -0.46275  -0.45477  -0.45254  -0.45103  -0.44660
 Alpha  occ. eigenvalues --   -0.44503  -0.44137  -0.43773  -0.43543  -0.43376
 Alpha  occ. eigenvalues --   -0.43134  -0.42442  -0.42367  -0.42038  -0.41839
 Alpha  occ. eigenvalues --   -0.41569  -0.41516  -0.41201  -0.40835  -0.40494
 Alpha  occ. eigenvalues --   -0.40315  -0.39759  -0.39573  -0.39171  -0.39115
 Alpha  occ. eigenvalues --   -0.38886  -0.38441  -0.38257  -0.38072  -0.37667
 Alpha  occ. eigenvalues --   -0.37287  -0.37127  -0.36425  -0.36271  -0.35865
 Alpha  occ. eigenvalues --   -0.35505  -0.33780  -0.33261  -0.31924  -0.31598
 Alpha  occ. eigenvalues --   -0.31490  -0.29415  -0.28266  -0.26625  -0.23072
 Alpha  occ. eigenvalues --   -0.18625
 Alpha virt. eigenvalues --   -0.05902  -0.01256   0.02841   0.05923   0.07282
 Alpha virt. eigenvalues --    0.09121   0.10206   0.10569   0.11290   0.12129
 Alpha virt. eigenvalues --    0.12559   0.13023   0.13660   0.13881   0.14064

 Mulliken charges:
               1
     1  O   -0.570540
     2  O   -0.562523
     3  C    0.006479
     4  C   -0.143109
     5  C   -0.184359
     6  C    0.113222
     7  C    0.085493
     8  C   -0.023279
     9  C   -0.287087
    10  C   -0.304049
    11  C   -0.167981
    12  C   -0.116961
    13  C    0.162468
    14  C    0.067848
    15  C   -0.035032
    16  C   -0.206543
    17  C    0.021409
    18  C   -0.291382
    19  C   -0.283386
    20  C   -0.325001
    21  C   -0.093909
    22  C   -0.151902
    23  C   -0.337734
    24  C    0.078028
    25  C   -0.063379
    26  C   -0.379968
    27  C    0.086511
    28  C   -0.080843
    29  C   -0.391220
    30  C   -0.103812
    31  C   -0.043770
    32  C   -0.077463
    33  C   -0.161781
    34  C    0.090862
    35  C   -0.094723
    36  C    0.080791
    37  C   -0.378047
    38  C   -0.092478
    39  C   -0.134034
    40  C   -0.359509
    41  C   -0.078723
    42  C   -0.105970
    43  H    0.091699
    44  H    0.133903
    45  H    0.108895
    46  H    0.075252
    47  H    0.103018
    48  H    0.055979
    49  H    0.087658
    50  H    0.115981
    51  H    0.117019
    52  H    0.092786
    53  H    0.107114
    54  H    0.080153
    55  H    0.060206
    56  H    0.064681
    57  H    0.060284
    58  H    0.110894
    59  H    0.107083
    60  H    0.109237
    61  H    0.075711
    62  H    0.106860
    63  H    0.115914
    64  H    0.079797
    65  H    0.096707
    66  H    0.109827
    67  H    0.123758
    68  H    0.119717
    69  H    0.295176
    70  H    0.092067
    71  H    0.086623
    72  H    0.073589
    73  H    0.119033
    74  H    0.114106
    75  H    0.308427
    76  H    0.082382
    77  H    0.123116
    78  H    0.130773
    79  H    0.114407
    80  H    0.066071
    81  H    0.141180
    82  H    0.085542
    83  H    0.103653
    84  H    0.052835
    85  H    0.051013
    86  H    0.073344
    87  H    0.086148
    88  H    0.080713
    89  H    0.105252
    90  H    0.135625
    91  H    0.096890
    92  H    0.088286
    93  H    0.084246
    94  H    0.122818
    95  H    0.108020
    96  H    0.118691
    97  H    0.099657
    98  H    0.087573
 Sum of Mulliken charges =  -0.00000

 Dipole moment (field-independent basis, Debye):
    X=             -0.5123    Y=             -0.8848    Z=              0.5144  Tot=              1.1445
 Quadrupole moment (field-independent basis, Debye-Ang):
   XX=           -283.8652   YY=           -243.2890   ZZ=           -261.2920
   XY=              2.6708   XZ=             38.2860   YZ=              3.8717

 Normal termination of Gaussian 16 at Sat Jul 13 23:23:32 2019.
