 Gaussian 16, Revision A.03,
 Gaussian 16:  ES64L-G16RevA.03 25-Dec-2016

 -------------------------------------
 # td=(NStates=1) CAM-B3LYP/6-31G(d,p)
 -------------------------------------

 --
 TD
 --
 Symbolic Z-matrix:
 Charge =  0 Multiplicity = 1

                         Standard orientation:
 ---------------------------------------------------------------------
 Center     Atomic      Atomic             Coordinates (Angstroms)
 Number     Number       Type             X           Y           Z
 ---------------------------------------------------------------------
      1          8           0      -14.018890   -2.168675    0.281922
      2          8           0       14.811812    0.696540    0.355616
      3          6           0      -11.757950   -0.195468    1.308953
      4          6           0      -10.973919    0.233107    0.057912
      5          6           0      -11.934650   -1.797643    1.294914
      6          6           0      -12.689405   -2.271421   -0.037088
      7          6           0      -11.504946   -0.357532   -1.170795
      8          6           0       11.112979    1.006390    1.076899
      9          6           0      -11.154061    0.217668    2.655748
     10          6           0      -13.216964    0.439453    1.235636
     11          6           0       12.523001    1.341076    0.850417
     12          6           0      -12.296317   -1.409289   -1.189254
     13          6           0       13.543452    0.149266    0.482748
     14          6           0       10.608841   -0.038526   -0.071527
     15          6           0       -9.455587   -0.080748    0.215948
     16          6           0       13.130359   -0.331045   -0.804624
     17          6           0       11.577564   -0.726818   -0.848832
     18          6           0       10.314573    2.291671    0.914721
     19          6           0       10.845947    0.246842    2.415196
     20          6           0      -11.131146    0.298252   -2.509435
     21          6           0       -8.559467    0.862707    0.100483
     22          6           0        9.284630   -0.454365   -0.060015
     23          6           0       11.307456   -1.634238   -2.056430
     24          6           0       -7.102736    0.569740   -0.036957
     25          6           0        8.700328   -1.654711   -0.164042
     26          6           0       -6.554750   -0.774888    0.057528
     27          6           0        7.346477   -2.104275   -0.280400
     28          6           0       -6.266071    1.693705   -0.250704
     29          6           0        7.014680   -3.446936    0.093650
     30          6           0        6.381325   -1.185829   -0.401904
     31          6           0       -4.794978    1.758901   -0.362449
     32          6           0        4.971922   -1.398315   -0.160821
     33          6           0       -4.042376    2.817029   -0.599400
     34          6           0       -2.563179    2.864663   -0.631002
     35          6           0        3.994173   -0.517322   -0.404637
     36          6           0        2.560573   -0.669636   -0.264444
     37          6           0       -1.948968    4.188803   -1.010634
     38          6           0       -1.826010    1.651676   -0.249173
     39          6           0        1.733533    0.450214   -0.355693
     40          6           0        2.062173   -2.137556    0.092115
     41          6           0       -0.478313    1.653220   -0.370704
     42          6           0        0.343943    0.469450   -0.320512
     43          1           0      -10.904265    1.271574   -0.218899
     44          1           0      -12.261899   -2.105768    2.283436
     45          1           0      -10.931209   -2.228894    1.412341
     46          1           0      -12.397269   -3.335317   -0.228500
     47          1           0      -10.139357   -0.091503    2.740313
     48          1           0      -11.099381    1.383410    2.420944
     49          1           0      -11.674594   -0.026947    3.606997
     50          1           0      -13.668847   -0.148599    0.339239
     51          1           0      -13.789020    0.159066    2.199885
     52          1           0      -13.048250    1.613916    1.189329
     53          1           0       12.688795    2.173084    0.064516
     54          1           0       12.923373    1.836200    1.618780
     55          1           0      -12.749703   -2.043706   -2.195400
     56          1           0       13.372812   -0.499385    1.167415
     57          1           0       -9.156276   -1.161529    0.144814
     58          1           0       13.818472   -1.128648   -1.322918
     59          1           0       13.146269    0.412032   -1.572093
     60          1           0        9.291959    2.217832    1.223275
     61          1           0       10.526318    2.563902   -0.048737
     62          1           0       10.574099    2.933290    1.721911
     63          1           0       11.403999   -0.709094    2.453182
     64          1           0        9.809033   -0.051562    2.777903
     65          1           0       11.134887    0.847810    3.265454
     66          1           0       -9.979693    0.289296   -2.660723
     67          1           0      -11.276144    1.352519   -2.401849
     68          1           0      -11.495167   -0.184677   -3.257602
     69          1           0      -14.556369   -2.162837   -0.552203
     70          1           0        8.612802    0.476060    0.222350
     71          1           0       -8.888931    1.968123   -0.189332
     72          1           0       11.782392   -2.593422   -1.628256
     73          1           0       10.190268   -1.740837   -2.137475
     74          1           0       12.005589   -1.250138   -2.937182
     75          1           0       14.895821    1.221532    1.216362
     76          1           0        9.442127   -2.487534   -0.115471
     77          1           0       -5.534992   -0.737482   -0.075564
     78          1           0       -6.884798   -1.208446    1.200825
     79          1           0       -6.946293   -1.496451   -0.608593
     80          1           0       -6.613422    2.764271   -0.054791
     81          1           0        6.523772   -3.478766    0.950020
     82          1           0        6.522717   -4.226086   -0.648226
     83          1           0        8.010419   -3.893179    0.258594
     84          1           0        6.845113   -0.167062   -0.726658
     85          1           0       -4.490900    0.898347   -0.067183
     86          1           0        4.682529   -2.387503    0.144614
     87          1           0       -4.539403    3.729768   -1.064193
     88          1           0        3.999836    0.580927   -0.691707
     89          1           0       -1.191818    4.274189   -1.804626
     90          1           0       -1.544944    4.773220   -0.179699
     91          1           0       -2.892260    4.804907   -1.368632
     92          1           0       -2.337533    0.788364    0.012239
     93          1           0        2.182395    1.240836   -0.601368
     94          1           0        2.518246   -2.553926    1.048409
     95          1           0        0.914896   -2.390417    0.241562
     96          1           0        2.291587   -2.629726   -0.743759
     97          1           0        0.189645    2.577599   -0.458727
     98          1           0       -0.287639   -0.359195    0.087001
 ---------------------------------------------------------------------

 SCF Done:  E(RCAM-B3LYP) =  -1706.92784677     A.U. after   15 cycles

 Excitation energies and oscillator strengths:

 Excited State   1:      Singlet-A      2.1555 eV  575.20 nm  f=2.8888  <S**2>=0.000
     155 ->158         0.14518
     156 ->157         0.69201
 This state for optimization and/or second-order correction.
 Total Energy, E(TD-HF/TD-DFT) =  -1706.84863323
 Copying the excited state density for this state as the 1-particle RhoCI density.

 The electronic state is 1-A.
 Alpha  occ. eigenvalues --  -19.22126 -19.21802 -10.31099 -10.29037 -10.28835
 Alpha  occ. eigenvalues --  -10.28445 -10.27893 -10.27841 -10.27733 -10.27187
 Alpha  occ. eigenvalues --  -10.27091 -10.26977 -10.26885 -10.26861 -10.26833
 Alpha  occ. eigenvalues --  -10.26749 -10.26728 -10.26642 -10.26557 -10.26487
 Alpha  occ. eigenvalues --  -10.26398 -10.26363 -10.26302 -10.26274 -10.26054
 Alpha  occ. eigenvalues --  -10.25849 -10.25770 -10.25708 -10.25463 -10.25416
 Alpha  occ. eigenvalues --  -10.25334 -10.25289 -10.25113 -10.25081 -10.24924
 Alpha  occ. eigenvalues --  -10.24748 -10.24680 -10.24456 -10.24441 -10.24388
 Alpha  occ. eigenvalues --  -10.24242 -10.23466  -1.11249  -1.10666  -0.93817
 Alpha  occ. eigenvalues --   -0.93218  -0.91978  -0.91654  -0.90784  -0.89820
 Alpha  occ. eigenvalues --   -0.87307  -0.86860  -0.86160  -0.85713  -0.84804
 Alpha  occ. eigenvalues --   -0.83407  -0.81864  -0.80602  -0.80290  -0.78878
 Alpha  occ. eigenvalues --   -0.77282  -0.77124  -0.76338  -0.76176  -0.76037
 Alpha  occ. eigenvalues --   -0.75371  -0.74641  -0.73350  -0.72912  -0.70194
 Alpha  occ. eigenvalues --   -0.68948  -0.68312  -0.67160  -0.65373  -0.63555
 Alpha  occ. eigenvalues --   -0.63137  -0.62604  -0.62347  -0.61132  -0.59922
 Alpha  occ. eigenvalues --   -0.59766  -0.59113  -0.59004  -0.58366  -0.56673
 Alpha  occ. eigenvalues --   -0.55853  -0.55164  -0.54944  -0.54514  -0.53777
 Alpha  occ. eigenvalues --   -0.53387  -0.53154  -0.52508  -0.51833  -0.51781
 Alpha  occ. eigenvalues --   -0.51021  -0.50162  -0.49828  -0.49606  -0.49341
 Alpha  occ. eigenvalues --   -0.49124  -0.48922  -0.48606  -0.48281  -0.48070
 Alpha  occ. eigenvalues --   -0.47855  -0.47535  -0.47107  -0.46851  -0.46576
 Alpha  occ. eigenvalues --   -0.46320  -0.45980  -0.45854  -0.45098  -0.44645
 Alpha  occ. eigenvalues --   -0.44580  -0.44372  -0.44266  -0.43611  -0.43319
 Alpha  occ. eigenvalues --   -0.42946  -0.42438  -0.42385  -0.41732  -0.41503
 Alpha  occ. eigenvalues --   -0.41467  -0.41290  -0.41113  -0.41073  -0.40853
 Alpha  occ. eigenvalues --   -0.40648  -0.40185  -0.39884  -0.39418  -0.39355
 Alpha  occ. eigenvalues --   -0.39111  -0.38696  -0.38436  -0.38147  -0.37894
 Alpha  occ. eigenvalues --   -0.37558  -0.37212  -0.36718  -0.35830  -0.35098
 Alpha  occ. eigenvalues --   -0.34624  -0.34353  -0.34172  -0.32308  -0.31822
 Alpha  occ. eigenvalues --   -0.31644  -0.29728  -0.28946  -0.26620  -0.23531
 Alpha  occ. eigenvalues --   -0.19368
 Alpha virt. eigenvalues --   -0.05876  -0.00775   0.02339   0.05557   0.06600
 Alpha virt. eigenvalues --    0.09126   0.10602   0.11499   0.11750   0.12079
 Alpha virt. eigenvalues --    0.12660   0.13368   0.13625   0.13766   0.14500

 Mulliken charges:
               1
     1  O   -0.511741
     2  O   -0.553895
     3  C   -0.000233
     4  C   -0.119723
     5  C   -0.183098
     6  C    0.136200
     7  C    0.133301
     8  C    0.007405
     9  C   -0.296868
    10  C   -0.264325
    11  C   -0.221175
    12  C   -0.165693
    13  C    0.206046
    14  C    0.034395
    15  C   -0.087702
    16  C   -0.211340
    17  C   -0.001343
    18  C   -0.299268
    19  C   -0.319078
    20  C   -0.337705
    21  C   -0.077269
    22  C   -0.098725
    23  C   -0.338543
    24  C    0.097598
    25  C   -0.134465
    26  C   -0.359539
    27  C    0.126513
    28  C   -0.158534
    29  C   -0.383839
    30  C   -0.108814
    31  C   -0.027704
    32  C   -0.128254
    33  C   -0.131874
    34  C    0.081168
    35  C   -0.076147
    36  C    0.079494
    37  C   -0.379503
    38  C   -0.101060
    39  C   -0.099324
    40  C   -0.370724
    41  C   -0.075259
    42  C   -0.097660
    43  H    0.085163
    44  H    0.102705
    45  H    0.078892
    46  H    0.079043
    47  H    0.103750
    48  H    0.075247
    49  H    0.104919
    50  H    0.106826
    51  H    0.088649
    52  H    0.066215
    53  H    0.092322
    54  H    0.074695
    55  H    0.052333
    56  H    0.088847
    57  H    0.093119
    58  H    0.087523
    59  H    0.128310
    60  H    0.104920
    61  H    0.120120
    62  H    0.097311
    63  H    0.105642
    64  H    0.109629
    65  H    0.092942
    66  H    0.105474
    67  H    0.116461
    68  H    0.118150
    69  H    0.302622
    70  H    0.066277
    71  H    0.083953
    72  H    0.112922
    73  H    0.124451
    74  H    0.104687
    75  H    0.306733
    76  H    0.071256
    77  H    0.117226
    78  H    0.094260
    79  H    0.131255
    80  H    0.081613
    81  H    0.140017
    82  H    0.103804
    83  H    0.100174
    84  H    0.077506
    85  H    0.061686
    86  H    0.093559
    87  H    0.080025
    88  H    0.074127
    89  H    0.129080
    90  H    0.134736
    91  H    0.095714
    92  H    0.089117
    93  H    0.058697
    94  H    0.114039
    95  H    0.090639
    96  H    0.141282
    97  H    0.081686
    98  H    0.075949
 Sum of Mulliken charges =  -0.00000

 Dipole moment (field-independent basis, Debye):
    X=              0.0820    Y=              0.0105    Z=              0.0763  Tot=              0.1125
 Quadrupole moment (field-independent basis, Debye-Ang):
   XX=           -286.6334   YY=           -244.6083   ZZ=           -259.5158
   XY=             11.5043   XZ=             43.7497   YZ=              0.8297

 Normal termination of Gaussian 16 at Sun Jul 14 20:40:07 2019.
