 Gaussian 16, Revision A.03,
 Gaussian 16:  ES64L-G16RevA.03 25-Dec-2016

 -------------------------------------
 # td=(NStates=1) CAM-B3LYP/6-31G(d,p)
 -------------------------------------

 --
 TD
 --
 Symbolic Z-matrix:
 Charge =  0 Multiplicity = 1

                         Standard orientation:
 ---------------------------------------------------------------------
 Center     Atomic      Atomic             Coordinates (Angstroms)
 Number     Number       Type             X           Y           Z
 ---------------------------------------------------------------------
      1          8           0      -14.168038   -1.878968    0.598184
      2          8           0       14.923800    0.758041    0.365443
      3          6           0      -11.735119   -0.036986    1.373524
      4          6           0      -11.009032    0.345456    0.061266
      5          6           0      -11.948071   -1.532814    1.368344
      6          6           0      -12.779176   -2.044222    0.197493
      7          6           0      -11.711751   -0.236761   -1.121211
      8          6           0       11.137666    1.142183    0.896379
      9          6           0      -10.961882    0.371175    2.602047
     10          6           0      -13.028309    0.828486    1.376929
     11          6           0       12.610177    1.498258    0.760658
     12          6           0      -12.406821   -1.425009   -1.116861
     13          6           0       13.513116    0.310496    0.492598
     14          6           0       10.710327   -0.029296   -0.055627
     15          6           0       -9.539385    0.066667   -0.111669
     16          6           0       13.117648   -0.268582   -0.704788
     17          6           0       11.598825   -0.629014   -0.861532
     18          6           0       10.229961    2.428783    0.584126
     19          6           0       10.791349    0.602646    2.406050
     20          6           0      -11.451544    0.312646   -2.551911
     21          6           0       -8.524159    0.851541   -0.080333
     22          6           0        9.227957   -0.401150   -0.045704
     23          6           0       11.297852   -1.574424   -1.948581
     24          6           0       -7.132119    0.347576   -0.346598
     25          6           0        8.783329   -1.672555   -0.157399
     26          6           0       -6.733376   -1.040559   -0.117271
     27          6           0        7.372240   -2.096033    0.017907
     28          6           0       -6.144265    1.431077   -0.481294
     29          6           0        7.159755   -3.597843    0.315952
     30          6           0        6.403356   -1.268123   -0.296681
     31          6           0       -4.769808    1.363479   -0.353156
     32          6           0        4.958922   -1.443165   -0.044638
     33          6           0       -3.958635    2.497375   -0.700584
     34          6           0       -2.622815    2.541286   -0.642225
     35          6           0        4.020405   -0.417877   -0.302451
     36          6           0        2.669552   -0.648382   -0.146776
     37          6           0       -2.013765    3.951921   -0.609631
     38          6           0       -1.745426    1.415419   -0.621706
     39          6           0        1.728853    0.323870   -0.387414
     40          6           0        2.262476   -2.161541    0.153863
     41          6           0       -0.427630    1.405115   -0.524236
     42          6           0        0.376251    0.263521   -0.265880
     43          1           0      -11.091734    1.432331    0.060143
     44          1           0      -12.240579   -1.822213    2.465475
     45          1           0      -10.952734   -2.122689    1.348643
     46          1           0      -12.521853   -3.156210    0.127204
     47          1           0      -10.033398   -0.120199    2.660971
     48          1           0      -10.590586    1.411584    2.791015
     49          1           0      -11.469437    0.135799    3.538304
     50          1           0      -13.688362    0.549108    0.560680
     51          1           0      -13.644940    0.686458    2.337782
     52          1           0      -12.733521    1.894526    1.061172
     53          1           0       12.834180    2.130187   -0.144289
     54          1           0       12.857103    1.948976    1.769435
     55          1           0      -12.854793   -1.855147   -2.103431
     56          1           0       13.412136   -0.493970    1.257312
     57          1           0       -9.521384   -0.935692    0.046959
     58          1           0       13.606402   -1.141856   -0.959397
     59          1           0       13.507281    0.419902   -1.642147
     60          1           0        9.156772    2.225586    1.047939
     61          1           0       10.136509    2.577524   -0.589725
     62          1           0       10.766222    3.425234    1.065634
     63          1           0       11.459399   -0.264091    2.528990
     64          1           0        9.722327    0.251420    2.443244
     65          1           0       10.903215    1.378698    3.417061
     66          1           0      -10.361170    0.181857   -2.757874
     67          1           0      -11.868274    1.201667   -2.642667
     68          1           0      -12.138336   -0.397641   -3.342448
     69          1           0      -14.757179   -2.208593   -0.218883
     70          1           0        8.609895    0.319230    0.115718
     71          1           0       -8.708335    1.792063   -0.416296
     72          1           0       11.115877   -2.663960   -1.512820
     73          1           0       10.365507   -1.201033   -2.606501
     74          1           0       12.327532   -1.604437   -2.588525
     75          1           0       15.268264    1.177488    1.246861
     76          1           0        9.285786   -2.550302   -0.226752
     77          1           0       -5.635569   -1.090395   -0.372867
     78          1           0       -6.961948   -1.356886    0.995941
     79          1           0       -7.181893   -1.935866   -0.890427
     80          1           0       -6.768802    2.311743   -0.448463
     81          1           0        7.317089   -3.786480    1.414045
     82          1           0        6.084403   -3.884771    0.068330
     83          1           0        7.975543   -4.195456   -0.227151
     84          1           0        6.754178   -0.315141   -0.807690
     85          1           0       -4.388974    0.346065   -0.351999
     86          1           0        4.632246   -2.412614    0.451662
     87          1           0       -4.527579    3.392185   -0.929756
     88          1           0        4.446387    0.473862   -0.829053
     89          1           0       -1.247278    3.910854   -1.447412
     90          1           0       -1.615803    4.110754    0.348923
     91          1           0       -2.754567    4.707007   -1.061338
     92          1           0       -2.435249    0.489764   -0.543894
     93          1           0        2.042887    1.212112   -0.878726
     94          1           0        2.230212   -2.450248    1.203840
     95          1           0        1.017898   -2.422582   -0.427963
     96          1           0        3.045239   -2.960020   -0.533278
     97          1           0        0.004274    2.310195   -0.554250
     98          1           0       -0.198165   -0.736096   -0.092143
 ---------------------------------------------------------------------

 SCF Done:  E(RCAM-B3LYP) =  -1706.91081751     A.U. after   16 cycles

 Excitation energies and oscillator strengths:

 Excited State   1:      Singlet-A      1.7790 eV  696.95 nm  f=2.7905  <S**2>=0.000
     155 ->158        -0.10973
     156 ->157         0.71275
     156 <-157        -0.15441
 This state for optimization and/or second-order correction.
 Total Energy, E(TD-HF/TD-DFT) =  -1706.84544194
 Copying the excited state density for this state as the 1-particle RhoCI density.

 The electronic state is 1-A.
 Alpha  occ. eigenvalues --  -19.21667 -19.21351 -10.30973 -10.30181 -10.29880
 Alpha  occ. eigenvalues --  -10.28714 -10.28357 -10.28177 -10.28095 -10.27942
 Alpha  occ. eigenvalues --  -10.27527 -10.27414 -10.27317 -10.27223 -10.26943
 Alpha  occ. eigenvalues --  -10.26929 -10.26843 -10.26841 -10.26718 -10.26573
 Alpha  occ. eigenvalues --  -10.26483 -10.26432 -10.26404 -10.26350 -10.26167
 Alpha  occ. eigenvalues --  -10.26112 -10.26107 -10.26043 -10.26023 -10.26019
 Alpha  occ. eigenvalues --  -10.25998 -10.25648 -10.25563 -10.25530 -10.25484
 Alpha  occ. eigenvalues --  -10.25476 -10.25293 -10.25139 -10.25047 -10.24643
 Alpha  occ. eigenvalues --  -10.24126 -10.23391  -1.06795  -1.06320  -0.94174
 Alpha  occ. eigenvalues --   -0.93256  -0.92669  -0.91573  -0.90701  -0.90141
 Alpha  occ. eigenvalues --   -0.87739  -0.86482  -0.85851  -0.85839  -0.85248
 Alpha  occ. eigenvalues --   -0.83044  -0.81867  -0.80675  -0.80148  -0.78020
 Alpha  occ. eigenvalues --   -0.76932  -0.76030  -0.75207  -0.75044  -0.74734
 Alpha  occ. eigenvalues --   -0.74533  -0.74106  -0.73828  -0.72567  -0.70558
 Alpha  occ. eigenvalues --   -0.69233  -0.67289  -0.66736  -0.65155  -0.63967
 Alpha  occ. eigenvalues --   -0.63080  -0.62586  -0.62027  -0.60557  -0.59725
 Alpha  occ. eigenvalues --   -0.58855  -0.58473  -0.57655  -0.57174  -0.55757
 Alpha  occ. eigenvalues --   -0.55493  -0.54862  -0.54671  -0.54157  -0.53871
 Alpha  occ. eigenvalues --   -0.53300  -0.52775  -0.52314  -0.51556  -0.50785
 Alpha  occ. eigenvalues --   -0.50675  -0.50104  -0.49855  -0.49145  -0.48809
 Alpha  occ. eigenvalues --   -0.48268  -0.47966  -0.47930  -0.47870  -0.47622
 Alpha  occ. eigenvalues --   -0.47476  -0.47458  -0.46458  -0.46293  -0.46258
 Alpha  occ. eigenvalues --   -0.45665  -0.45370  -0.44810  -0.44542  -0.44087
 Alpha  occ. eigenvalues --   -0.43894  -0.43629  -0.43370  -0.43163  -0.43078
 Alpha  occ. eigenvalues --   -0.42750  -0.42560  -0.42173  -0.41987  -0.41966
 Alpha  occ. eigenvalues --   -0.41627  -0.40906  -0.40732  -0.40697  -0.40273
 Alpha  occ. eigenvalues --   -0.40137  -0.40013  -0.39700  -0.39374  -0.39136
 Alpha  occ. eigenvalues --   -0.38526  -0.38473  -0.38062  -0.37712  -0.37464
 Alpha  occ. eigenvalues --   -0.37276  -0.37137  -0.36785  -0.36386  -0.35800
 Alpha  occ. eigenvalues --   -0.35684  -0.35358  -0.34143  -0.32622  -0.32235
 Alpha  occ. eigenvalues --   -0.31692  -0.29473  -0.29209  -0.27016  -0.24261
 Alpha  occ. eigenvalues --   -0.18272
 Alpha virt. eigenvalues --   -0.07544  -0.00645   0.02840   0.05104   0.06675
 Alpha virt. eigenvalues --    0.08727   0.10069   0.10541   0.11387   0.11391
 Alpha virt. eigenvalues --    0.11517   0.12112   0.12453   0.12662   0.12827

 Mulliken charges:
               1
     1  O   -0.545994
     2  O   -0.583262
     3  C    0.038954
     4  C   -0.151774
     5  C   -0.180453
     6  C    0.142100
     7  C    0.091690
     8  C   -0.004803
     9  C   -0.315487
    10  C   -0.286494
    11  C   -0.183234
    12  C   -0.132104
    13  C    0.164803
    14  C    0.059066
    15  C   -0.035115
    16  C   -0.206754
    17  C    0.056540
    18  C   -0.292001
    19  C   -0.301956
    20  C   -0.332628
    21  C   -0.105935
    22  C   -0.094303
    23  C   -0.355154
    24  C    0.079732
    25  C   -0.060241
    26  C   -0.357970
    27  C    0.072890
    28  C   -0.104995
    29  C   -0.369457
    30  C   -0.122945
    31  C   -0.084073
    32  C   -0.113150
    33  C   -0.128054
    34  C    0.082531
    35  C   -0.105934
    36  C    0.108068
    37  C   -0.373248
    38  C   -0.084474
    39  C   -0.116582
    40  C   -0.331329
    41  C   -0.080767
    42  C   -0.079695
    43  H    0.078313
    44  H    0.096987
    45  H    0.086019
    46  H    0.069448
    47  H    0.099700
    48  H    0.094746
    49  H    0.100624
    50  H    0.119745
    51  H    0.096475
    52  H    0.081491
    53  H    0.107363
    54  H    0.083580
    55  H    0.079476
    56  H    0.082022
    57  H    0.079192
    58  H    0.113162
    59  H    0.090051
    60  H    0.095015
    61  H    0.098217
    62  H    0.088288
    63  H    0.107041
    64  H    0.111166
    65  H    0.065192
    66  H    0.126044
    67  H    0.129280
    68  H    0.068360
    69  H    0.299770
    70  H    0.073493
    71  H    0.085337
    72  H    0.109198
    73  H    0.119419
    74  H    0.090534
    75  H    0.307740
    76  H    0.062998
    77  H    0.106471
    78  H    0.122148
    79  H    0.088660
    80  H    0.079119
    81  H    0.121497
    82  H    0.112371
    83  H    0.111379
    84  H    0.079315
    85  H    0.090508
    86  H    0.091433
    87  H    0.091126
    88  H    0.089646
    89  H    0.113470
    90  H    0.141695
    91  H    0.102994
    92  H    0.061310
    93  H    0.085990
    94  H    0.137501
    95  H    0.053499
    96  H    0.088341
    97  H    0.078687
    98  H    0.081345
 Sum of Mulliken charges =  -0.00000

 Dipole moment (field-independent basis, Debye):
    X=             -0.2609    Y=             -0.5058    Z=             -0.2079  Tot=              0.6059
 Quadrupole moment (field-independent basis, Debye-Ang):
   XX=           -285.6626   YY=           -246.3510   ZZ=           -261.9253
   XY=              0.5554   XZ=             36.7851   YZ=              0.4544

 Normal termination of Gaussian 16 at Tue Jul 16 04:07:28 2019.
