 Gaussian 16, Revision A.03,
 Gaussian 16:  ES64L-G16RevA.03 25-Dec-2016

 -------------------------------------
 # td=(NStates=1) CAM-B3LYP/6-31G(d,p)
 -------------------------------------

 --
 TD
 --
 Symbolic Z-matrix:
 Charge =  0 Multiplicity = 1

                         Standard orientation:
 ---------------------------------------------------------------------
 Center     Atomic      Atomic             Coordinates (Angstroms)
 Number     Number       Type             X           Y           Z
 ---------------------------------------------------------------------
      1          8           0      -14.085097   -2.245448    0.360502
      2          8           0       14.760202    0.929919    0.361426
      3          6           0      -11.633787   -0.113935    1.415309
      4          6           0      -10.863228    0.310284    0.229250
      5          6           0      -11.844677   -1.642789    1.417093
      6          6           0      -12.646474   -2.205590    0.117113
      7          6           0      -11.543187   -0.243906   -1.109630
      8          6           0       11.041420    0.891419    1.218810
      9          6           0      -10.816907    0.187951    2.605540
     10          6           0      -13.040932    0.523546    1.424351
     11          6           0       12.471103    1.392559    1.124855
     12          6           0      -12.206821   -1.413894   -1.114566
     13          6           0       13.446519    0.341054    0.480482
     14          6           0       10.568306   -0.083217    0.074566
     15          6           0       -9.407846   -0.050553    0.179950
     16          6           0       12.966538   -0.123266   -0.832394
     17          6           0       11.540300   -0.465767   -0.857818
     18          6           0       10.080487    2.216298    1.125275
     19          6           0       10.878504    0.268120    2.558520
     20          6           0      -11.333393    0.561015   -2.366560
     21          6           0       -8.531020    0.796584    0.000318
     22          6           0        9.199054   -0.550080    0.111579
     23          6           0       11.164214   -1.309912   -2.087225
     24          6           0       -7.129816    0.628936   -0.024427
     25          6           0        8.815485   -1.811651   -0.187801
     26          6           0       -6.551372   -0.734361    0.017002
     27          6           0        7.313015   -2.101020   -0.222344
     28          6           0       -6.231519    1.722982   -0.373757
     29          6           0        7.097822   -3.635922    0.082283
     30          6           0        6.370212   -1.269254   -0.443159
     31          6           0       -4.865224    1.570733   -0.374428
     32          6           0        4.916206   -1.580544   -0.318455
     33          6           0       -4.009663    2.623461   -0.671802
     34          6           0       -2.568579    2.700206   -0.743456
     35          6           0        3.997938   -0.598632   -0.530214
     36          6           0        2.602153   -0.798878   -0.461702
     37          6           0       -1.924650    4.045247   -0.950652
     38          6           0       -1.762731    1.513786   -0.648587
     39          6           0        1.794952    0.358424   -0.564585
     40          6           0        1.995932   -2.111888   -0.193637
     41          6           0       -0.349556    1.636419   -0.571513
     42          6           0        0.421853    0.399742   -0.529223
     43          1           0      -11.014471    1.335998    0.167614
     44          1           0      -12.640671   -1.769052    2.365064
     45          1           0      -10.949559   -2.207452    1.492980
     46          1           0      -12.254424   -3.212415    0.016733
     47          1           0       -9.791271   -0.199337    2.741555
     48          1           0      -10.576565    1.346692    2.596722
     49          1           0      -11.563142    0.082312    3.461923
     50          1           0      -13.633049    0.327031    0.651744
     51          1           0      -13.669966    0.048836    2.171168
     52          1           0      -12.901207    1.639505    1.571998
     53          1           0       12.537013    2.205712    0.480534
     54          1           0       12.788311    1.617601    2.199590
     55          1           0      -12.601511   -1.866524   -2.016527
     56          1           0       13.625560   -0.834576    1.110449
     57          1           0       -9.374228   -1.203210    0.425642
     58          1           0       13.529744   -1.079263   -1.121973
     59          1           0       13.364478    0.768341   -1.529032
     60          1           0        9.174684    1.821551    1.490737
     61          1           0       10.089050    2.611377    0.090005
     62          1           0       10.426510    3.008341    1.721962
     63          1           0       11.470510   -0.582046    2.906605
     64          1           0        9.822916   -0.104822    2.502829
     65          1           0       10.975288    1.048442    3.437261
     66          1           0      -10.336255    0.767922   -2.551007
     67          1           0      -11.945861    1.593608   -2.323533
     68          1           0      -11.900879   -0.019782   -3.212925
     69          1           0      -14.441071   -2.195882   -0.716248
     70          1           0        8.400055    0.264508    0.181828
     71          1           0       -8.848026    1.965733   -0.245720
     72          1           0       11.580861   -2.358354   -2.255706
     73          1           0       10.202742   -1.381478   -2.286972
     74          1           0       11.485582   -1.011864   -3.024495
     75          1           0       14.953315    1.065493    1.355967
     76          1           0        9.825819   -2.421341   -0.281646
     77          1           0       -5.578344   -1.182106   -0.108681
     78          1           0       -6.764558   -1.106597    1.058822
     79          1           0       -7.180904   -1.271435   -0.764009
     80          1           0       -6.581873    2.697160   -0.550367
     81          1           0        6.793007   -3.786490    0.961651
     82          1           0        6.388701   -3.856283   -0.608840
     83          1           0        8.096945   -4.185262   -0.055035
     84          1           0        6.485400   -0.226429   -0.575189
     85          1           0       -4.594287    0.469079   -0.234846
     86          1           0        4.695482   -2.604941    0.047756
     87          1           0       -4.414570    3.488388   -0.883006
     88          1           0        4.357287    0.396194   -0.935104
     89          1           0       -1.098277    4.176163   -1.547903
     90          1           0       -1.649921    4.423494    0.322615
     91          1           0       -2.655597    4.891313   -1.241785
     92          1           0       -2.158324    0.386930   -0.482900
     93          1           0        2.455541    1.186154   -0.706035
     94          1           0        2.566412   -2.587132    0.608117
     95          1           0        0.907715   -2.001469    0.414949
     96          1           0        2.075957   -2.775902   -1.014299
     97          1           0        0.201738    2.517878   -0.629051
     98          1           0       -0.082444   -0.658327   -0.453601
 ---------------------------------------------------------------------

 SCF Done:  E(RCAM-B3LYP) =  -1706.89828020     A.U. after   15 cycles

 Excitation energies and oscillator strengths:

 Excited State   1:      Singlet-A      2.0841 eV  594.90 nm  f=2.7810  <S**2>=0.000
     155 ->158         0.11561
     156 ->157         0.70284
     156 <-157        -0.11270
 This state for optimization and/or second-order correction.
 Total Energy, E(TD-HF/TD-DFT) =  -1706.82169085
 Copying the excited state density for this state as the 1-particle RhoCI density.

 The electronic state is 1-A.
 Alpha  occ. eigenvalues --  -19.22949 -19.21830 -10.32106 -10.30732 -10.28287
 Alpha  occ. eigenvalues --  -10.28154 -10.28035 -10.27660 -10.27540 -10.27474
 Alpha  occ. eigenvalues --  -10.27386 -10.27239 -10.27218 -10.27093 -10.26986
 Alpha  occ. eigenvalues --  -10.26846 -10.26769 -10.26768 -10.26750 -10.26637
 Alpha  occ. eigenvalues --  -10.26469 -10.26404 -10.26292 -10.26222 -10.26176
 Alpha  occ. eigenvalues --  -10.25997 -10.25939 -10.25895 -10.25857 -10.25755
 Alpha  occ. eigenvalues --  -10.25504 -10.25456 -10.25384 -10.25373 -10.25193
 Alpha  occ. eigenvalues --  -10.24930 -10.24927 -10.24893 -10.24347 -10.23727
 Alpha  occ. eigenvalues --  -10.23281 -10.22997  -1.08341  -1.06259  -0.94563
 Alpha  occ. eigenvalues --   -0.93219  -0.92211  -0.91837  -0.90558  -0.89972
 Alpha  occ. eigenvalues --   -0.87361  -0.87116  -0.86811  -0.85882  -0.84809
 Alpha  occ. eigenvalues --   -0.82866  -0.81680  -0.80289  -0.80199  -0.78441
 Alpha  occ. eigenvalues --   -0.77385  -0.76765  -0.76584  -0.76218  -0.76007
 Alpha  occ. eigenvalues --   -0.75869  -0.75154  -0.74298  -0.72833  -0.70577
 Alpha  occ. eigenvalues --   -0.68451  -0.67332  -0.66729  -0.63666  -0.63119
 Alpha  occ. eigenvalues --   -0.62989  -0.61952  -0.61762  -0.60755  -0.60372
 Alpha  occ. eigenvalues --   -0.59894  -0.57940  -0.57171  -0.56914  -0.56317
 Alpha  occ. eigenvalues --   -0.55629  -0.54717  -0.54400  -0.54031  -0.53878
 Alpha  occ. eigenvalues --   -0.53726  -0.53053  -0.52607  -0.52369  -0.51149
 Alpha  occ. eigenvalues --   -0.50904  -0.50612  -0.50198  -0.50000  -0.49581
 Alpha  occ. eigenvalues --   -0.49300  -0.49049  -0.48636  -0.48533  -0.47973
 Alpha  occ. eigenvalues --   -0.47496  -0.47210  -0.46670  -0.46633  -0.46474
 Alpha  occ. eigenvalues --   -0.46194  -0.45951  -0.45535  -0.44922  -0.44345
 Alpha  occ. eigenvalues --   -0.44205  -0.43942  -0.43763  -0.43640  -0.43469
 Alpha  occ. eigenvalues --   -0.43303  -0.42882  -0.42788  -0.42696  -0.42362
 Alpha  occ. eigenvalues --   -0.42029  -0.41441  -0.41306  -0.40865  -0.40685
 Alpha  occ. eigenvalues --   -0.40190  -0.39978  -0.39846  -0.39657  -0.39386
 Alpha  occ. eigenvalues --   -0.39160  -0.38722  -0.38521  -0.38104  -0.37895
 Alpha  occ. eigenvalues --   -0.37662  -0.36894  -0.36678  -0.36238  -0.35941
 Alpha  occ. eigenvalues --   -0.35637  -0.34104  -0.33542  -0.32083  -0.31931
 Alpha  occ. eigenvalues --   -0.30940  -0.30025  -0.29342  -0.26510  -0.24429
 Alpha  occ. eigenvalues --   -0.18861
 Alpha virt. eigenvalues --   -0.06044  -0.00319   0.02231   0.05318   0.06609
 Alpha virt. eigenvalues --    0.08887   0.09857   0.10560   0.11126   0.11557
 Alpha virt. eigenvalues --    0.12188   0.12297   0.12995   0.13008   0.13615

 Mulliken charges:
               1
     1  O   -0.544379
     2  O   -0.553662
     3  C    0.017313
     4  C   -0.111898
     5  C   -0.187615
     6  C    0.153999
     7  C    0.113929
     8  C   -0.024053
     9  C   -0.294192
    10  C   -0.297217
    11  C   -0.180121
    12  C   -0.172497
    13  C    0.167775
    14  C    0.055351
    15  C   -0.078901
    16  C   -0.220662
    17  C    0.057777
    18  C   -0.316353
    19  C   -0.299913
    20  C   -0.353314
    21  C   -0.067036
    22  C   -0.103395
    23  C   -0.382638
    24  C    0.075251
    25  C   -0.130615
    26  C   -0.387052
    27  C    0.030430
    28  C   -0.111264
    29  C   -0.353886
    30  C   -0.087257
    31  C   -0.033712
    32  C   -0.108765
    33  C   -0.114810
    34  C    0.079446
    35  C   -0.122459
    36  C    0.115586
    37  C   -0.352437
    38  C   -0.111634
    39  C   -0.097505
    40  C   -0.382018
    41  C   -0.074603
    42  C   -0.110356
    43  H    0.082165
    44  H    0.084174
    45  H    0.093217
    46  H    0.086250
    47  H    0.115002
    48  H    0.070908
    49  H    0.093726
    50  H    0.125206
    51  H    0.104731
    52  H    0.082632
    53  H    0.110938
    54  H    0.081711
    55  H    0.069537
    56  H    0.013736
    57  H    0.094273
    58  H    0.115028
    59  H    0.109066
    60  H    0.109208
    61  H    0.106385
    62  H    0.107003
    63  H    0.112489
    64  H    0.098683
    65  H    0.080735
    66  H    0.133272
    67  H    0.099051
    68  H    0.098685
    69  H    0.297258
    70  H    0.092540
    71  H    0.077215
    72  H    0.093133
    73  H    0.129780
    74  H    0.113081
    75  H    0.312725
    76  H    0.116359
    77  H    0.129701
    78  H    0.112285
    79  H    0.118237
    80  H    0.074658
    81  H    0.136093
    82  H    0.125186
    83  H    0.102232
    84  H    0.078387
    85  H    0.074078
    86  H    0.087057
    87  H    0.061665
    88  H    0.089568
    89  H    0.136774
    90  H    0.072164
    91  H    0.109153
    92  H    0.088261
    93  H    0.069956
    94  H    0.120529
    95  H    0.093131
    96  H    0.136060
    97  H    0.094136
    98  H    0.080149
 Sum of Mulliken charges =  -0.00000

 Dipole moment (field-independent basis, Debye):
    X=             -0.1445    Y=              0.0298    Z=             -0.8136  Tot=              0.8268
 Quadrupole moment (field-independent basis, Debye-Ang):
   XX=           -304.7107   YY=           -246.7365   ZZ=           -261.5398
   XY=            -10.2791   XZ=             39.5031   YZ=              1.7193

 Normal termination of Gaussian 16 at Sun Jul 14 09:11:35 2019.
