 Gaussian 16, Revision A.03,
 Gaussian 16:  ES64L-G16RevA.03 25-Dec-2016

 -------------------------------------
 # td=(NStates=1) CAM-B3LYP/6-31G(d,p)
 -------------------------------------

 --
 TD
 --
 Symbolic Z-matrix:
 Charge =  0 Multiplicity = 1

                         Standard orientation:
 ---------------------------------------------------------------------
 Center     Atomic      Atomic             Coordinates (Angstroms)
 Number     Number       Type             X           Y           Z
 ---------------------------------------------------------------------
      1          8           0      -14.017561   -2.193993    0.486978
      2          8           0       14.742707    0.961301    0.284335
      3          6           0      -11.775415   -0.101798    1.424906
      4          6           0      -11.002368    0.373721    0.034605
      5          6           0      -11.825759   -1.691655    1.411505
      6          6           0      -12.655374   -2.079013    0.219968
      7          6           0      -11.636384   -0.225718   -1.185725
      8          6           0       11.078492    0.937496    1.182595
      9          6           0      -10.824434    0.360449    2.581358
     10          6           0      -13.049101    0.630310    1.544194
     11          6           0       12.540190    1.488085    0.923856
     12          6           0      -12.401039   -1.365383   -1.099909
     13          6           0       13.497364    0.396726    0.552597
     14          6           0       10.638224   -0.059529    0.024204
     15          6           0       -9.567004    0.001671    0.004857
     16          6           0       12.993908   -0.128989   -0.813255
     17          6           0       11.489385   -0.430029   -0.898450
     18          6           0       10.203125    2.171489    1.219724
     19          6           0       11.003845    0.130851    2.465150
     20          6           0      -11.480275    0.622737   -2.466720
     21          6           0       -8.566623    0.855617   -0.220367
     22          6           0        9.277270   -0.404647   -0.084374
     23          6           0       11.310712   -1.286927   -2.100013
     24          6           0       -7.088313    0.435689   -0.168955
     25          6           0        8.783872   -1.721519   -0.273049
     26          6           0       -6.671146   -0.972020    0.011825
     27          6           0        7.488933   -2.033212   -0.143300
     28          6           0       -6.268031    1.491387   -0.379413
     29          6           0        7.249247   -3.552295    0.099167
     30          6           0        6.426108   -1.204272   -0.316356
     31          6           0       -4.845919    1.525018   -0.406752
     32          6           0        4.978533   -1.519712   -0.243525
     33          6           0       -4.018832    2.655879   -0.648933
     34          6           0       -2.575453    2.619619   -0.584905
     35          6           0        3.947551   -0.657970   -0.424852
     36          6           0        2.577492   -0.800043   -0.299833
     37          6           0       -1.959626    3.879608   -0.926038
     38          6           0       -1.740898    1.520104   -0.426050
     39          6           0        1.741883    0.325256   -0.358096
     40          6           0        2.061292   -2.220135   -0.183511
     41          6           0       -0.421802    1.486125   -0.475369
     42          6           0        0.382382    0.359221   -0.326994
     43          1           0      -11.129466    1.581186   -0.189276
     44          1           0      -12.230086   -2.022856    2.413447
     45          1           0      -10.873519   -2.130171    1.343822
     46          1           0      -12.260991   -3.147918   -0.151632
     47          1           0       -9.913941   -0.173982    2.565927
     48          1           0      -10.731406    1.613508    2.612799
     49          1           0      -11.234491    0.195092    3.530751
     50          1           0      -13.799253    0.581895    0.609093
     51          1           0      -13.543106    0.204373    2.388281
     52          1           0      -12.958504    1.760197    1.567633
     53          1           0       12.795010    2.074705    0.052013
     54          1           0       12.735407    2.062541    1.884589
     55          1           0      -12.888254   -1.728236   -2.068130
     56          1           0       13.420352   -0.421509    1.087916
     57          1           0       -9.614252   -0.965894   -0.262369
     58          1           0       13.673648   -0.968429   -1.051932
     59          1           0       13.367469    0.512352   -1.545053
     60          1           0        9.366487    1.947328    1.687137
     61          1           0        9.966142    2.451415    0.188022
     62          1           0       10.581078    2.913297    1.797277
     63          1           0       11.633456   -0.815780    2.472622
     64          1           0        9.928557   -0.422102    2.552031
     65          1           0       11.047271    0.666853    3.516370
     66          1           0      -10.547701    0.764358   -2.821354
     67          1           0      -11.891968    1.739884   -2.190751
     68          1           0      -12.137407    0.033018   -3.231574
     69          1           0      -14.566044   -2.726230   -0.226098
     70          1           0        8.404644    0.158070    0.368611
     71          1           0       -8.801058    1.932164   -0.261658
     72          1           0       11.653487   -2.235647   -1.892265
     73          1           0       10.181128   -1.319358   -2.323046
     74          1           0       11.512591   -0.900067   -2.943466
     75          1           0       14.913555    1.387519    1.168375
     76          1           0        9.504281   -2.397324   -0.488361
     77          1           0       -5.554653   -1.163390    0.299564
     78          1           0       -7.152842   -1.142849    0.904999
     79          1           0       -6.978543   -1.694788   -0.795955
     80          1           0       -6.642783    2.469488   -0.462618
     81          1           0        6.675943   -3.984025    0.930843
     82          1           0        6.528766   -3.835721   -0.820427
     83          1           0        8.301222   -4.210876    0.141858
     84          1           0        6.719591   -0.280941   -0.563613
     85          1           0       -4.112138    0.567866   -0.036243
     86          1           0        4.674259   -2.557844    0.025866
     87          1           0       -4.558933    3.668329   -0.730044
     88          1           0        4.307825    0.396382   -0.773611
     89          1           0       -1.255385    3.641741   -1.900739
     90          1           0       -1.196352    4.297218   -0.072279
     91          1           0       -2.490765    4.817899   -1.132212
     92          1           0       -2.223761    0.431430   -0.394438
     93          1           0        2.161659    1.371923   -0.620485
     94          1           0        2.531150   -3.006190    0.581385
     95          1           0        1.019551   -2.091407   -0.063113
     96          1           0        2.127318   -2.777522   -1.325258
     97          1           0        0.160455    2.450082   -0.654147
     98          1           0       -0.181947   -0.582693   -0.344189
 ---------------------------------------------------------------------

 SCF Done:  E(RCAM-B3LYP) =  -1706.91033391     A.U. after   15 cycles

 Excitation energies and oscillator strengths:

 Excited State   1:      Singlet-A      1.9667 eV  630.42 nm  f=2.9946  <S**2>=0.000
     155 ->158         0.14385
     156 ->157         0.69555
     156 <-157        -0.10294
 This state for optimization and/or second-order correction.
 Total Energy, E(TD-HF/TD-DFT) =  -1706.83805915
 Copying the excited state density for this state as the 1-particle RhoCI density.

 The electronic state is 1-A.
 Alpha  occ. eigenvalues --  -19.21783 -19.21766 -10.31991 -10.28230 -10.28159
 Alpha  occ. eigenvalues --  -10.28020 -10.27927 -10.27621 -10.27589 -10.27497
 Alpha  occ. eigenvalues --  -10.27441 -10.27381 -10.27349 -10.27075 -10.26844
 Alpha  occ. eigenvalues --  -10.26826 -10.26762 -10.26661 -10.26647 -10.26469
 Alpha  occ. eigenvalues --  -10.26432 -10.26356 -10.26324 -10.26192 -10.26182
 Alpha  occ. eigenvalues --  -10.26173 -10.26016 -10.25986 -10.25856 -10.25772
 Alpha  occ. eigenvalues --  -10.25682 -10.25672 -10.25572 -10.24744 -10.24712
 Alpha  occ. eigenvalues --  -10.24683 -10.24678 -10.24591 -10.24362 -10.23799
 Alpha  occ. eigenvalues --  -10.22984 -10.22326  -1.10650  -1.08980  -0.93956
 Alpha  occ. eigenvalues --   -0.93042  -0.92447  -0.91569  -0.90909  -0.90336
 Alpha  occ. eigenvalues --   -0.87596  -0.87172  -0.86496  -0.85113  -0.84704
 Alpha  occ. eigenvalues --   -0.83149  -0.82046  -0.80936  -0.80408  -0.78584
 Alpha  occ. eigenvalues --   -0.76925  -0.76833  -0.76348  -0.75807  -0.75304
 Alpha  occ. eigenvalues --   -0.75114  -0.74859  -0.74543  -0.72568  -0.69897
 Alpha  occ. eigenvalues --   -0.69018  -0.67266  -0.66245  -0.65930  -0.63987
 Alpha  occ. eigenvalues --   -0.63271  -0.61972  -0.61509  -0.60487  -0.60141
 Alpha  occ. eigenvalues --   -0.59791  -0.59235  -0.58883  -0.57676  -0.56098
 Alpha  occ. eigenvalues --   -0.55785  -0.55695  -0.54823  -0.53966  -0.53354
 Alpha  occ. eigenvalues --   -0.53238  -0.52796  -0.52376  -0.52216  -0.51683
 Alpha  occ. eigenvalues --   -0.51259  -0.50399  -0.50266  -0.49855  -0.49244
 Alpha  occ. eigenvalues --   -0.48681  -0.48392  -0.48327  -0.47881  -0.47667
 Alpha  occ. eigenvalues --   -0.47272  -0.46760  -0.46458  -0.46245  -0.46161
 Alpha  occ. eigenvalues --   -0.45976  -0.45884  -0.45517  -0.45194  -0.44680
 Alpha  occ. eigenvalues --   -0.44631  -0.44418  -0.43821  -0.43558  -0.43352
 Alpha  occ. eigenvalues --   -0.42838  -0.42453  -0.42219  -0.42126  -0.41978
 Alpha  occ. eigenvalues --   -0.41572  -0.41336  -0.41044  -0.41041  -0.40531
 Alpha  occ. eigenvalues --   -0.40136  -0.39738  -0.39648  -0.39318  -0.39196
 Alpha  occ. eigenvalues --   -0.38803  -0.38547  -0.38377  -0.38097  -0.37815
 Alpha  occ. eigenvalues --   -0.37306  -0.36783  -0.36703  -0.35707  -0.35474
 Alpha  occ. eigenvalues --   -0.35299  -0.33996  -0.33468  -0.32008  -0.31969
 Alpha  occ. eigenvalues --   -0.31460  -0.30007  -0.28355  -0.26826  -0.23546
 Alpha  occ. eigenvalues --   -0.18711
 Alpha virt. eigenvalues --   -0.06391  -0.01156   0.02308   0.05657   0.07371
 Alpha virt. eigenvalues --    0.09313   0.10377   0.10963   0.11075   0.12439
 Alpha virt. eigenvalues --    0.12667   0.12714   0.13238   0.13464   0.13843

 Mulliken charges:
               1
     1  O   -0.556004
     2  O   -0.550354
     3  C    0.028983
     4  C   -0.147658
     5  C   -0.192660
     6  C    0.177169
     7  C    0.092926
     8  C   -0.014840
     9  C   -0.290560
    10  C   -0.289361
    11  C   -0.185347
    12  C   -0.137421
    13  C    0.158965
    14  C    0.074499
    15  C   -0.056062
    16  C   -0.252375
    17  C    0.038550
    18  C   -0.293240
    19  C   -0.311071
    20  C   -0.332667
    21  C   -0.099647
    22  C   -0.151588
    23  C   -0.350263
    24  C    0.099735
    25  C   -0.098793
    26  C   -0.369404
    27  C    0.125449
    28  C   -0.116555
    29  C   -0.370357
    30  C   -0.119701
    31  C   -0.070892
    32  C   -0.095077
    33  C   -0.139374
    34  C    0.128805
    35  C   -0.097476
    36  C    0.107066
    37  C   -0.381126
    38  C   -0.117827
    39  C   -0.118978
    40  C   -0.354280
    41  C   -0.073102
    42  C   -0.085253
    43  H    0.049992
    44  H    0.113175
    45  H    0.114642
    46  H    0.043315
    47  H    0.106437
    48  H    0.066949
    49  H    0.100193
    50  H    0.097108
    51  H    0.108529
    52  H    0.094742
    53  H    0.113024
    54  H    0.066233
    55  H    0.072496
    56  H    0.084939
    57  H    0.090331
    58  H    0.099458
    59  H    0.123192
    60  H    0.106940
    61  H    0.109265
    62  H    0.104658
    63  H    0.105976
    64  H    0.092434
    65  H    0.089860
    66  H    0.135661
    67  H    0.091088
    68  H    0.093311
    69  H    0.317808
    70  H    0.089678
    71  H    0.090669
    72  H    0.130062
    73  H    0.093303
    74  H    0.123854
    75  H    0.306301
    76  H    0.087617
    77  H    0.108119
    78  H    0.137995
    79  H    0.126957
    80  H    0.081554
    81  H    0.124844
    82  H    0.105100
    83  H    0.081935
    84  H    0.070644
    85  H    0.067897
    86  H    0.071170
    87  H    0.086467
    88  H    0.063832
    89  H    0.104739
    90  H    0.096912
    91  H    0.116384
    92  H    0.070162
    93  H    0.082969
    94  H    0.113379
    95  H    0.114909
    96  H    0.090732
    97  H    0.079948
    98  H    0.077275
 Sum of Mulliken charges =  -0.00000

 Dipole moment (field-independent basis, Debye):
    X=             -1.7072    Y=             -1.0176    Z=              0.1567  Tot=              1.9936
 Quadrupole moment (field-independent basis, Debye-Ang):
   XX=           -261.4931   YY=           -242.3335   ZZ=           -260.5286
   XY=              9.9069   XZ=             31.3730   YZ=              2.0754

 Normal termination of Gaussian 16 at Sat Jul 13 16:35:25 2019.
