 Gaussian 16, Revision A.03,
 Gaussian 16:  ES64L-G16RevA.03 25-Dec-2016

 -------------------------------------
 # td=(NStates=1) CAM-B3LYP/6-31G(d,p)
 -------------------------------------

 --
 TD
 --
 Symbolic Z-matrix:
 Charge =  0 Multiplicity = 1

                         Standard orientation:
 ---------------------------------------------------------------------
 Center     Atomic      Atomic             Coordinates (Angstroms)
 Number     Number       Type             X           Y           Z
 ---------------------------------------------------------------------
      1          8           0      -14.092194   -2.200525    0.454697
      2          8           0       14.726005    1.010837    0.125434
      3          6           0      -11.728235    0.062606    1.223620
      4          6           0      -10.941272    0.368908    0.001527
      5          6           0      -11.942649   -1.495613    1.413284
      6          6           0      -12.662114   -2.103051    0.232307
      7          6           0      -11.431653   -0.401265   -1.234397
      8          6           0       11.062515    0.850137    1.134428
      9          6           0      -10.961683    0.483336    2.494080
     10          6           0      -12.993907    0.805809    1.245926
     11          6           0       12.428479    1.410523    0.857550
     12          6           0      -12.284590   -1.456803   -1.089779
     13          6           0       13.419855    0.357570    0.331670
     14          6           0       10.604674   -0.061553    0.078835
     15          6           0       -9.452316    0.011820    0.108690
     16          6           0       12.923407   -0.152457   -0.913888
     17          6           0       11.429727   -0.444895   -1.045471
     18          6           0       10.236750    2.047183    1.178440
     19          6           0       10.879064    0.216640    2.551533
     20          6           0      -11.251920    0.123274   -2.518305
     21          6           0       -8.430987    0.852787   -0.229723
     22          6           0        9.197410   -0.504999   -0.050248
     23          6           0       11.048587   -1.157242   -2.212681
     24          6           0       -7.048525    0.537422   -0.167427
     25          6           0        8.784233   -1.812892   -0.143415
     26          6           0       -6.459464   -0.850300    0.246225
     27          6           0        7.360928   -2.210770   -0.188248
     28          6           0       -6.207925    1.564109   -0.357621
     29          6           0        7.076407   -3.610638    0.195272
     30          6           0        6.323131   -1.292855   -0.253940
     31          6           0       -4.845887    1.514581   -0.466374
     32          6           0        4.989819   -1.574064   -0.061968
     33          6           0       -3.957817    2.580283   -0.645126
     34          6           0       -2.543954    2.717730   -0.764731
     35          6           0        4.019673   -0.675782   -0.201438
     36          6           0        2.544565   -0.826947   -0.197322
     37          6           0       -1.861978    4.143386   -0.859862
     38          6           0       -1.692956    1.637784   -0.586182
     39          6           0        1.834935    0.330073   -0.283157
     40          6           0        2.009574   -2.151038   -0.024723
     41          6           0       -0.295749    1.540538   -0.425855
     42          6           0        0.375210    0.360504   -0.264197
     43          1           0      -11.023268    1.260547   -0.267816
     44          1           0      -12.594644   -1.568439    2.371118
     45          1           0      -11.011687   -1.662527    1.579554
     46          1           0      -12.184001   -3.232423    0.186290
     47          1           0       -9.903750   -0.002663    2.428501
     48          1           0      -10.839349    1.464527    2.476111
     49          1           0      -11.430931    0.175213    3.417371
     50          1           0      -13.653730    0.213928    0.431252
     51          1           0      -13.530646    0.749038    2.414858
     52          1           0      -12.787307    1.995113    0.873023
     53          1           0       12.586924    2.088465    0.055413
     54          1           0       12.862062    1.778539    1.840703
     55          1           0      -12.860794   -1.934946   -2.007515
     56          1           0       13.657707   -0.363543    1.044140
     57          1           0       -9.208327   -1.207128    0.294871
     58          1           0       13.305685   -0.923827   -1.016951
     59          1           0       12.893306    0.724469   -1.729829
     60          1           0        9.187702    1.779337    1.645285
     61          1           0       10.054396    2.532454    0.271725
     62          1           0       10.844400    2.878731    1.986601
     63          1           0       11.531969   -0.735204    2.298707
     64          1           0        9.709115   -0.163569    2.703619
     65          1           0       11.114253    1.022523    3.291314
     66          1           0      -10.294844    0.450008   -2.667408
     67          1           0      -11.712935    0.918241   -2.518401
     68          1           0      -11.606335   -0.580773   -3.129462
     69          1           0      -14.602223   -2.504668   -0.353267
     70          1           0        8.440588    0.218817    0.369816
     71          1           0       -8.846735    1.725645   -0.582867
     72          1           0       11.658367   -2.001272   -2.115545
     73          1           0        9.887773   -1.526164   -2.366975
     74          1           0       11.341264   -0.809551   -3.237681
     75          1           0       15.499584    1.319564    0.932818
     76          1           0        9.512475   -2.408000   -0.337243
     77          1           0       -5.401938   -0.860701    0.341304
     78          1           0       -6.859676   -1.139795    1.236106
     79          1           0       -7.025330   -1.642977   -0.478829
     80          1           0       -6.884091    2.414386   -0.357759
     81          1           0        6.882559   -3.719868    1.334284
     82          1           0        6.057096   -4.145271   -0.233404
     83          1           0        7.953140   -4.365735   -0.155312
     84          1           0        6.479592   -0.287508   -0.672334
     85          1           0       -4.649029    0.455323   -0.264151
     86          1           0        4.632578   -2.575566    0.082606
     87          1           0       -4.333923    3.496264   -0.709631
     88          1           0        4.569554    0.340001   -0.219669
     89          1           0       -1.060006    4.104919   -1.552821
     90          1           0       -1.326620    4.214758    0.284758
     91          1           0       -2.678045    4.807562   -1.038787
     92          1           0       -2.465550    0.531136   -0.629634
     93          1           0        2.380520    1.233625   -0.513802
     94          1           0        2.816874   -2.703394    0.751493
     95          1           0        0.892107   -2.173081    0.677559
     96          1           0        1.800864   -2.691675   -1.301438
     97          1           0        0.120145    2.647462   -0.357155
     98          1           0       -0.287538   -0.495837   -0.090409
 ---------------------------------------------------------------------

 SCF Done:  E(RCAM-B3LYP) =  -1706.64596606     A.U. after   15 cycles

 Excitation energies and oscillator strengths:

 Excited State   1:      Singlet-A      2.2628 eV  547.91 nm  f=2.9164  <S**2>=0.000
     155 ->158         0.16431
     156 ->157         0.68544
 This state for optimization and/or second-order correction.
 Total Energy, E(TD-HF/TD-DFT) =  -1706.56280802
 Copying the excited state density for this state as the 1-particle RhoCI density.

 The electronic state is 1-A.
 Alpha  occ. eigenvalues --  -19.21660 -19.20592 -10.31988 -10.31222 -10.29425
 Alpha  occ. eigenvalues --  -10.27992 -10.27897 -10.27861 -10.27439 -10.27412
 Alpha  occ. eigenvalues --  -10.27382 -10.27377 -10.27327 -10.27251 -10.27103
 Alpha  occ. eigenvalues --  -10.27102 -10.27078 -10.27071 -10.27042 -10.26510
 Alpha  occ. eigenvalues --  -10.26309 -10.26304 -10.26299 -10.26238 -10.26127
 Alpha  occ. eigenvalues --  -10.26115 -10.26055 -10.25985 -10.25852 -10.25824
 Alpha  occ. eigenvalues --  -10.25743 -10.25528 -10.25431 -10.25281 -10.24933
 Alpha  occ. eigenvalues --  -10.24696 -10.24568 -10.24428 -10.24119 -10.24088
 Alpha  occ. eigenvalues --  -10.22941 -10.21407  -1.07745  -1.04228  -0.95338
 Alpha  occ. eigenvalues --   -0.94692  -0.92498  -0.92195  -0.90648  -0.89764
 Alpha  occ. eigenvalues --   -0.89380  -0.89366  -0.87264  -0.86099  -0.85034
 Alpha  occ. eigenvalues --   -0.83619  -0.82756  -0.81151  -0.80680  -0.78367
 Alpha  occ. eigenvalues --   -0.77317  -0.76743  -0.76689  -0.75518  -0.75476
 Alpha  occ. eigenvalues --   -0.74603  -0.74489  -0.74190  -0.72859  -0.70919
 Alpha  occ. eigenvalues --   -0.68573  -0.68392  -0.66484  -0.64646  -0.63524
 Alpha  occ. eigenvalues --   -0.62886  -0.62616  -0.61874  -0.60408  -0.60071
 Alpha  occ. eigenvalues --   -0.59383  -0.59099  -0.58210  -0.57850  -0.56294
 Alpha  occ. eigenvalues --   -0.55868  -0.55248  -0.54814  -0.54489  -0.54013
 Alpha  occ. eigenvalues --   -0.53764  -0.53297  -0.52489  -0.51689  -0.51436
 Alpha  occ. eigenvalues --   -0.51074  -0.50510  -0.50389  -0.49766  -0.49487
 Alpha  occ. eigenvalues --   -0.49073  -0.48363  -0.48165  -0.48146  -0.48000
 Alpha  occ. eigenvalues --   -0.47611  -0.47303  -0.47048  -0.47004  -0.46645
 Alpha  occ. eigenvalues --   -0.46239  -0.45951  -0.45403  -0.45321  -0.44868
 Alpha  occ. eigenvalues --   -0.44750  -0.44573  -0.43993  -0.43273  -0.43215
 Alpha  occ. eigenvalues --   -0.43080  -0.42728  -0.42188  -0.41914  -0.41624
 Alpha  occ. eigenvalues --   -0.41347  -0.41111  -0.40637  -0.40318  -0.40205
 Alpha  occ. eigenvalues --   -0.39799  -0.39773  -0.39366  -0.39257  -0.39017
 Alpha  occ. eigenvalues --   -0.38858  -0.38646  -0.38173  -0.37752  -0.37508
 Alpha  occ. eigenvalues --   -0.36774  -0.36358  -0.36183  -0.35904  -0.35574
 Alpha  occ. eigenvalues --   -0.34755  -0.34591  -0.33943  -0.31812  -0.31476
 Alpha  occ. eigenvalues --   -0.30661  -0.28755  -0.27921  -0.26320  -0.23129
 Alpha  occ. eigenvalues --   -0.19800
 Alpha virt. eigenvalues --   -0.05443  -0.01219   0.02512   0.05608   0.06702
 Alpha virt. eigenvalues --    0.06981   0.08132   0.09336   0.10241   0.11252
 Alpha virt. eigenvalues --    0.11411   0.11622   0.12438   0.12525   0.13113

 Mulliken charges:
               1
     1  O   -0.562548
     2  O   -0.619184
     3  C   -0.019867
     4  C   -0.074020
     5  C   -0.141385
     6  C    0.157557
     7  C    0.094236
     8  C   -0.027720
     9  C   -0.289993
    10  C   -0.257398
    11  C   -0.171330
    12  C   -0.156923
    13  C    0.155647
    14  C    0.042344
    15  C   -0.104974
    16  C   -0.126507
    17  C    0.033684
    18  C   -0.258383
    19  C   -0.270711
    20  C   -0.321721
    21  C   -0.106712
    22  C   -0.119749
    23  C   -0.377247
    24  C    0.107587
    25  C   -0.071837
    26  C   -0.370576
    27  C    0.082590
    28  C   -0.088763
    29  C   -0.363015
    30  C   -0.130648
    31  C   -0.069256
    32  C   -0.048945
    33  C   -0.093891
    34  C    0.052637
    35  C   -0.126937
    36  C    0.141881
    37  C   -0.353187
    38  C   -0.092273
    39  C   -0.112677
    40  C   -0.336954
    41  C   -0.082338
    42  C   -0.097999
    43  H    0.069684
    44  H    0.106059
    45  H    0.101375
    46  H    0.055432
    47  H    0.083695
    48  H    0.103162
    49  H    0.099168
    50  H    0.106949
    51  H    0.070548
    52  H    0.052677
    53  H    0.114614
    54  H    0.075330
    55  H    0.058006
    56  H    0.084556
    57  H    0.072419
    58  H    0.082722
    59  H    0.117689
    60  H    0.076890
    61  H    0.110236
    62  H    0.051712
    63  H    0.090645
    64  H    0.093385
    65  H    0.106597
    66  H    0.108955
    67  H    0.128394
    68  H    0.115201
    69  H    0.312777
    70  H    0.076469
    71  H    0.085635
    72  H    0.126755
    73  H    0.117721
    74  H    0.116229
    75  H    0.310517
    76  H    0.067167
    77  H    0.128341
    78  H    0.127633
    79  H    0.102869
    80  H    0.069139
    81  H    0.123122
    82  H    0.094815
    83  H    0.091225
    84  H    0.088215
    85  H    0.062181
    86  H    0.069085
    87  H    0.062945
    88  H    0.067260
    89  H    0.139691
    90  H    0.101059
    91  H    0.115421
    92  H    0.030639
    93  H    0.094383
    94  H    0.104501
    95  H    0.085125
    96  H    0.087515
    97  H    0.082091
    98  H    0.100881
 Sum of Mulliken charges =  -0.00000

 Dipole moment (field-independent basis, Debye):
    X=              1.3926    Y=             -0.3121    Z=             -0.6165  Tot=              1.5546
 Quadrupole moment (field-independent basis, Debye-Ang):
   XX=           -253.2965   YY=           -250.4420   ZZ=           -261.9647
   XY=             -6.4794   XZ=             35.4807   YZ=              2.5961

 Normal termination of Gaussian 16 at Tue Jul 16 15:20:47 2019.
