 Gaussian 16, Revision A.03,
 Gaussian 16:  ES64L-G16RevA.03 25-Dec-2016

 -------------------------------------
 # td=(NStates=1) CAM-B3LYP/6-31G(d,p)
 -------------------------------------

 --
 TD
 --
 Symbolic Z-matrix:
 Charge =  0 Multiplicity = 1

                         Standard orientation:
 ---------------------------------------------------------------------
 Center     Atomic      Atomic             Coordinates (Angstroms)
 Number     Number       Type             X           Y           Z
 ---------------------------------------------------------------------
      1          8           0      -14.006253   -2.214780    0.512954
      2          8           0       14.790733    0.647055    0.412910
      3          6           0      -11.686335   -0.159932    1.344754
      4          6           0      -11.011345    0.282947    0.088651
      5          6           0      -11.764757   -1.756897    1.390861
      6          6           0      -12.614432   -2.204645    0.244278
      7          6           0      -11.546016   -0.279315   -1.189381
      8          6           0       11.064454    0.811122    1.155995
      9          6           0      -10.960711    0.367682    2.604355
     10          6           0      -13.144207    0.536018    1.490831
     11          6           0       12.528353    1.339555    0.987863
     12          6           0      -12.305177   -1.450051   -1.091044
     13          6           0       13.482648    0.269626    0.515203
     14          6           0       10.726301   -0.162997    0.002845
     15          6           0       -9.561387   -0.073173    0.001195
     16          6           0       13.085708   -0.204537   -0.884178
     17          6           0       11.662178   -0.484001   -0.833123
     18          6           0       10.244136    2.203252    1.085927
     19          6           0       10.918646    0.129270    2.607639
     20          6           0      -11.386865    0.351335   -2.462189
     21          6           0       -8.530807    0.833536   -0.057379
     22          6           0        9.272134   -0.529322    0.234750
     23          6           0       11.181703   -1.429089   -2.085553
     24          6           0       -7.138628    0.443555   -0.174890
     25          6           0        8.744469   -1.758049   -0.207244
     26          6           0       -6.682569   -0.946544   -0.006939
     27          6           0        7.356120   -2.107700   -0.207109
     28          6           0       -6.243603    1.556801   -0.348275
     29          6           0        6.918721   -3.525078    0.048958
     30          6           0        6.384669   -1.210633   -0.387368
     31          6           0       -4.833433    1.518049   -0.361040
     32          6           0        4.980308   -1.415286   -0.292430
     33          6           0       -4.041783    2.637810   -0.436905
     34          6           0       -2.622483    2.752393   -0.507582
     35          6           0        3.988410   -0.408290   -0.517458
     36          6           0        2.635200   -0.606065   -0.511484
     37          6           0       -2.062124    4.108027   -0.940131
     38          6           0       -1.713298    1.712583   -0.448076
     39          6           0        1.776156    0.484079   -0.735804
     40          6           0        2.145061   -1.999667   -0.079993
     41          6           0       -0.392184    1.760431   -0.698691
     42          6           0        0.403379    0.640559   -0.522946
     43          1           0      -11.033745    1.513808    0.116829
     44          1           0      -12.368105   -2.032517    2.273881
     45          1           0      -10.844242   -2.164800    1.335221
     46          1           0      -12.410574   -3.308982    0.174031
     47          1           0       -9.777677    0.013486    2.747613
     48          1           0      -10.651487    1.257540    2.454170
     49          1           0      -11.443793    0.233260    3.536101
     50          1           0      -13.930426    0.212289    0.616380
     51          1           0      -13.525161    0.448959    2.401256
     52          1           0      -13.051111    1.782691    1.580594
     53          1           0       12.492440    2.110799    0.333264
     54          1           0       12.852224    1.879820    1.863080
     55          1           0      -12.685473   -2.007942   -2.002681
     56          1           0       13.298875   -0.484862    1.235276
     57          1           0       -9.346092   -1.071961   -0.133520
     58          1           0       13.494560   -1.046215   -1.196523
     59          1           0       13.329524    0.511888   -1.422510
     60          1           0        9.355282    1.983876    1.702765
     61          1           0        9.998062    2.607146    0.065258
     62          1           0       10.950084    3.064273    1.710530
     63          1           0       11.469469   -0.624836    2.573778
     64          1           0       10.033613   -0.088438    2.600143
     65          1           0       11.271951    1.015817    3.251601
     66          1           0      -10.244644    0.701173   -2.784536
     67          1           0      -11.720812    1.265958   -2.464699
     68          1           0      -11.874225   -0.492999   -3.329071
     69          1           0      -14.400727   -2.815842   -0.174329
     70          1           0        8.488324    0.123819    0.602205
     71          1           0       -8.575686    1.873207   -0.018322
     72          1           0       11.610974   -2.316060   -2.176617
     73          1           0       10.067205   -1.432878   -2.153275
     74          1           0       11.505309   -1.086952   -3.094554
     75          1           0       15.277026    0.642328    1.332274
     76          1           0        9.431858   -2.500763   -0.500565
     77          1           0       -5.492751   -0.823561    0.028267
     78          1           0       -7.195225   -1.329210    0.884708
     79          1           0       -6.970956   -1.587985   -0.696874
     80          1           0       -6.615921    2.633764   -0.366840
     81          1           0        6.322682   -3.599249    1.079955
     82          1           0        6.157087   -3.756262   -0.741511
     83          1           0        7.709688   -4.198732    0.044299
     84          1           0        6.781896   -0.122701   -0.165841
     85          1           0       -4.368375    0.433788   -0.604959
     86          1           0        4.709359   -2.481592    0.050241
     87          1           0       -4.502784    3.591985   -0.418872
     88          1           0        4.405110    0.567487   -0.808192
     89          1           0       -1.542674    3.975980   -1.782853
     90          1           0       -1.402692    4.745216   -0.070120
     91          1           0       -2.773086    4.888531   -1.319734
     92          1           0       -2.284433    0.759162   -0.230366
     93          1           0        2.285545    1.515257   -1.015419
     94          1           0        2.329216   -2.380887    0.935683
     95          1           0        1.072430   -2.193049   -0.189034
     96          1           0        2.672435   -2.669449   -0.622118
     97          1           0       -0.032627    2.744149   -0.912871
     98          1           0       -0.122229   -0.101080   -0.440863
 ---------------------------------------------------------------------

 SCF Done:  E(RCAM-B3LYP) =  -1706.81096682     A.U. after   15 cycles

 Excitation energies and oscillator strengths:

 Excited State   1:      Singlet-A      1.9987 eV  620.32 nm  f=3.1541  <S**2>=0.000
     155 ->158         0.14089
     156 ->157         0.69630
     156 <-157        -0.10143
 This state for optimization and/or second-order correction.
 Total Energy, E(TD-HF/TD-DFT) =  -1706.73751574
 Copying the excited state density for this state as the 1-particle RhoCI density.

 The electronic state is 1-A.
 Alpha  occ. eigenvalues --  -19.21414 -19.21239 -10.30758 -10.28798 -10.27999
 Alpha  occ. eigenvalues --  -10.27787 -10.27636 -10.27541 -10.27495 -10.27464
 Alpha  occ. eigenvalues --  -10.27404 -10.27338 -10.27164 -10.27143 -10.26934
 Alpha  occ. eigenvalues --  -10.26862 -10.26663 -10.26598 -10.26568 -10.26314
 Alpha  occ. eigenvalues --  -10.26254 -10.26234 -10.26190 -10.26149 -10.25995
 Alpha  occ. eigenvalues --  -10.25926 -10.25836 -10.25819 -10.25759 -10.25634
 Alpha  occ. eigenvalues --  -10.25612 -10.25566 -10.25416 -10.25194 -10.24839
 Alpha  occ. eigenvalues --  -10.24663 -10.24481 -10.23570 -10.23433 -10.22185
 Alpha  occ. eigenvalues --  -10.22140 -10.21714  -1.09716  -1.09274  -0.94046
 Alpha  occ. eigenvalues --   -0.93293  -0.92625  -0.91718  -0.90959  -0.90213
 Alpha  occ. eigenvalues --   -0.87760  -0.86815  -0.86667  -0.85117  -0.84517
 Alpha  occ. eigenvalues --   -0.83256  -0.81708  -0.81069  -0.79527  -0.78888
 Alpha  occ. eigenvalues --   -0.77939  -0.77570  -0.76496  -0.76230  -0.76003
 Alpha  occ. eigenvalues --   -0.75060  -0.75014  -0.74396  -0.73199  -0.70900
 Alpha  occ. eigenvalues --   -0.69415  -0.67461  -0.66636  -0.66296  -0.64594
 Alpha  occ. eigenvalues --   -0.63926  -0.62947  -0.62814  -0.60903  -0.60697
 Alpha  occ. eigenvalues --   -0.60060  -0.59113  -0.58717  -0.57325  -0.56123
 Alpha  occ. eigenvalues --   -0.55900  -0.55255  -0.55083  -0.54649  -0.53956
 Alpha  occ. eigenvalues --   -0.53621  -0.53112  -0.52890  -0.52319  -0.51698
 Alpha  occ. eigenvalues --   -0.51125  -0.50408  -0.49944  -0.49592  -0.49324
 Alpha  occ. eigenvalues --   -0.48587  -0.48453  -0.48181  -0.48097  -0.47760
 Alpha  occ. eigenvalues --   -0.47590  -0.47499  -0.47295  -0.46551  -0.46425
 Alpha  occ. eigenvalues --   -0.46236  -0.46056  -0.45875  -0.45688  -0.45268
 Alpha  occ. eigenvalues --   -0.44936  -0.44386  -0.44012  -0.43814  -0.43687
 Alpha  occ. eigenvalues --   -0.43532  -0.43259  -0.43197  -0.42755  -0.42499
 Alpha  occ. eigenvalues --   -0.41938  -0.41649  -0.41483  -0.41057  -0.40945
 Alpha  occ. eigenvalues --   -0.40450  -0.40138  -0.39880  -0.39759  -0.39470
 Alpha  occ. eigenvalues --   -0.38993  -0.38754  -0.38676  -0.37933  -0.37793
 Alpha  occ. eigenvalues --   -0.37559  -0.36603  -0.36241  -0.35364  -0.34851
 Alpha  occ. eigenvalues --   -0.34753  -0.34060  -0.32880  -0.32233  -0.31765
 Alpha  occ. eigenvalues --   -0.30709  -0.29497  -0.28469  -0.26816  -0.23787
 Alpha  occ. eigenvalues --   -0.19162
 Alpha virt. eigenvalues --   -0.06756  -0.01335   0.02287   0.04813   0.06731
 Alpha virt. eigenvalues --    0.09717   0.11050   0.11242   0.11464   0.12210
 Alpha virt. eigenvalues --    0.12519   0.12723   0.12897   0.13730   0.13862

 Mulliken charges:
               1
     1  O   -0.545019
     2  O   -0.567437
     3  C    0.026629
     4  C   -0.146817
     5  C   -0.179518
     6  C    0.134710
     7  C    0.155648
     8  C   -0.069602
     9  C   -0.295751
    10  C   -0.288363
    11  C   -0.192497
    12  C   -0.148021
    13  C    0.158501
    14  C    0.084463
    15  C   -0.083607
    16  C   -0.152612
    17  C    0.010812
    18  C   -0.298364
    19  C   -0.251719
    20  C   -0.339620
    21  C   -0.066201
    22  C   -0.113008
    23  C   -0.390423
    24  C    0.093338
    25  C   -0.117130
    26  C   -0.359818
    27  C    0.085136
    28  C   -0.138648
    29  C   -0.369153
    30  C   -0.107271
    31  C   -0.071547
    32  C   -0.115834
    33  C   -0.126106
    34  C    0.083147
    35  C   -0.108867
    36  C    0.124865
    37  C   -0.381468
    38  C   -0.100324
    39  C   -0.145273
    40  C   -0.379897
    41  C   -0.076350
    42  C   -0.032368
    43  H    0.074116
    44  H    0.112234
    45  H    0.109651
    46  H    0.064586
    47  H    0.054393
    48  H    0.112617
    49  H    0.108454
    50  H    0.117565
    51  H    0.116177
    52  H    0.047893
    53  H    0.099584
    54  H    0.071902
    55  H    0.066247
    56  H    0.067617
    57  H    0.087476
    58  H    0.112334
    59  H    0.126522
    60  H    0.097144
    61  H    0.115673
    62  H    0.064506
    63  H    0.106347
    64  H    0.104169
    65  H    0.088974
    66  H    0.088023
    67  H    0.137877
    68  H    0.082159
    69  H    0.309957
    70  H    0.097072
    71  H    0.076934
    72  H    0.115752
    73  H    0.120113
    74  H    0.088954
    75  H    0.307711
    76  H    0.098776
    77  H    0.094072
    78  H    0.122901
    79  H    0.137325
    80  H    0.082936
    81  H    0.108917
    82  H    0.121983
    83  H    0.108910
    84  H    0.063026
    85  H    0.083090
    86  H    0.082625
    87  H    0.083344
    88  H    0.090650
    89  H    0.142055
    90  H    0.089762
    91  H    0.101203
    92  H    0.069869
    93  H    0.070970
    94  H    0.121593
    95  H    0.107737
    96  H    0.131135
    97  H    0.089320
    98  H    0.048458
 Sum of Mulliken charges =  -0.00000

 Dipole moment (field-independent basis, Debye):
    X=             -0.5155    Y=             -1.5962    Z=             -0.0188  Tot=              1.6775
 Quadrupole moment (field-independent basis, Debye-Ang):
   XX=           -265.5188   YY=           -240.7599   ZZ=           -261.9497
   XY=              2.2290   XZ=             32.1764   YZ=              1.3166

 Normal termination of Gaussian 16 at Fri Jul 12 23:28:04 2019.
