 Gaussian 16, Revision A.03,
 Gaussian 16:  ES64L-G16RevA.03 25-Dec-2016

 -------------------------------------
 # td=(NStates=1) CAM-B3LYP/6-31G(d,p)
 -------------------------------------

 --
 TD
 --
 Symbolic Z-matrix:
 Charge =  0 Multiplicity = 1

                         Standard orientation:
 ---------------------------------------------------------------------
 Center     Atomic      Atomic             Coordinates (Angstroms)
 Number     Number       Type             X           Y           Z
 ---------------------------------------------------------------------
      1          8           0      -14.141018   -1.890228    0.477289
      2          8           0       14.774213    0.954484   -0.068046
      3          6           0      -11.795335    0.069541    1.313903
      4          6           0      -10.976928    0.373121   -0.045531
      5          6           0      -11.823251   -1.432639    1.320011
      6          6           0      -12.749660   -2.186307    0.215713
      7          6           0      -11.741227   -0.271840   -1.234983
      8          6           0       11.176765    0.987526    1.031593
      9          6           0      -11.010951    0.673652    2.418686
     10          6           0      -13.130715    0.758533    1.217968
     11          6           0       12.392554    1.572947    0.583084
     12          6           0      -12.472953   -1.400704   -1.114879
     13          6           0       13.470305    0.544527    0.148871
     14          6           0       10.638895   -0.049293   -0.059204
     15          6           0       -9.570219   -0.166090   -0.105350
     16          6           0       12.947654   -0.202127   -1.068419
     17          6           0       11.497669   -0.602065   -0.971685
     18          6           0       10.227992    2.136606    1.229291
     19          6           0       11.139543    0.275491    2.308886
     20          6           0      -11.366000    0.325922   -2.611284
     21          6           0       -8.545114    0.745619   -0.211543
     22          6           0        9.270861   -0.531166    0.144285
     23          6           0       11.071447   -1.448436   -2.138778
     24          6           0       -7.095979    0.452633   -0.156077
     25          6           0        8.808678   -1.816592   -0.091258
     26          6           0       -6.649475   -1.019097   -0.153619
     27          6           0        7.377127   -2.110683   -0.017493
     28          6           0       -6.150462    1.434437   -0.392452
     29          6           0        7.071863   -3.574511    0.220362
     30          6           0        6.452346   -1.245905   -0.215073
     31          6           0       -4.700723    1.355344   -0.465743
     32          6           0        5.058408   -1.422236    0.058910
     33          6           0       -3.895090    2.527082   -0.606376
     34          6           0       -2.565697    2.516775   -0.536154
     35          6           0        3.974451   -0.536442   -0.109725
     36          6           0        2.694137   -0.738768    0.061166
     37          6           0       -1.801001    3.797854   -0.833543
     38          6           0       -1.768169    1.369617   -0.348746
     39          6           0        1.795751    0.403688   -0.203744
     40          6           0        2.099680   -2.064036    0.533392
     41          6           0       -0.396236    1.400962   -0.381210
     42          6           0        0.376490    0.357155   -0.209516
     43          1           0      -10.930060    1.348636   -0.370685
     44          1           0      -12.512935   -1.864547    2.360422
     45          1           0      -10.970370   -1.823696    1.514087
     46          1           0      -12.597024   -3.173752    0.035544
     47          1           0       -9.958324    0.286323    2.654702
     48          1           0      -10.839062    1.789400    2.333289
     49          1           0      -11.416581    0.264900    3.371846
     50          1           0      -13.744744    0.454418    0.194760
     51          1           0      -13.757138    0.550326    2.174908
     52          1           0      -13.032451    1.665032    1.246069
     53          1           0       12.338094    2.383700   -0.262911
     54          1           0       12.825062    2.030700    1.542699
     55          1           0      -12.718103   -1.938752   -2.019547
     56          1           0       13.529381   -0.321244    0.847732
     57          1           0       -9.340117   -1.361025    0.058044
     58          1           0       13.407604   -1.141299   -1.403054
     59          1           0       13.038999    0.527205   -1.967299
     60          1           0        9.273460    2.008944    1.697332
     61          1           0       10.083683    2.883652    0.303514
     62          1           0       10.747671    2.914022    1.782280
     63          1           0       11.933018   -0.538085    2.129908
     64          1           0       10.169317   -0.257135    2.418548
     65          1           0       11.319594    0.735202    3.281682
     66          1           0      -10.170914    0.242457   -2.604634
     67          1           0      -11.659607    1.422930   -2.454798
     68          1           0      -11.749880   -0.049566   -3.541037
     69          1           0      -14.384179   -2.149535   -0.379673
     70          1           0        8.514898    0.108970    0.791103
     71          1           0       -8.845311    1.756218   -0.256617
     72          1           0       11.382595   -2.522885   -1.963991
     73          1           0       10.105807   -1.340749   -2.383502
     74          1           0       11.670361   -0.947280   -3.018579
     75          1           0       14.797281    1.661876    0.800925
     76          1           0        9.328279   -2.533059   -0.527070
     77          1           0       -5.560441   -1.180888   -0.070309
     78          1           0       -7.054948   -1.537890    0.731774
     79          1           0       -7.013024   -1.578215   -1.031134
     80          1           0       -6.587074    2.458776   -0.404507
     81          1           0        6.723939   -3.680819    1.286150
     82          1           0        6.514746   -4.031666   -0.547856
     83          1           0        7.977529   -4.049772    0.225127
     84          1           0        6.608360   -0.137468   -0.270507
     85          1           0       -4.109606    0.542745   -0.287590
     86          1           0        4.677231   -2.446182    0.102940
     87          1           0       -4.471180    3.426123   -0.842318
     88          1           0        4.362939    0.634924   -0.347014
     89          1           0       -0.984146    3.625232   -1.411934
     90          1           0       -1.341208    4.272713    0.212516
     91          1           0       -2.632029    4.524167   -1.112117
     92          1           0       -2.302860    0.439404   -0.224216
     93          1           0        2.298720    1.326686   -0.416667
     94          1           0        2.478240   -2.565068    1.419571
     95          1           0        0.904829   -2.128639    0.730128
     96          1           0        2.398533   -2.940699   -0.224504
     97          1           0        0.099985    2.438017   -0.606610
     98          1           0        0.083025   -0.558393    0.286710
 ---------------------------------------------------------------------

 SCF Done:  E(RCAM-B3LYP) =  -1706.90571940     A.U. after   15 cycles

 Excitation energies and oscillator strengths:

 Excited State   1:      Singlet-A      1.9096 eV  649.28 nm  f=2.9963  <S**2>=0.000
     155 ->158        -0.13128
     156 ->157         0.70068
     156 <-157        -0.11742
 This state for optimization and/or second-order correction.
 Total Energy, E(TD-HF/TD-DFT) =  -1706.83554453
 Copying the excited state density for this state as the 1-particle RhoCI density.

 The electronic state is 1-A.
 Alpha  occ. eigenvalues --  -19.23102 -19.20576 -10.31133 -10.30416 -10.27989
 Alpha  occ. eigenvalues --  -10.27955 -10.27921 -10.27830 -10.27279 -10.27219
 Alpha  occ. eigenvalues --  -10.27065 -10.27051 -10.27035 -10.27009 -10.26978
 Alpha  occ. eigenvalues --  -10.26764 -10.26752 -10.26674 -10.26608 -10.26563
 Alpha  occ. eigenvalues --  -10.26531 -10.26321 -10.26280 -10.26254 -10.26217
 Alpha  occ. eigenvalues --  -10.26180 -10.25984 -10.25872 -10.25817 -10.25783
 Alpha  occ. eigenvalues --  -10.25748 -10.25631 -10.25535 -10.25354 -10.25119
 Alpha  occ. eigenvalues --  -10.24997 -10.24900 -10.24880 -10.24587 -10.24469
 Alpha  occ. eigenvalues --  -10.24337 -10.22633  -1.10419  -1.09610  -0.95033
 Alpha  occ. eigenvalues --   -0.93463  -0.93010  -0.92124  -0.90935  -0.89757
 Alpha  occ. eigenvalues --   -0.88737  -0.87936  -0.86584  -0.84911  -0.84341
 Alpha  occ. eigenvalues --   -0.82407  -0.81545  -0.80302  -0.80085  -0.78381
 Alpha  occ. eigenvalues --   -0.77304  -0.76617  -0.76483  -0.75984  -0.75956
 Alpha  occ. eigenvalues --   -0.75797  -0.75378  -0.74413  -0.73074  -0.70764
 Alpha  occ. eigenvalues --   -0.69111  -0.68564  -0.67203  -0.65174  -0.63842
 Alpha  occ. eigenvalues --   -0.63600  -0.62515  -0.62163  -0.60592  -0.59615
 Alpha  occ. eigenvalues --   -0.59137  -0.58956  -0.58101  -0.57832  -0.56696
 Alpha  occ. eigenvalues --   -0.56341  -0.55162  -0.54848  -0.54442  -0.53571
 Alpha  occ. eigenvalues --   -0.53541  -0.53066  -0.52779  -0.52265  -0.51494
 Alpha  occ. eigenvalues --   -0.51147  -0.50402  -0.50194  -0.49939  -0.49421
 Alpha  occ. eigenvalues --   -0.48723  -0.48590  -0.48407  -0.48304  -0.47877
 Alpha  occ. eigenvalues --   -0.47595  -0.47200  -0.47064  -0.46857  -0.46290
 Alpha  occ. eigenvalues --   -0.46139  -0.45918  -0.45712  -0.45237  -0.44953
 Alpha  occ. eigenvalues --   -0.44804  -0.44660  -0.44437  -0.44017  -0.43854
 Alpha  occ. eigenvalues --   -0.43397  -0.43041  -0.42850  -0.42797  -0.42616
 Alpha  occ. eigenvalues --   -0.42330  -0.41796  -0.41056  -0.41003  -0.40813
 Alpha  occ. eigenvalues --   -0.40712  -0.39821  -0.39683  -0.39241  -0.39190
 Alpha  occ. eigenvalues --   -0.38877  -0.38717  -0.38497  -0.38184  -0.37993
 Alpha  occ. eigenvalues --   -0.37745  -0.37239  -0.36695  -0.36420  -0.36157
 Alpha  occ. eigenvalues --   -0.35374  -0.34609  -0.33602  -0.32425  -0.31721
 Alpha  occ. eigenvalues --   -0.31582  -0.29351  -0.28681  -0.26734  -0.23921
 Alpha  occ. eigenvalues --   -0.18632
 Alpha virt. eigenvalues --   -0.06774  -0.01094   0.02341   0.05029   0.07331
 Alpha virt. eigenvalues --    0.08786   0.09596   0.11412   0.11949   0.12374
 Alpha virt. eigenvalues --    0.12886   0.13004   0.13306   0.13607   0.13902

 Mulliken charges:
               1
     1  O   -0.507485
     2  O   -0.550335
     3  C    0.050432
     4  C   -0.131121
     5  C   -0.156767
     6  C    0.121320
     7  C    0.085244
     8  C    0.019183
     9  C   -0.318024
    10  C   -0.253829
    11  C   -0.216696
    12  C   -0.180125
    13  C    0.180674
    14  C    0.075158
    15  C   -0.068047
    16  C   -0.221350
    17  C    0.032287
    18  C   -0.307405
    19  C   -0.293975
    20  C   -0.345742
    21  C   -0.102598
    22  C   -0.136828
    23  C   -0.351496
    24  C    0.096660
    25  C   -0.086704
    26  C   -0.375652
    27  C    0.064824
    28  C   -0.133475
    29  C   -0.368379
    30  C   -0.096272
    31  C   -0.052144
    32  C   -0.120851
    33  C   -0.137882
    34  C    0.108215
    35  C   -0.120318
    36  C    0.154596
    37  C   -0.361353
    38  C   -0.101286
    39  C   -0.139678
    40  C   -0.386101
    41  C   -0.070158
    42  C   -0.073661
    43  H    0.084317
    44  H    0.046241
    45  H    0.100576
    46  H    0.096895
    47  H    0.095673
    48  H    0.101474
    49  H    0.100234
    50  H    0.100695
    51  H    0.086570
    52  H    0.095640
    53  H    0.108130
    54  H    0.070857
    55  H    0.073744
    56  H    0.074098
    57  H    0.087785
    58  H    0.111653
    59  H    0.100098
    60  H    0.106348
    61  H    0.075183
    62  H    0.101487
    63  H    0.090142
    64  H    0.115666
    65  H    0.102789
    66  H    0.110854
    67  H    0.102548
    68  H    0.116839
    69  H    0.298101
    70  H    0.089842
    71  H    0.084715
    72  H    0.113067
    73  H    0.135559
    74  H    0.096131
    75  H    0.301573
    76  H    0.083954
    77  H    0.108670
    78  H    0.111025
    79  H    0.124521
    80  H    0.076887
    81  H    0.121699
    82  H    0.127361
    83  H    0.108202
    84  H    0.071420
    85  H    0.074643
    86  H    0.068514
    87  H    0.083926
    88  H    0.056358
    89  H    0.137715
    90  H    0.091798
    91  H    0.101945
    92  H    0.078830
    93  H    0.078641
    94  H    0.133679
    95  H    0.100880
    96  H    0.103926
    97  H    0.080558
    98  H    0.076468
 Sum of Mulliken charges =  -0.00000

 Dipole moment (field-independent basis, Debye):
    X=              1.2665    Y=             -0.4673    Z=             -0.0348  Tot=              1.3505
 Quadrupole moment (field-independent basis, Debye-Ang):
   XX=           -307.9028   YY=           -240.4343   ZZ=           -262.5684
   XY=              7.7412   XZ=             36.3544   YZ=              4.2156

 Normal termination of Gaussian 16 at Sun Jul 14 12:45:11 2019.
