 Gaussian 16, Revision A.03,
 Gaussian 16:  ES64L-G16RevA.03 25-Dec-2016

 -------------------------------------
 # td=(NStates=1) CAM-B3LYP/6-31G(d,p)
 -------------------------------------

 --
 TD
 --
 Symbolic Z-matrix:
 Charge =  0 Multiplicity = 1

                         Standard orientation:
 ---------------------------------------------------------------------
 Center     Atomic      Atomic             Coordinates (Angstroms)
 Number     Number       Type             X           Y           Z
 ---------------------------------------------------------------------
      1          8           0      -14.086511   -1.982697    0.636358
      2          8           0       14.859358    0.938840    0.424250
      3          6           0      -11.750513    0.031075    1.381716
      4          6           0      -11.002105    0.361922    0.032367
      5          6           0      -11.956577   -1.561196    1.392986
      6          6           0      -12.695130   -2.112028    0.365190
      7          6           0      -11.753914   -0.315739   -1.145730
      8          6           0       11.057186    1.009106    1.025154
      9          6           0      -10.942116    0.367972    2.648174
     10          6           0      -12.997802    0.829393    1.412398
     11          6           0       12.528673    1.568290    0.835922
     12          6           0      -12.474631   -1.401513   -1.046466
     13          6           0       13.499683    0.474926    0.553182
     14          6           0       10.615546   -0.064252    0.067097
     15          6           0       -9.501370   -0.088886   -0.032511
     16          6           0       13.029618   -0.247528   -0.681438
     17          6           0       11.509278   -0.571704   -0.827485
     18          6           0       10.106274    2.261281    0.969906
     19          6           0       10.919872    0.539231    2.549180
     20          6           0      -11.593151    0.343874   -2.501381
     21          6           0       -8.515213    0.833855   -0.119546
     22          6           0        9.241445   -0.371948    0.006865
     23          6           0       11.258656   -1.338615   -1.996393
     24          6           0       -7.091769    0.473491   -0.038989
     25          6           0        8.745471   -1.718114   -0.006848
     26          6           0       -6.677312   -0.921977    0.078948
     27          6           0        7.418553   -2.186820   -0.080800
     28          6           0       -6.187218    1.574202   -0.288693
     29          6           0        7.234178   -3.641127    0.011261
     30          6           0        6.392311   -1.311189   -0.403640
     31          6           0       -4.706646    1.524189   -0.388762
     32          6           0        5.000905   -1.571143   -0.194209
     33          6           0       -3.981516    2.554532   -0.622633
     34          6           0       -2.528876    2.562200   -0.842103
     35          6           0        4.042821   -0.525118   -0.348991
     36          6           0        2.680637   -0.838523   -0.372961
     37          6           0       -1.950239    3.874671   -1.060494
     38          6           0       -1.710700    1.407916   -0.682963
     39          6           0        1.812072    0.280773   -0.560132
     40          6           0        2.178676   -2.246458   -0.111967
     41          6           0       -0.381850    1.373703   -0.774554
     42          6           0        0.389701    0.235814   -0.467986
     43          1           0      -10.958281    1.422108   -0.011668
     44          1           0      -12.477669   -1.433135    2.377178
     45          1           0      -11.155140   -2.030942    1.620646
     46          1           0      -12.455198   -3.206061    0.286940
     47          1           0       -9.965762   -0.135317    2.452325
     48          1           0      -10.695363    1.473926    2.737347
     49          1           0      -11.456694    0.167551    3.513452
     50          1           0      -13.590404    0.424818    0.657815
     51          1           0      -13.328625    0.815851    2.446506
     52          1           0      -12.807318    1.922053    1.188642
     53          1           0       12.486094    2.133465    0.054839
     54          1           0       12.654808    2.227666    1.684226
     55          1           0      -13.080368   -1.728481   -2.076705
     56          1           0       13.421096   -0.333918    1.449607
     57          1           0       -9.340984   -1.185805    0.048309
     58          1           0       13.625994   -1.394032   -0.582375
     59          1           0       13.393113    0.362351   -1.560156
     60          1           0        9.053266    2.126332    1.348791
     61          1           0       10.016825    2.638368   -0.116063
     62          1           0       10.259514    3.178732    1.622510
     63          1           0       11.621526   -0.253516    2.880796
     64          1           0        9.948679    0.048397    2.592905
     65          1           0       10.839117    1.518909    3.161970
     66          1           0      -10.491441    0.486535   -2.755113
     67          1           0      -11.995201    1.292897   -2.513766
     68          1           0      -12.163866   -0.127715   -3.376131
     69          1           0      -14.508343   -2.490775   -0.133326
     70          1           0        8.622926    0.431032    0.040865
     71          1           0       -8.867458    1.868657   -0.165223
     72          1           0       11.466966   -2.463232   -1.863703
     73          1           0       10.251426   -1.314166   -2.540310
     74          1           0       12.159384   -1.055722   -2.748735
     75          1           0       15.392760    0.797147    1.271980
     76          1           0        9.451140   -2.475949    0.049971
     77          1           0       -5.609752   -1.040003   -0.035599
     78          1           0       -6.921627   -1.168247    1.050107
     79          1           0       -7.234013   -1.557026   -0.795411
     80          1           0       -6.704229    2.475804   -0.525745
     81          1           0        6.695956   -3.829334    0.991064
     82          1           0        6.521440   -4.282150   -0.620408
     83          1           0        8.046663   -4.288405    0.019577
     84          1           0        6.637311   -0.340093   -0.545290
     85          1           0       -4.264434    0.484207   -0.384876
     86          1           0        4.735610   -2.519528    0.038514
     87          1           0       -4.488484    3.525866   -0.948068
     88          1           0        4.277688    0.498840   -0.782168
     89          1           0       -1.351959    3.965245   -1.916836
     90          1           0       -1.218252    3.997164   -0.092532
     91          1           0       -2.683254    4.550069   -0.940763
     92          1           0       -2.294451    0.534709   -0.281441
     93          1           0        2.256544    1.310770   -0.712582
     94          1           0        2.000623   -2.448732    1.078361
     95          1           0        1.094864   -2.287941   -0.746739
     96          1           0        3.024071   -3.032987   -0.508450
     97          1           0        0.348723    2.136550   -1.111304
     98          1           0        0.044228   -0.733170   -0.154638
 ---------------------------------------------------------------------

 SCF Done:  E(RCAM-B3LYP) =  -1706.97789409     A.U. after   15 cycles

 Excitation energies and oscillator strengths:

 Excited State   1:      Singlet-A      1.9182 eV  646.36 nm  f=2.9365  <S**2>=0.000
     155 ->158         0.14297
     156 ->157         0.69642
     156 <-157        -0.10646
 This state for optimization and/or second-order correction.
 Total Energy, E(TD-HF/TD-DFT) =  -1706.90740190
 Copying the excited state density for this state as the 1-particle RhoCI density.

 The electronic state is 1-A.
 Alpha  occ. eigenvalues --  -19.21270 -19.21241 -10.31000 -10.30765 -10.29506
 Alpha  occ. eigenvalues --  -10.28112 -10.27684 -10.27337 -10.27235 -10.27192
 Alpha  occ. eigenvalues --  -10.26788 -10.26587 -10.26579 -10.26579 -10.26576
 Alpha  occ. eigenvalues --  -10.26571 -10.26523 -10.26400 -10.26381 -10.26375
 Alpha  occ. eigenvalues --  -10.26361 -10.26340 -10.26193 -10.26149 -10.26109
 Alpha  occ. eigenvalues --  -10.26105 -10.26025 -10.25892 -10.25640 -10.25635
 Alpha  occ. eigenvalues --  -10.25633 -10.25503 -10.25262 -10.25203 -10.25084
 Alpha  occ. eigenvalues --  -10.24848 -10.24739 -10.24544 -10.23884 -10.22991
 Alpha  occ. eigenvalues --  -10.22775 -10.22669  -1.09045  -1.07499  -0.93439
 Alpha  occ. eigenvalues --   -0.93359  -0.92285  -0.91417  -0.90498  -0.89889
 Alpha  occ. eigenvalues --   -0.87530  -0.86912  -0.86429  -0.85372  -0.84879
 Alpha  occ. eigenvalues --   -0.83973  -0.82381  -0.81658  -0.80079  -0.78469
 Alpha  occ. eigenvalues --   -0.76910  -0.76458  -0.76250  -0.75151  -0.74957
 Alpha  occ. eigenvalues --   -0.74740  -0.74663  -0.74348  -0.72333  -0.70048
 Alpha  occ. eigenvalues --   -0.68626  -0.67597  -0.66117  -0.64402  -0.63540
 Alpha  occ. eigenvalues --   -0.62868  -0.62339  -0.61561  -0.60799  -0.60374
 Alpha  occ. eigenvalues --   -0.59999  -0.59382  -0.58271  -0.57129  -0.56058
 Alpha  occ. eigenvalues --   -0.55219  -0.54943  -0.54598  -0.54249  -0.53960
 Alpha  occ. eigenvalues --   -0.53453  -0.53183  -0.52272  -0.51962  -0.51003
 Alpha  occ. eigenvalues --   -0.50476  -0.50238  -0.49945  -0.49650  -0.49544
 Alpha  occ. eigenvalues --   -0.48980  -0.48573  -0.48450  -0.48274  -0.47858
 Alpha  occ. eigenvalues --   -0.47417  -0.47061  -0.46832  -0.46654  -0.46234
 Alpha  occ. eigenvalues --   -0.45990  -0.45857  -0.45523  -0.44945  -0.44398
 Alpha  occ. eigenvalues --   -0.44288  -0.43905  -0.43785  -0.43536  -0.43454
 Alpha  occ. eigenvalues --   -0.43195  -0.42948  -0.42774  -0.42360  -0.42086
 Alpha  occ. eigenvalues --   -0.41774  -0.41521  -0.40981  -0.40797  -0.40556
 Alpha  occ. eigenvalues --   -0.40490  -0.40278  -0.39899  -0.39656  -0.39551
 Alpha  occ. eigenvalues --   -0.39380  -0.38947  -0.38457  -0.37910  -0.37789
 Alpha  occ. eigenvalues --   -0.37716  -0.37286  -0.36587  -0.36180  -0.35464
 Alpha  occ. eigenvalues --   -0.35312  -0.34633  -0.33712  -0.31965  -0.31419
 Alpha  occ. eigenvalues --   -0.30862  -0.29773  -0.28324  -0.26147  -0.23371
 Alpha  occ. eigenvalues --   -0.18349
 Alpha virt. eigenvalues --   -0.06282  -0.01170   0.02279   0.05995   0.07657
 Alpha virt. eigenvalues --    0.08638   0.10618   0.10723   0.11600   0.12272
 Alpha virt. eigenvalues --    0.12565   0.12595   0.12722   0.13264   0.13581

 Mulliken charges:
               1
     1  O   -0.539407
     2  O   -0.574289
     3  C   -0.019496
     4  C   -0.127705
     5  C   -0.166671
     6  C    0.138255
     7  C    0.132965
     8  C   -0.043756
     9  C   -0.306486
    10  C   -0.276500
    11  C   -0.132333
    12  C   -0.158316
    13  C    0.163273
    14  C    0.076725
    15  C   -0.095187
    16  C   -0.215453
    17  C    0.092183
    18  C   -0.334465
    19  C   -0.300833
    20  C   -0.362959
    21  C   -0.094253
    22  C   -0.113792
    23  C   -0.368904
    24  C    0.085709
    25  C   -0.119250
    26  C   -0.359882
    27  C    0.122271
    28  C   -0.137539
    29  C   -0.400051
    30  C   -0.102781
    31  C   -0.062948
    32  C   -0.095457
    33  C   -0.115466
    34  C    0.072534
    35  C   -0.111719
    36  C    0.114820
    37  C   -0.358713
    38  C   -0.109603
    39  C   -0.138025
    40  C   -0.348379
    41  C   -0.080415
    42  C   -0.078625
    43  H    0.080757
    44  H    0.115337
    45  H    0.099078
    46  H    0.074847
    47  H    0.098711
    48  H    0.086132
    49  H    0.109539
    50  H    0.131562
    51  H    0.092082
    52  H    0.082124
    53  H    0.101613
    54  H    0.088516
    55  H    0.065512
    56  H    0.050500
    57  H    0.088238
    58  H    0.068971
    59  H    0.118432
    60  H    0.100434
    61  H    0.095341
    62  H    0.099538
    63  H    0.097812
    64  H    0.107446
    65  H    0.089849
    66  H    0.111055
    67  H    0.122641
    68  H    0.094897
    69  H    0.306020
    70  H    0.089730
    71  H    0.089671
    72  H    0.108514
    73  H    0.121567
    74  H    0.091297
    75  H    0.317606
    76  H    0.075707
    77  H    0.111395
    78  H    0.137507
    79  H    0.109840
    80  H    0.078372
    81  H    0.114688
    82  H    0.112588
    83  H    0.122514
    84  H    0.071901
    85  H    0.088599
    86  H    0.075368
    87  H    0.084236
    88  H    0.090097
    89  H    0.131949
    90  H    0.103448
    91  H    0.114441
    92  H    0.077573
    93  H    0.075748
    94  H    0.114420
    95  H    0.096924
    96  H    0.103141
    97  H    0.087278
    98  H    0.077822
 Sum of Mulliken charges =  -0.00000

 Dipole moment (field-independent basis, Debye):
    X=             -1.0148    Y=             -1.1102    Z=              0.1556  Tot=              1.5121
 Quadrupole moment (field-independent basis, Debye-Ang):
   XX=           -283.2118   YY=           -241.7383   ZZ=           -262.1428
   XY=             -4.0790   XZ=             33.3320   YZ=             -0.3961

 Normal termination of Gaussian 16 at Sun Jul 14 13:00:50 2019.
