 Gaussian 16, Revision A.03,
 Gaussian 16:  ES64L-G16RevA.03 25-Dec-2016

 -------------------------------------
 # td=(NStates=1) CAM-B3LYP/6-31G(d,p)
 -------------------------------------

 --
 TD
 --
 Symbolic Z-matrix:
 Charge =  0 Multiplicity = 1

                         Standard orientation:
 ---------------------------------------------------------------------
 Center     Atomic      Atomic             Coordinates (Angstroms)
 Number     Number       Type             X           Y           Z
 ---------------------------------------------------------------------
      1          8           0      -14.124237   -1.745114    0.653159
      2          8           0       14.866501    0.934754    0.093820
      3          6           0      -11.722041    0.103927    1.304624
      4          6           0      -10.978413    0.346725   -0.052912
      5          6           0      -11.907281   -1.449320    1.498666
      6          6           0      -12.733676   -2.074843    0.373225
      7          6           0      -11.736879   -0.423838   -1.181288
      8          6           0       11.082531    0.872965    1.152090
      9          6           0      -10.802571    0.579984    2.481020
     10          6           0      -12.990624    0.803359    1.253064
     11          6           0       12.537142    1.470504    0.757140
     12          6           0      -12.499164   -1.459351   -1.046028
     13          6           0       13.487374    0.426450    0.371751
     14          6           0       10.636013   -0.031966    0.075618
     15          6           0       -9.552348   -0.084636   -0.167077
     16          6           0       12.879969   -0.061346   -0.980552
     17          6           0       11.454939   -0.337720   -0.996592
     18          6           0       10.213452    2.232861    1.318719
     19          6           0       11.089006    0.189338    2.473395
     20          6           0      -11.519366    0.129109   -2.488382
     21          6           0       -8.569470    0.848160   -0.162793
     22          6           0        9.242579   -0.386543   -0.047880
     23          6           0       10.971349   -1.155815   -2.131626
     24          6           0       -7.139520    0.496044   -0.209060
     25          6           0        8.745623   -1.664968   -0.147379
     26          6           0       -6.700769   -0.898832   -0.064209
     27          6           0        7.408033   -2.114039   -0.029569
     28          6           0       -6.154820    1.399233   -0.376305
     29          6           0        7.298967   -3.631145    0.274858
     30          6           0        6.365564   -1.233642   -0.255341
     31          6           0       -4.805901    1.385354   -0.360131
     32          6           0        4.989054   -1.600070    0.004823
     33          6           0       -3.904718    2.453640   -0.635734
     34          6           0       -2.573771    2.592067   -0.666419
     35          6           0        4.010612   -0.633446   -0.367532
     36          6           0        2.569888   -0.888244   -0.286146
     37          6           0       -1.969295    4.036797   -0.823349
     38          6           0       -1.649076    1.472163   -0.294937
     39          6           0        1.832329    0.164186   -0.492825
     40          6           0        2.135100   -2.257579    0.048201
     41          6           0       -0.250297    1.405144   -0.643593
     42          6           0        0.411672    0.202386   -0.322624
     43          1           0      -11.056287    1.279684   -0.347272
     44          1           0      -12.332660   -1.539219    2.534804
     45          1           0      -10.966708   -1.928205    1.737056
     46          1           0      -12.520216   -3.101832    0.407598
     47          1           0       -9.772282    0.125477    2.287341
     48          1           0      -10.481250    1.627576    2.383357
     49          1           0      -11.131033    0.313907    3.335950
     50          1           0      -13.487319    0.557417    0.264670
     51          1           0      -13.505105    0.665222    1.997300
     52          1           0      -12.929876    1.933925    1.300403
     53          1           0       12.632753    2.122207   -0.190496
     54          1           0       13.042597    1.861998    1.827086
     55          1           0      -12.823552   -2.114825   -1.856396
     56          1           0       13.260158   -0.241060    1.160656
     57          1           0       -9.435741   -1.073620    0.136667
     58          1           0       13.490880   -0.982303   -1.260506
     59          1           0       13.072293    0.517591   -1.878772
     60          1           0        9.207200    2.021823    1.740616
     61          1           0       10.083827    2.573673    0.231739
     62          1           0       10.558333    3.315197    1.802478
     63          1           0       12.046569   -0.601364    2.613568
     64          1           0       10.057237   -0.485350    2.700489
     65          1           0       11.121565    0.932706    3.404109
     66          1           0      -10.289887    0.035763   -2.761501
     67          1           0      -11.855977    1.190307   -2.505357
     68          1           0      -12.079979   -0.379685   -3.360486
     69          1           0      -14.525974   -2.053755   -0.120107
     70          1           0        8.446856    0.348481    0.370965
     71          1           0       -8.578194    1.888707   -0.463087
     72          1           0       11.214343   -2.243643   -1.939519
     73          1           0        9.931730   -1.245192   -2.300008
     74          1           0       11.514234   -0.982978   -3.065156
     75          1           0       15.136531    1.353488    0.843287
     76          1           0        9.340050   -2.467666   -0.279151
     77          1           0       -5.731890   -1.080144    0.282810
     78          1           0       -7.331056   -1.321843    0.722323
     79          1           0       -6.944065   -1.664547   -0.790056
     80          1           0       -6.586663    2.368871   -0.658022
     81          1           0        7.078531   -4.000540    1.332598
     82          1           0        6.577466   -3.994527   -0.440158
     83          1           0        8.341052   -3.997254   -0.033939
     84          1           0        6.564912   -0.142204   -0.705026
     85          1           0       -4.237115    0.363330   -0.243292
     86          1           0        4.525576   -2.552580    0.299147
     87          1           0       -4.654783    3.349810   -0.796185
     88          1           0        4.312248    0.421766   -0.473136
     89          1           0       -1.119478    3.913927   -1.593300
     90          1           0       -1.389871    4.480344    0.163222
     91          1           0       -2.695970    4.639191   -0.950362
     92          1           0       -2.173065    0.446635   -0.091784
     93          1           0        2.082197    1.061666   -0.761504
     94          1           0        2.344500   -2.675046    0.984151
     95          1           0        0.971709   -2.184551   -0.245749
     96          1           0        2.344341   -3.170224   -0.572013
     97          1           0        0.406591    2.322916   -1.143617
     98          1           0       -0.215575   -0.664877    0.044286
 ---------------------------------------------------------------------

 SCF Done:  E(RCAM-B3LYP) =  -1706.86405941     A.U. after   15 cycles

 Excitation energies and oscillator strengths:

 Excited State   1:      Singlet-A      1.9405 eV  638.93 nm  f=2.7958  <S**2>=0.000
     155 ->158        -0.13669
     156 ->157         0.69929
     156 <-157        -0.11315
 This state for optimization and/or second-order correction.
 Total Energy, E(TD-HF/TD-DFT) =  -1706.79274762
 Copying the excited state density for this state as the 1-particle RhoCI density.

 The electronic state is 1-A.
 Alpha  occ. eigenvalues --  -19.21242 -19.20198 -10.30310 -10.30001 -10.29031
 Alpha  occ. eigenvalues --  -10.28837 -10.28400 -10.28372 -10.28227 -10.27268
 Alpha  occ. eigenvalues --  -10.27138 -10.27056 -10.26989 -10.26975 -10.26954
 Alpha  occ. eigenvalues --  -10.26923 -10.26843 -10.26837 -10.26826 -10.26815
 Alpha  occ. eigenvalues --  -10.26788 -10.26674 -10.26671 -10.26591 -10.26392
 Alpha  occ. eigenvalues --  -10.26322 -10.26256 -10.26193 -10.26156 -10.25782
 Alpha  occ. eigenvalues --  -10.25703 -10.25386 -10.25266 -10.24972 -10.24957
 Alpha  occ. eigenvalues --  -10.24719 -10.24710 -10.24656 -10.24635 -10.23895
 Alpha  occ. eigenvalues --  -10.22699 -10.21046  -1.09385  -1.09108  -0.94553
 Alpha  occ. eigenvalues --   -0.94020  -0.92790  -0.91985  -0.90613  -0.89775
 Alpha  occ. eigenvalues --   -0.87587  -0.87135  -0.86973  -0.85911  -0.85312
 Alpha  occ. eigenvalues --   -0.83175  -0.82295  -0.80820  -0.80001  -0.78972
 Alpha  occ. eigenvalues --   -0.77205  -0.76833  -0.76247  -0.76165  -0.75812
 Alpha  occ. eigenvalues --   -0.74927  -0.74871  -0.74232  -0.72762  -0.70873
 Alpha  occ. eigenvalues --   -0.68915  -0.68127  -0.66033  -0.64848  -0.64191
 Alpha  occ. eigenvalues --   -0.63703  -0.63040  -0.62290  -0.60884  -0.60099
 Alpha  occ. eigenvalues --   -0.59471  -0.59303  -0.59075  -0.57861  -0.56203
 Alpha  occ. eigenvalues --   -0.55727  -0.54995  -0.54723  -0.54468  -0.53836
 Alpha  occ. eigenvalues --   -0.53728  -0.53366  -0.52830  -0.51832  -0.51147
 Alpha  occ. eigenvalues --   -0.50560  -0.50161  -0.49575  -0.49092  -0.48925
 Alpha  occ. eigenvalues --   -0.48692  -0.48602  -0.48457  -0.48217  -0.47833
 Alpha  occ. eigenvalues --   -0.47469  -0.47246  -0.46721  -0.46518  -0.46103
 Alpha  occ. eigenvalues --   -0.46072  -0.45745  -0.45438  -0.44990  -0.44607
 Alpha  occ. eigenvalues --   -0.44517  -0.44107  -0.43919  -0.43795  -0.43592
 Alpha  occ. eigenvalues --   -0.43384  -0.43075  -0.42714  -0.42500  -0.42136
 Alpha  occ. eigenvalues --   -0.41883  -0.41446  -0.41045  -0.40778  -0.40683
 Alpha  occ. eigenvalues --   -0.40512  -0.40186  -0.40053  -0.39835  -0.39463
 Alpha  occ. eigenvalues --   -0.38934  -0.38610  -0.37911  -0.37845  -0.37477
 Alpha  occ. eigenvalues --   -0.37339  -0.37131  -0.36419  -0.36047  -0.35744
 Alpha  occ. eigenvalues --   -0.35439  -0.34827  -0.33577  -0.32364  -0.31917
 Alpha  occ. eigenvalues --   -0.31531  -0.29891  -0.29066  -0.27245  -0.22990
 Alpha  occ. eigenvalues --   -0.18975
 Alpha virt. eigenvalues --   -0.06682  -0.01481   0.02855   0.05442   0.07220
 Alpha virt. eigenvalues --    0.08050   0.09922   0.10722   0.11386   0.12029
 Alpha virt. eigenvalues --    0.12733   0.13222   0.13316   0.13444   0.13702

 Mulliken charges:
               1
     1  O   -0.526784
     2  O   -0.553956
     3  C    0.014617
     4  C   -0.085718
     5  C   -0.191810
     6  C    0.116318
     7  C    0.111840
     8  C   -0.014055
     9  C   -0.305043
    10  C   -0.243155
    11  C   -0.174795
    12  C   -0.165689
    13  C    0.161289
    14  C    0.070139
    15  C   -0.085564
    16  C   -0.254898
    17  C    0.102096
    18  C   -0.305979
    19  C   -0.288535
    20  C   -0.350245
    21  C   -0.078092
    22  C   -0.147172
    23  C   -0.375788
    24  C    0.119089
    25  C   -0.070872
    26  C   -0.390460
    27  C    0.070706
    28  C   -0.134122
    29  C   -0.364074
    30  C   -0.132144
    31  C   -0.055395
    32  C   -0.095381
    33  C   -0.124414
    34  C    0.060456
    35  C   -0.122121
    36  C    0.133081
    37  C   -0.327534
    38  C   -0.128395
    39  C   -0.076545
    40  C   -0.394605
    41  C   -0.089221
    42  C   -0.097698
    43  H    0.081608
    44  H    0.103446
    45  H    0.091419
    46  H    0.085377
    47  H    0.087152
    48  H    0.095555
    49  H    0.102887
    50  H    0.105531
    51  H    0.100729
    52  H    0.064736
    53  H    0.106217
    54  H    0.045677
    55  H    0.088826
    56  H    0.089061
    57  H    0.097854
    58  H    0.107689
    59  H    0.124141
    60  H    0.102058
    61  H    0.099409
    62  H    0.095076
    63  H    0.078445
    64  H    0.095466
    65  H    0.097205
    66  H    0.090417
    67  H    0.112894
    68  H    0.097780
    69  H    0.295269
    70  H    0.079636
    71  H    0.087172
    72  H    0.112088
    73  H    0.132779
    74  H    0.103051
    75  H    0.296950
    76  H    0.066207
    77  H    0.116671
    78  H    0.101429
    79  H    0.121368
    80  H    0.060090
    81  H    0.122305
    82  H    0.129230
    83  H    0.101827
    84  H    0.095625
    85  H    0.063148
    86  H    0.090398
    87  H    0.066517
    88  H    0.079858
    89  H    0.111101
    90  H    0.098864
    91  H    0.121443
    92  H    0.084695
    93  H    0.067175
    94  H    0.138181
    95  H    0.089365
    96  H    0.125641
    97  H    0.089757
    98  H    0.096132
 Sum of Mulliken charges =  -0.00000

 Dipole moment (field-independent basis, Debye):
    X=              0.0555    Y=             -1.5526    Z=             -0.2747  Tot=              1.5777
 Quadrupole moment (field-independent basis, Debye-Ang):
   XX=           -301.3087   YY=           -242.2705   ZZ=           -262.0337
   XY=              7.6028   XZ=             31.5601   YZ=              0.7949

 Normal termination of Gaussian 16 at Mon Jul 15 20:52:13 2019.
