 Gaussian 16, Revision A.03,
 Gaussian 16:  ES64L-G16RevA.03 25-Dec-2016

 -------------------------------------
 # td=(NStates=1) CAM-B3LYP/6-31G(d,p)
 -------------------------------------

 --
 TD
 --
 Symbolic Z-matrix:
 Charge =  0 Multiplicity = 1

                         Standard orientation:
 ---------------------------------------------------------------------
 Center     Atomic      Atomic             Coordinates (Angstroms)
 Number     Number       Type             X           Y           Z
 ---------------------------------------------------------------------
      1          8           0      -14.126898   -2.055581    0.485873
      2          8           0       14.900287    0.777430    0.288626
      3          6           0      -11.848250    0.129821    1.244216
      4          6           0      -10.999871    0.318054   -0.087526
      5          6           0      -12.028019   -1.380732    1.465484
      6          6           0      -12.716122   -2.137707    0.321038
      7          6           0      -11.514608   -0.503926   -1.250198
      8          6           0       11.116667    1.031549    0.964941
      9          6           0      -11.071915    0.577852    2.412660
     10          6           0      -13.234368    0.845223    1.151996
     11          6           0       12.604403    1.569450    0.751020
     12          6           0      -12.296287   -1.590502   -0.988350
     13          6           0       13.520970    0.380553    0.378061
     14          6           0       10.683052   -0.030699   -0.072686
     15          6           0       -9.568627   -0.002884    0.028167
     16          6           0       13.152989   -0.356386   -0.949763
     17          6           0       11.615240   -0.679741   -0.851550
     18          6           0       10.212182    2.254743    0.833725
     19          6           0       10.922209    0.547436    2.343310
     20          6           0      -11.228503    0.005129   -2.567159
     21          6           0       -8.541555    0.793153   -0.214386
     22          6           0        9.261755   -0.407593   -0.003587
     23          6           0       11.361547   -1.665406   -1.947907
     24          6           0       -7.075914    0.541503   -0.133237
     25          6           0        8.777450   -1.656493   -0.002504
     26          6           0       -6.626624   -0.852497    0.217193
     27          6           0        7.369316   -2.030535   -0.012008
     28          6           0       -6.228078    1.517567   -0.467674
     29          6           0        7.182641   -3.459575    0.274339
     30          6           0        6.378615   -1.181343   -0.191294
     31          6           0       -4.809264    1.491395   -0.413057
     32          6           0        4.948570   -1.536312   -0.138592
     33          6           0       -4.021708    2.678054   -0.569137
     34          6           0       -2.610053    2.663053   -0.679135
     35          6           0        3.997844   -0.580761   -0.412494
     36          6           0        2.581548   -0.802588   -0.128219
     37          6           0       -1.895389    3.980431   -0.839885
     38          6           0       -1.819974    1.575002   -0.500886
     39          6           0        1.688221    0.300921   -0.434906
     40          6           0        2.124973   -2.173820    0.311356
     41          6           0       -0.403215    1.396628   -0.569857
     42          6           0        0.333374    0.304981   -0.263298
     43          1           0      -11.096738    1.375126   -0.546258
     44          1           0      -12.527932   -1.652535    2.391118
     45          1           0      -10.950619   -1.959156    1.531301
     46          1           0      -12.410511   -3.211987    0.355601
     47          1           0      -10.081682    0.024017    2.646390
     48          1           0      -10.777523    1.668042    2.475454
     49          1           0      -11.831002    0.244835    3.263357
     50          1           0      -13.973732    0.643700    0.317652
     51          1           0      -13.738405    0.414154    1.962032
     52          1           0      -13.105093    1.944374    1.182777
     53          1           0       12.458147    2.340704   -0.052021
     54          1           0       12.833513    2.241717    1.645725
     55          1           0      -12.877193   -2.049793   -1.888269
     56          1           0       13.554061   -0.351759    1.168127
     57          1           0       -9.313664   -1.003751    0.347357
     58          1           0       13.735790   -1.246276   -1.229760
     59          1           0       13.292500    0.419862   -1.799914
     60          1           0        9.315174    2.115900    1.356794
     61          1           0       10.010205    2.447531   -0.232057
     62          1           0       10.631154    3.091906    1.214846
     63          1           0       11.785758   -0.148839    2.566719
     64          1           0        9.713786    0.117714    2.388840
     65          1           0       11.078208    1.207746    3.126447
     66          1           0      -10.160382   -0.226866   -2.593190
     67          1           0      -11.639265    0.951186   -2.791781
     68          1           0      -11.692786   -0.638317   -3.260747
     69          1           0      -14.477423   -2.359554   -0.317711
     70          1           0        8.601087    0.610479    0.112069
     71          1           0       -8.760656    1.808822   -0.499612
     72          1           0       11.707015   -2.592552   -1.875540
     73          1           0       10.204731   -2.093135   -2.164074
     74          1           0       11.642174   -1.232679   -2.853725
     75          1           0       15.183932    1.404157    0.960476
     76          1           0        9.455794   -2.723760    0.315019
     77          1           0       -5.590524   -0.961994    0.224254
     78          1           0       -7.040179   -1.300174    1.093678
     79          1           0       -6.776026   -1.622494   -0.440986
     80          1           0       -6.539719    2.611055   -0.700744
     81          1           0        6.443037   -3.570302    1.192287
     82          1           0        6.589079   -3.959012   -0.416306
     83          1           0        8.081622   -4.071649    0.712967
     84          1           0        6.664387   -0.087796   -0.148488
     85          1           0       -4.320791    0.417862   -0.214430
     86          1           0        4.614322   -2.590240   -0.007767
     87          1           0       -4.582538    3.638001   -0.700253
     88          1           0        4.146168    0.533140   -0.879197
     89          1           0       -1.229717    3.904505   -1.783702
     90          1           0       -1.099836    4.085254   -0.077381
     91          1           0       -2.556802    4.822708   -0.893130
     92          1           0       -2.375935    0.463016   -0.107815
     93          1           0        2.118591    1.043038   -0.882291
     94          1           0        2.757562   -2.709941    1.148600
     95          1           0        0.939883   -2.045907    0.674033
     96          1           0        2.112346   -2.847786   -0.807699
     97          1           0        0.010934    2.284456   -0.514513
     98          1           0       -0.112723   -0.629526    0.060176
 ---------------------------------------------------------------------

 SCF Done:  E(RCAM-B3LYP) =  -1706.96154364     A.U. after   15 cycles

 Excitation energies and oscillator strengths:

 Excited State   1:      Singlet-A      2.2028 eV  562.85 nm  f=2.8397  <S**2>=0.000
     155 ->158        -0.14760
     156 ->157         0.69187
 This state for optimization and/or second-order correction.
 Total Energy, E(TD-HF/TD-DFT) =  -1706.88059260
 Copying the excited state density for this state as the 1-particle RhoCI density.

 The electronic state is 1-A.
 Alpha  occ. eigenvalues --  -19.20722 -19.19608 -10.30901 -10.30370 -10.30044
 Alpha  occ. eigenvalues --  -10.28272 -10.27676 -10.27612 -10.27597 -10.27557
 Alpha  occ. eigenvalues --  -10.27360 -10.27316 -10.27300 -10.27163 -10.27055
 Alpha  occ. eigenvalues --  -10.27020 -10.26894 -10.26873 -10.26813 -10.26612
 Alpha  occ. eigenvalues --  -10.26563 -10.26399 -10.26363 -10.26324 -10.26045
 Alpha  occ. eigenvalues --  -10.25951 -10.25937 -10.25907 -10.25878 -10.25491
 Alpha  occ. eigenvalues --  -10.25455 -10.25354 -10.25256 -10.25190 -10.25183
 Alpha  occ. eigenvalues --  -10.25128 -10.24934 -10.24140 -10.24062 -10.24038
 Alpha  occ. eigenvalues --  -10.23944 -10.23057  -1.10301  -1.07705  -0.93937
 Alpha  occ. eigenvalues --   -0.93224  -0.92143  -0.91438  -0.90892  -0.89879
 Alpha  occ. eigenvalues --   -0.88009  -0.87302  -0.86989  -0.85415  -0.84323
 Alpha  occ. eigenvalues --   -0.82839  -0.81792  -0.81180  -0.80106  -0.78046
 Alpha  occ. eigenvalues --   -0.77572  -0.76674  -0.76296  -0.76148  -0.75514
 Alpha  occ. eigenvalues --   -0.75108  -0.74796  -0.74239  -0.72898  -0.70505
 Alpha  occ. eigenvalues --   -0.68709  -0.67433  -0.66666  -0.65271  -0.64208
 Alpha  occ. eigenvalues --   -0.62889  -0.62754  -0.62470  -0.59928  -0.59386
 Alpha  occ. eigenvalues --   -0.58524  -0.58385  -0.57329  -0.56799  -0.56175
 Alpha  occ. eigenvalues --   -0.55847  -0.54589  -0.54467  -0.54110  -0.53832
 Alpha  occ. eigenvalues --   -0.53742  -0.53524  -0.52554  -0.52401  -0.51228
 Alpha  occ. eigenvalues --   -0.50927  -0.50066  -0.49927  -0.49576  -0.49140
 Alpha  occ. eigenvalues --   -0.48983  -0.48582  -0.48374  -0.48211  -0.48083
 Alpha  occ. eigenvalues --   -0.47289  -0.47142  -0.46977  -0.46794  -0.46551
 Alpha  occ. eigenvalues --   -0.46179  -0.46005  -0.45248  -0.45124  -0.44840
 Alpha  occ. eigenvalues --   -0.44483  -0.44127  -0.43796  -0.43716  -0.43670
 Alpha  occ. eigenvalues --   -0.43570  -0.43195  -0.42591  -0.42527  -0.41758
 Alpha  occ. eigenvalues --   -0.41548  -0.41306  -0.40859  -0.40477  -0.40434
 Alpha  occ. eigenvalues --   -0.40124  -0.40067  -0.39649  -0.39617  -0.39107
 Alpha  occ. eigenvalues --   -0.38928  -0.38407  -0.38237  -0.37449  -0.37075
 Alpha  occ. eigenvalues --   -0.36846  -0.36622  -0.36533  -0.36217  -0.35714
 Alpha  occ. eigenvalues --   -0.34731  -0.34444  -0.33602  -0.32461  -0.31385
 Alpha  occ. eigenvalues --   -0.31285  -0.29634  -0.28676  -0.26829  -0.23985
 Alpha  occ. eigenvalues --   -0.19593
 Alpha virt. eigenvalues --   -0.05667  -0.00766   0.02512   0.05887   0.07378
 Alpha virt. eigenvalues --    0.08872   0.10162   0.10891   0.11227   0.11559
 Alpha virt. eigenvalues --    0.12174   0.12820   0.12878   0.13543   0.13670

 Mulliken charges:
               1
     1  O   -0.536234
     2  O   -0.591128
     3  C    0.036004
     4  C   -0.140060
     5  C   -0.189265
     6  C    0.151800
     7  C    0.099233
     8  C   -0.018355
     9  C   -0.281559
    10  C   -0.295287
    11  C   -0.223137
    12  C   -0.148566
    13  C    0.199309
    14  C    0.077306
    15  C   -0.071048
    16  C   -0.216009
    17  C    0.026415
    18  C   -0.319231
    19  C   -0.270198
    20  C   -0.349364
    21  C   -0.089918
    22  C   -0.130729
    23  C   -0.359154
    24  C    0.118050
    25  C   -0.100034
    26  C   -0.386635
    27  C    0.148498
    28  C   -0.130617
    29  C   -0.396518
    30  C   -0.122079
    31  C   -0.055808
    32  C   -0.127901
    33  C   -0.153081
    34  C    0.122986
    35  C   -0.093386
    36  C    0.099141
    37  C   -0.387371
    38  C   -0.117100
    39  C   -0.088873
    40  C   -0.349033
    41  C   -0.083312
    42  C   -0.060257
    43  H    0.078476
    44  H    0.111594
    45  H    0.069624
    46  H    0.077629
    47  H    0.100477
    48  H    0.095306
    49  H    0.077722
    50  H    0.112179
    51  H    0.114831
    52  H    0.093299
    53  H    0.102414
    54  H    0.086462
    55  H    0.046178
    56  H    0.091331
    57  H    0.080028
    58  H    0.123575
    59  H    0.114673
    60  H    0.103058
    61  H    0.101946
    62  H    0.103469
    63  H    0.085208
    64  H    0.079142
    65  H    0.105372
    66  H    0.133129
    67  H    0.123733
    68  H    0.110094
    69  H    0.297136
    70  H    0.093760
    71  H    0.067455
    72  H    0.128793
    73  H    0.074700
    74  H    0.121445
    75  H    0.299587
    76  H    0.073535
    77  H    0.106400
    78  H    0.120976
    79  H    0.130044
    80  H    0.078290
    81  H    0.098746
    82  H    0.135594
    83  H    0.106542
    84  H    0.080676
    85  H    0.085874
    86  H    0.098077
    87  H    0.088836
    88  H    0.082319
    89  H    0.114699
    90  H    0.129039
    91  H    0.111636
    92  H    0.033232
    93  H    0.064718
    94  H    0.120538
    95  H    0.090500
    96  H    0.097895
    97  H    0.072180
    98  H    0.078331
 Sum of Mulliken charges =  -0.00000

 Dipole moment (field-independent basis, Debye):
    X=             -0.0005    Y=              0.0389    Z=             -0.0865  Tot=              0.0948
 Quadrupole moment (field-independent basis, Debye-Ang):
   XX=           -283.0678   YY=           -240.1024   ZZ=           -263.2848
   XY=             10.0300   XZ=             34.9420   YZ=              1.4749

 Normal termination of Gaussian 16 at Tue Jul 16 08:26:07 2019.
