 Gaussian 16, Revision A.03,
 Gaussian 16:  ES64L-G16RevA.03 25-Dec-2016

 -------------------------------------
 # td=(NStates=1) CAM-B3LYP/6-31G(d,p)
 -------------------------------------

 --
 TD
 --
 Symbolic Z-matrix:
 Charge =  0 Multiplicity = 1

                         Standard orientation:
 ---------------------------------------------------------------------
 Center     Atomic      Atomic             Coordinates (Angstroms)
 Number     Number       Type             X           Y           Z
 ---------------------------------------------------------------------
      1          8           0      -14.046187   -2.244859    0.014819
      2          8           0       14.762508    0.731962   -0.058981
      3          6           0      -11.824833   -0.148461    1.349459
      4          6           0      -10.959967    0.314201    0.073250
      5          6           0      -11.998010   -1.628737    1.237670
      6          6           0      -12.662035   -2.204386   -0.097237
      7          6           0      -11.428605   -0.337346   -1.257703
      8          6           0       11.166900    0.955704    0.991647
      9          6           0      -11.134374    0.286034    2.686692
     10          6           0      -13.128923    0.621354    1.179778
     11          6           0       12.542987    1.458237    0.660955
     12          6           0      -12.070276   -1.525018   -1.233935
     13          6           0       13.467696    0.328571    0.269701
     14          6           0       10.641466   -0.029468   -0.083574
     15          6           0       -9.555041   -0.066316    0.164467
     16          6           0       13.043488   -0.411775   -0.998292
     17          6           0       11.464574   -0.618483   -0.926562
     18          6           0       10.250152    2.177560    1.125570
     19          6           0       11.208473    0.344196    2.373479
     20          6           0      -11.217946    0.394312   -2.503319
     21          6           0       -8.592920    0.880071    0.160205
     22          6           0        9.277151   -0.364399    0.098065
     23          6           0       11.056221   -1.605024   -2.031237
     24          6           0       -7.154480    0.594357    0.088958
     25          6           0        8.773794   -1.619186    0.083916
     26          6           0       -6.548396   -0.834775    0.048716
     27          6           0        7.416449   -2.081015    0.072439
     28          6           0       -6.285353    1.600633   -0.069024
     29          6           0        6.978574   -3.521453    0.377704
     30          6           0        6.332777   -1.225022   -0.240653
     31          6           0       -4.815745    1.476405   -0.384684
     32          6           0        4.932375   -1.498706   -0.075723
     33          6           0       -4.098815    2.637342   -0.563879
     34          6           0       -2.623551    2.733927   -0.595475
     35          6           0        3.996233   -0.527248   -0.457989
     36          6           0        2.624597   -0.668787   -0.280438
     37          6           0       -2.097852    4.055580   -1.032476
     38          6           0       -1.787935    1.683425   -0.237888
     39          6           0        1.770119    0.430514   -0.506712
     40          6           0        2.167058   -1.923707    0.029506
     41          6           0       -0.421744    1.524822   -0.439463
     42          6           0        0.375208    0.499895   -0.138151
     43          1           0      -10.817096    1.336493    0.234874
     44          1           0      -12.588416   -1.776867    2.097048
     45          1           0      -10.997602   -1.998559    1.467490
     46          1           0      -12.320891   -3.274197   -0.081315
     47          1           0      -10.351120   -0.393252    2.770832
     48          1           0      -10.760656    1.239833    2.703098
     49          1           0      -11.818489    0.116469    3.573897
     50          1           0      -13.501210    0.265889    0.181401
     51          1           0      -13.992547    0.317844    2.074027
     52          1           0      -13.091837    1.829279    1.408796
     53          1           0       12.635340    2.177185   -0.146125
     54          1           0       12.956261    1.838539    1.588742
     55          1           0      -12.363880   -1.876544   -2.287583
     56          1           0       13.242052   -0.508583    1.065487
     57          1           0       -9.116118   -1.151862    0.464591
     58          1           0       13.681853   -1.011035   -1.289617
     59          1           0       13.281765    0.195847   -1.826455
     60          1           0        9.380089    1.929287    1.680240
     61          1           0        9.990704    2.765424    0.179693
     62          1           0       10.642009    2.844160    1.710942
     63          1           0       11.808367   -0.717946    2.364866
     64          1           0       10.293800    0.095497    2.930826
     65          1           0       11.675466    0.949806    3.179826
     66          1           0      -10.061880    0.523289   -2.707310
     67          1           0      -11.672494    1.402615   -2.393668
     68          1           0      -11.476748   -0.114777   -3.337840
     69          1           0      -14.395225   -2.655123   -0.792266
     70          1           0        8.440900    0.461389    0.081019
     71          1           0       -8.910962    1.808613   -0.067180
     72          1           0       11.207333   -2.643831   -1.712234
     73          1           0        9.880265   -1.582491   -2.051986
     74          1           0       11.536045   -1.334479   -3.004580
     75          1           0       15.282031    1.106138    0.714128
     76          1           0        9.631631   -2.648159    0.172981
     77          1           0       -5.388241   -0.896347    0.104610
     78          1           0       -6.918953   -1.483301    0.907512
     79          1           0       -7.002806   -1.692133   -0.588879
     80          1           0       -6.760313    2.637059    0.005484
     81          1           0        6.757020   -3.520122    1.444894
     82          1           0        6.342860   -3.882598   -0.322845
     83          1           0        8.043284   -4.002997    0.356793
     84          1           0        6.619193   -0.207808   -0.488713
     85          1           0       -4.319051    0.584595   -0.187906
     86          1           0        4.553624   -2.488431    0.200717
     87          1           0       -4.644658    3.503554   -0.788302
     88          1           0        4.469199    0.431526   -0.888327
     89          1           0       -1.480611    4.170499   -2.091949
     90          1           0       -1.259402    4.434018   -0.224981
     91          1           0       -2.799614    4.768725   -1.101969
     92          1           0       -2.201679    0.860211    0.524980
     93          1           0        2.438084    1.235849   -0.852935
     94          1           0        2.301837   -1.987517    1.231681
     95          1           0        1.047378   -2.155019   -0.262546
     96          1           0        2.819156   -2.832648   -0.406047
     97          1           0       -0.089159    2.521329   -0.800154
     98          1           0       -0.063387   -0.358143    0.128984
 ---------------------------------------------------------------------

 SCF Done:  E(RCAM-B3LYP) =  -1706.92327508     A.U. after   15 cycles

 Excitation energies and oscillator strengths:

 Excited State   1:      Singlet-A      2.2755 eV  544.88 nm  f=2.8780  <S**2>=0.000
     155 ->158        -0.15904
     156 ->157         0.68752
 This state for optimization and/or second-order correction.
 Total Energy, E(TD-HF/TD-DFT) =  -1706.83965383
 Copying the excited state density for this state as the 1-particle RhoCI density.

 The electronic state is 1-A.
 Alpha  occ. eigenvalues --  -19.21928 -19.21773 -10.31359 -10.29749 -10.28193
 Alpha  occ. eigenvalues --  -10.28008 -10.27844 -10.27660 -10.27398 -10.27348
 Alpha  occ. eigenvalues --  -10.27148 -10.27043 -10.26924 -10.26762 -10.26708
 Alpha  occ. eigenvalues --  -10.26667 -10.26626 -10.26615 -10.26614 -10.26594
 Alpha  occ. eigenvalues --  -10.26512 -10.26489 -10.26365 -10.26295 -10.26266
 Alpha  occ. eigenvalues --  -10.26173 -10.26084 -10.25979 -10.25839 -10.25768
 Alpha  occ. eigenvalues --  -10.25564 -10.25512 -10.25486 -10.25208 -10.25188
 Alpha  occ. eigenvalues --  -10.25067 -10.24983 -10.24311 -10.23701 -10.23505
 Alpha  occ. eigenvalues --  -10.22885 -10.22572  -1.10967  -1.09419  -0.94226
 Alpha  occ. eigenvalues --   -0.93770  -0.93059  -0.91463  -0.90289  -0.89795
 Alpha  occ. eigenvalues --   -0.87668  -0.87584  -0.86897  -0.85677  -0.85086
 Alpha  occ. eigenvalues --   -0.82872  -0.82057  -0.80811  -0.79705  -0.78485
 Alpha  occ. eigenvalues --   -0.77419  -0.76619  -0.75767  -0.75700  -0.75643
 Alpha  occ. eigenvalues --   -0.75637  -0.75152  -0.74108  -0.73068  -0.70031
 Alpha  occ. eigenvalues --   -0.69268  -0.68139  -0.66481  -0.65689  -0.64039
 Alpha  occ. eigenvalues --   -0.62761  -0.62645  -0.62390  -0.60346  -0.59914
 Alpha  occ. eigenvalues --   -0.59492  -0.58852  -0.58583  -0.57336  -0.56749
 Alpha  occ. eigenvalues --   -0.55784  -0.55576  -0.54957  -0.54131  -0.53910
 Alpha  occ. eigenvalues --   -0.53307  -0.53108  -0.52445  -0.52072  -0.51331
 Alpha  occ. eigenvalues --   -0.51020  -0.50639  -0.50389  -0.49591  -0.48971
 Alpha  occ. eigenvalues --   -0.48841  -0.48581  -0.48404  -0.47962  -0.47842
 Alpha  occ. eigenvalues --   -0.47325  -0.47014  -0.46853  -0.46156  -0.46129
 Alpha  occ. eigenvalues --   -0.45784  -0.45735  -0.45552  -0.45142  -0.44955
 Alpha  occ. eigenvalues --   -0.44478  -0.44334  -0.44142  -0.43990  -0.43450
 Alpha  occ. eigenvalues --   -0.43383  -0.42950  -0.42503  -0.41944  -0.41855
 Alpha  occ. eigenvalues --   -0.41755  -0.41105  -0.40982  -0.40774  -0.40532
 Alpha  occ. eigenvalues --   -0.40423  -0.40024  -0.39649  -0.39597  -0.39339
 Alpha  occ. eigenvalues --   -0.38719  -0.38326  -0.38117  -0.37667  -0.37608
 Alpha  occ. eigenvalues --   -0.37131  -0.36836  -0.36590  -0.35843  -0.35321
 Alpha  occ. eigenvalues --   -0.35050  -0.33428  -0.33055  -0.32839  -0.31508
 Alpha  occ. eigenvalues --   -0.30964  -0.29438  -0.29120  -0.26982  -0.23930
 Alpha  occ. eigenvalues --   -0.19916
 Alpha virt. eigenvalues --   -0.05618  -0.00938   0.02687   0.05110   0.06941
 Alpha virt. eigenvalues --    0.09222   0.10864   0.10945   0.11732   0.12392
 Alpha virt. eigenvalues --    0.12631   0.12977   0.13430   0.13618   0.13732

 Mulliken charges:
               1
     1  O   -0.529605
     2  O   -0.569857
     3  C   -0.000189
     4  C   -0.150759
     5  C   -0.173538
     6  C    0.138605
     7  C    0.138071
     8  C   -0.019575
     9  C   -0.305192
    10  C   -0.261713
    11  C   -0.162582
    12  C   -0.137661
    13  C    0.166486
    14  C    0.091085
    15  C   -0.061646
    16  C   -0.179316
    17  C    0.029356
    18  C   -0.302371
    19  C   -0.310846
    20  C   -0.352576
    21  C   -0.105310
    22  C   -0.134001
    23  C   -0.361279
    24  C    0.155673
    25  C   -0.086994
    26  C   -0.386464
    27  C    0.048750
    28  C   -0.166881
    29  C   -0.353094
    30  C   -0.109638
    31  C   -0.054955
    32  C   -0.089910
    33  C   -0.112395
    34  C    0.101357
    35  C   -0.129922
    36  C    0.171922
    37  C   -0.367998
    38  C   -0.138530
    39  C   -0.117210
    40  C   -0.398776
    41  C   -0.042714
    42  C   -0.092807
    43  H    0.096256
    44  H    0.108331
    45  H    0.095354
    46  H    0.075247
    47  H    0.104297
    48  H    0.110642
    49  H    0.096514
    50  H    0.115006
    51  H    0.057034
    52  H    0.071891
    53  H    0.099599
    54  H    0.077435
    55  H    0.057976
    56  H    0.057336
    57  H    0.068057
    58  H    0.101032
    59  H    0.105560
    60  H    0.102293
    61  H    0.092605
    62  H    0.105797
    63  H    0.084104
    64  H    0.110186
    65  H    0.099222
    66  H    0.104275
    67  H    0.123598
    68  H    0.119583
    69  H    0.307607
    70  H    0.094006
    71  H    0.078990
    72  H    0.118017
    73  H    0.105409
    74  H    0.104726
    75  H    0.304306
    76  H    0.045596
    77  H    0.111087
    78  H    0.103318
    79  H    0.112168
    80  H    0.076748
    81  H    0.135227
    82  H    0.134376
    83  H    0.087965
    84  H    0.069561
    85  H    0.088023
    86  H    0.089124
    87  H    0.083143
    88  H    0.084660
    89  H    0.101322
    90  H    0.102088
    91  H    0.123869
    92  H    0.068306
    93  H    0.078169
    94  H    0.109189
    95  H    0.105759
    96  H    0.106305
    97  H    0.077179
    98  H    0.079534
 Sum of Mulliken charges =  -0.00000

 Dipole moment (field-independent basis, Debye):
    X=             -0.6533    Y=              0.0722    Z=              0.1310  Tot=              0.6702
 Quadrupole moment (field-independent basis, Debye-Ang):
   XX=           -269.1580   YY=           -243.8014   ZZ=           -259.7657
   XY=              9.5920   XZ=             39.1911   YZ=              2.0769

 Normal termination of Gaussian 16 at Tue Jul 16 15:04:02 2019.
