 Gaussian 16, Revision A.03,
 Gaussian 16:  ES64L-G16RevA.03 25-Dec-2016

 -------------------------------------
 # td=(NStates=1) CAM-B3LYP/6-31G(d,p)
 -------------------------------------

 --
 TD
 --
 Symbolic Z-matrix:
 Charge =  0 Multiplicity = 1

                         Standard orientation:
 ---------------------------------------------------------------------
 Center     Atomic      Atomic             Coordinates (Angstroms)
 Number     Number       Type             X           Y           Z
 ---------------------------------------------------------------------
      1          8           0      -14.136679   -2.044526    0.500119
      2          8           0       14.747872    0.963051    0.279771
      3          6           0      -11.786608    0.121446    1.358101
      4          6           0      -11.026038    0.244803    0.059076
      5          6           0      -11.940614   -1.453249    1.492458
      6          6           0      -12.737994   -2.145796    0.316430
      7          6           0      -11.601118   -0.458367   -1.124808
      8          6           0       11.082686    1.000779    1.206122
      9          6           0      -11.035611    0.566432    2.554993
     10          6           0      -13.146148    0.829808    1.249954
     11          6           0       12.424607    1.526728    0.811225
     12          6           0      -12.269418   -1.558272   -1.009756
     13          6           0       13.433400    0.500690    0.394482
     14          6           0       10.697005   -0.028593    0.104530
     15          6           0       -9.497730    0.007820    0.082160
     16          6           0       12.948742   -0.186816   -0.880445
     17          6           0       11.484636   -0.563000   -0.856634
     18          6           0       10.175902    2.194284    1.181887
     19          6           0       11.037199    0.262263    2.527430
     20          6           0      -11.334208    0.129932   -2.511207
     21          6           0       -8.473675    0.849079   -0.254221
     22          6           0        9.291258   -0.595728    0.099009
     23          6           0       11.018887   -1.394097   -2.093336
     24          6           0       -7.117087    0.562070   -0.197048
     25          6           0        8.802044   -1.749718   -0.194416
     26          6           0       -6.623871   -0.867182    0.165113
     27          6           0        7.415499   -2.191138   -0.198853
     28          6           0       -6.254980    1.532087   -0.422217
     29          6           0        7.094774   -3.613418    0.105577
     30          6           0        6.411701   -1.272778   -0.413270
     31          6           0       -4.806999    1.478963   -0.386630
     32          6           0        5.073541   -1.564244   -0.302488
     33          6           0       -3.964121    2.548567   -0.665901
     34          6           0       -2.554524    2.725119   -0.691130
     35          6           0        4.058535   -0.612287   -0.338871
     36          6           0        2.638227   -0.808528   -0.247495
     37          6           0       -1.950163    4.012400   -1.280066
     38          6           0       -1.726630    1.563082   -0.436814
     39          6           0        1.804276    0.294733   -0.388870
     40          6           0        2.174593   -2.220388    0.073606
     41          6           0       -0.333013    1.447844   -0.541201
     42          6           0        0.413025    0.336410   -0.106976
     43          1           0      -10.940166    1.384608   -0.190272
     44          1           0      -12.403882   -1.714913    2.380006
     45          1           0      -10.905269   -1.812315    1.776596
     46          1           0      -12.375952   -3.298181    0.475950
     47          1           0      -10.091941   -0.004275    2.860419
     48          1           0      -10.794010    1.684691    2.435629
     49          1           0      -11.682841    0.383485    3.434670
     50          1           0      -13.649503    0.423438    0.458009
     51          1           0      -13.539748    0.608444    2.161169
     52          1           0      -13.040549    1.876590    1.228156
     53          1           0       12.272983    2.388008   -0.082870
     54          1           0       12.783398    1.996061    1.742224
     55          1           0      -12.653512   -2.004862   -1.915244
     56          1           0       13.431563   -0.265684    1.295585
     57          1           0       -9.239652   -1.115526   -0.058763
     58          1           0       13.440887   -1.159817   -1.110492
     59          1           0       13.168406    0.519723   -1.712883
     60          1           0        9.132730    2.221435    1.683248
     61          1           0       10.082967    2.589077    0.217304
     62          1           0       10.629573    3.087279    1.512318
     63          1           0       11.807090   -0.400649    2.694096
     64          1           0       10.008115   -0.224276    2.700261
     65          1           0       11.171165    1.018625    3.457380
     66          1           0      -10.291101    0.247731   -2.835724
     67          1           0      -11.790036    1.025119   -2.605541
     68          1           0      -11.589814   -0.593057   -3.452319
     69          1           0      -14.335208   -2.188389   -0.414144
     70          1           0        8.665481    0.182550    0.237681
     71          1           0       -8.951639    1.788412   -0.508502
     72          1           0       11.332412   -2.539619   -2.013864
     73          1           0       10.168082   -1.213248   -2.285439
     74          1           0       11.498259   -1.032884   -2.911817
     75          1           0       15.120881    1.839650    0.850062
     76          1           0        9.462218   -2.503009   -0.341662
     77          1           0       -5.487069   -0.777089    0.060834
     78          1           0       -6.733533   -1.139158    1.094204
     79          1           0       -7.162408   -1.604874   -0.562581
     80          1           0       -6.616844    2.429855   -0.677827
     81          1           0        6.487236   -3.724659    0.963681
     82          1           0        6.630204   -3.940008   -0.880267
     83          1           0        8.144044   -4.328319    0.502343
     84          1           0        6.493941   -0.287211   -0.273262
     85          1           0       -4.358812    0.579742   -0.327382
     86          1           0        4.785550   -2.781553   -0.334304
     87          1           0       -4.532159    3.285351   -0.791763
     88          1           0        4.446702    0.395594   -0.453065
     89          1           0       -1.656309    3.883214   -2.248863
     90          1           0       -0.926938    4.286750   -0.751841
     91          1           0       -2.762939    4.856328   -1.064394
     92          1           0       -2.116833    0.698192   -0.075067
     93          1           0        2.293383    1.087760   -0.610998
     94          1           0        2.909315   -2.682147    0.948329
     95          1           0        1.100961   -2.282168    0.511530
     96          1           0        2.229833   -2.844670   -0.965634
     97          1           0        0.367584    2.257327   -1.104831
     98          1           0       -0.125756   -0.621098    0.203833
 ---------------------------------------------------------------------

 SCF Done:  E(RCAM-B3LYP) =  -1706.88707771     A.U. after   15 cycles

 Excitation energies and oscillator strengths:

 Excited State   1:      Singlet-A      2.1458 eV  577.79 nm  f=2.9862  <S**2>=0.000
     155 ->158        -0.14170
     156 ->157         0.69481
 This state for optimization and/or second-order correction.
 Total Energy, E(TD-HF/TD-DFT) =  -1706.80821971
 Copying the excited state density for this state as the 1-particle RhoCI density.

 The electronic state is 1-A.
 Alpha  occ. eigenvalues --  -19.22040 -19.21614 -10.32082 -10.31131 -10.28385
 Alpha  occ. eigenvalues --  -10.28221 -10.27978 -10.27805 -10.27515 -10.27468
 Alpha  occ. eigenvalues --  -10.27421 -10.27351 -10.26958 -10.26947 -10.26876
 Alpha  occ. eigenvalues --  -10.26835 -10.26667 -10.26485 -10.26454 -10.26287
 Alpha  occ. eigenvalues --  -10.26035 -10.25996 -10.25848 -10.25801 -10.25780
 Alpha  occ. eigenvalues --  -10.25671 -10.25558 -10.25406 -10.25341 -10.25304
 Alpha  occ. eigenvalues --  -10.24903 -10.24866 -10.24777 -10.24674 -10.24621
 Alpha  occ. eigenvalues --  -10.24495 -10.24305 -10.24026 -10.23926 -10.23881
 Alpha  occ. eigenvalues --  -10.23621 -10.21473  -1.11484  -1.07383  -0.94211
 Alpha  occ. eigenvalues --   -0.94008  -0.92181  -0.92064  -0.90865  -0.89754
 Alpha  occ. eigenvalues --   -0.88057  -0.87675  -0.86851  -0.85508  -0.84257
 Alpha  occ. eigenvalues --   -0.82705  -0.81669  -0.80774  -0.80152  -0.78231
 Alpha  occ. eigenvalues --   -0.77863  -0.77279  -0.77182  -0.76687  -0.76220
 Alpha  occ. eigenvalues --   -0.75431  -0.75169  -0.74956  -0.72860  -0.70512
 Alpha  occ. eigenvalues --   -0.69143  -0.67240  -0.66316  -0.65432  -0.64549
 Alpha  occ. eigenvalues --   -0.63890  -0.63005  -0.62667  -0.61038  -0.59907
 Alpha  occ. eigenvalues --   -0.59703  -0.58626  -0.58101  -0.56938  -0.56719
 Alpha  occ. eigenvalues --   -0.56591  -0.55438  -0.54930  -0.54332  -0.53764
 Alpha  occ. eigenvalues --   -0.53234  -0.52781  -0.52506  -0.52388  -0.52001
 Alpha  occ. eigenvalues --   -0.51510  -0.50448  -0.50044  -0.49672  -0.49254
 Alpha  occ. eigenvalues --   -0.49112  -0.49071  -0.48576  -0.48243  -0.48079
 Alpha  occ. eigenvalues --   -0.47817  -0.47285  -0.47226  -0.46897  -0.46703
 Alpha  occ. eigenvalues --   -0.46152  -0.45809  -0.45479  -0.45136  -0.44457
 Alpha  occ. eigenvalues --   -0.44326  -0.44192  -0.43754  -0.43472  -0.43400
 Alpha  occ. eigenvalues --   -0.43010  -0.42841  -0.42673  -0.42626  -0.42176
 Alpha  occ. eigenvalues --   -0.41871  -0.41632  -0.41380  -0.41066  -0.40918
 Alpha  occ. eigenvalues --   -0.40740  -0.40379  -0.39657  -0.39519  -0.39360
 Alpha  occ. eigenvalues --   -0.39236  -0.38975  -0.38663  -0.38358  -0.38088
 Alpha  occ. eigenvalues --   -0.37720  -0.36794  -0.36441  -0.35794  -0.35573
 Alpha  occ. eigenvalues --   -0.35442  -0.35125  -0.34382  -0.32048  -0.31466
 Alpha  occ. eigenvalues --   -0.31248  -0.30842  -0.28854  -0.27035  -0.23727
 Alpha  occ. eigenvalues --   -0.19287
 Alpha virt. eigenvalues --   -0.05867  -0.00691   0.03008   0.05988   0.07322
 Alpha virt. eigenvalues --    0.08999   0.09119   0.11350   0.11619   0.12451
 Alpha virt. eigenvalues --    0.12709   0.13230   0.13724   0.13968   0.14054

 Mulliken charges:
               1
     1  O   -0.510341
     2  O   -0.595390
     3  C    0.011375
     4  C   -0.137596
     5  C   -0.194091
     6  C    0.128355
     7  C    0.158174
     8  C    0.035680
     9  C   -0.305664
    10  C   -0.272348
    11  C   -0.206638
    12  C   -0.166317
    13  C    0.226759
    14  C    0.036337
    15  C   -0.094536
    16  C   -0.218388
    17  C    0.016823
    18  C   -0.324010
    19  C   -0.297817
    20  C   -0.365301
    21  C   -0.095438
    22  C   -0.095617
    23  C   -0.312747
    24  C    0.112442
    25  C   -0.080583
    26  C   -0.347785
    27  C    0.060399
    28  C   -0.102149
    29  C   -0.354598
    30  C   -0.094181
    31  C   -0.078526
    32  C   -0.075077
    33  C   -0.081179
    34  C    0.073804
    35  C   -0.147854
    36  C    0.116736
    37  C   -0.359609
    38  C   -0.108794
    39  C   -0.087734
    40  C   -0.355968
    41  C   -0.083033
    42  C   -0.092479
    43  H    0.060925
    44  H    0.101450
    45  H    0.094229
    46  H    0.058229
    47  H    0.100501
    48  H    0.087619
    49  H    0.098119
    50  H    0.114140
    51  H    0.107462
    52  H    0.091995
    53  H    0.068591
    54  H    0.083064
    55  H    0.074765
    56  H    0.055238
    57  H    0.063642
    58  H    0.106006
    59  H    0.108987
    60  H    0.096688
    61  H    0.112158
    62  H    0.107507
    63  H    0.120403
    64  H    0.112196
    65  H    0.070630
    66  H    0.124244
    67  H    0.131494
    68  H    0.084521
    69  H    0.307234
    70  H    0.071424
    71  H    0.076163
    72  H    0.096977
    73  H    0.122943
    74  H    0.110558
    75  H    0.317496
    76  H    0.071145
    77  H    0.093412
    78  H    0.139088
    79  H    0.108228
    80  H    0.070500
    81  H    0.144950
    82  H    0.132999
    83  H    0.068796
    84  H    0.076800
    85  H    0.070153
    86  H    0.061446
    87  H    0.043545
    88  H    0.077765
    89  H    0.146918
    90  H    0.105231
    91  H    0.101214
    92  H    0.078540
    93  H    0.062938
    94  H    0.101782
    95  H    0.101662
    96  H    0.112674
    97  H    0.071806
    98  H    0.085714
 Sum of Mulliken charges =  -0.00000

 Dipole moment (field-independent basis, Debye):
    X=              2.0500    Y=              0.9043    Z=             -0.9591  Tot=              2.4373
 Quadrupole moment (field-independent basis, Debye-Ang):
   XX=           -283.3873   YY=           -244.8141   ZZ=           -257.9331
   XY=             11.9198   XZ=             31.5851   YZ=              0.8691

 Normal termination of Gaussian 16 at Mon Jul 15 07:29:03 2019.
