 Gaussian 16, Revision A.03,
 Gaussian 16:  ES64L-G16RevA.03 25-Dec-2016

 -------------------------------------
 # td=(NStates=1) CAM-B3LYP/6-31G(d,p)
 -------------------------------------

 --
 TD
 --
 Symbolic Z-matrix:
 Charge =  0 Multiplicity = 1

                         Standard orientation:
 ---------------------------------------------------------------------
 Center     Atomic      Atomic             Coordinates (Angstroms)
 Number     Number       Type             X           Y           Z
 ---------------------------------------------------------------------
      1          8           0      -14.172175   -2.011512    0.505826
      2          8           0       14.674320    0.891783    0.103925
      3          6           0      -11.773387    0.091303    1.234179
      4          6           0      -10.940674    0.211463   -0.142358
      5          6           0      -12.082588   -1.417396    1.466172
      6          6           0      -12.752283   -2.061501    0.249933
      7          6           0      -11.458149   -0.622544   -1.327127
      8          6           0       11.165968    0.938164    1.059871
      9          6           0      -11.193052    0.707624    2.410018
     10          6           0      -13.079046    0.946538    1.059383
     11          6           0       12.593197    1.505903    0.732018
     12          6           0      -12.283156   -1.654680   -1.084778
     13          6           0       13.396138    0.409507    0.389844
     14          6           0       10.648448    0.003714   -0.043639
     15          6           0       -9.491291   -0.091581    0.000731
     16          6           0       12.930726   -0.122821   -1.025693
     17          6           0       11.466745   -0.588618   -1.000462
     18          6           0       10.155865    2.172680    1.062187
     19          6           0       11.118672    0.266045    2.441855
     20          6           0      -11.178779    0.033731   -2.653676
     21          6           0       -8.408512    0.796881   -0.226282
     22          6           0        9.325728   -0.491645    0.200474
     23          6           0       11.076236   -1.273677   -2.294571
     24          6           0       -7.040297    0.544011   -0.094916
     25          6           0        8.860869   -1.776370   -0.091441
     26          6           0       -6.598331   -0.849379    0.415991
     27          6           0        7.481073   -2.159873    0.073662
     28          6           0       -6.169324    1.552705   -0.191177
     29          6           0        7.122787   -3.632791    0.094877
     30          6           0        6.471054   -1.253580   -0.123731
     31          6           0       -4.771095    1.487375   -0.266992
     32          6           0        5.025881   -1.658775   -0.134802
     33          6           0       -3.979531    2.589370   -0.554422
     34          6           0       -2.614128    2.699048   -0.616687
     35          6           0        3.976987   -0.627013   -0.084689
     36          6           0        2.631329   -0.744956   -0.082136
     37          6           0       -1.938202    4.017699   -1.117444
     38          6           0       -1.796314    1.538440   -0.389495
     39          6           0        1.777334    0.302966   -0.204938
     40          6           0        1.970450   -2.136460    0.219151
     41          6           0       -0.425009    1.481925   -0.563016
     42          6           0        0.370458    0.374025   -0.314350
     43          1           0      -10.922716    1.142945   -0.293230
     44          1           0      -12.739738   -1.683211    2.354496
     45          1           0      -11.024457   -1.755848    1.739187
     46          1           0      -12.329315   -3.340818    0.226549
     47          1           0      -10.266261    0.082147    2.721530
     48          1           0      -10.871380    1.837079    2.318023
     49          1           0      -11.840652    0.622505    3.383529
     50          1           0      -13.463475    0.799388   -0.034720
     51          1           0      -13.792011    0.654203    1.834440
     52          1           0      -12.820673    2.007679    1.028763
     53          1           0       12.616611    2.240570   -0.009351
     54          1           0       12.909031    1.972267    1.646381
     55          1           0      -12.834328   -2.255254   -1.952133
     56          1           0       13.206018   -0.280713    1.249057
     57          1           0       -9.267387   -1.283110    0.232688
     58          1           0       13.787219   -0.884842   -1.275592
     59          1           0       13.007800    0.748491   -1.670366
     60          1           0        9.151118    1.749508    1.283403
     61          1           0       10.380890    2.831485    0.304641
     62          1           0       10.388962    2.931130    1.738159
     63          1           0       11.648947   -0.696632    2.202308
     64          1           0        9.981906    0.222274    2.786287
     65          1           0       11.664942    1.047033    3.226815
     66          1           0      -10.132220    0.181202   -2.907320
     67          1           0      -11.762876    0.966862   -2.564591
     68          1           0      -11.621601   -0.447407   -3.533262
     69          1           0      -14.727720   -2.604704   -0.069011
     70          1           0        8.563808    0.282611    0.375872
     71          1           0       -8.698965    1.721671   -0.703766
     72          1           0       11.201039   -2.178736   -2.036665
     73          1           0        9.935647   -1.358901   -2.201382
     74          1           0       11.531819   -1.040651   -3.272166
     75          1           0       15.097881    1.093715    0.970205
     76          1           0        9.327490   -2.828011   -0.212646
     77          1           0       -5.657808   -1.063548    0.431097
     78          1           0       -6.879921   -1.034804    1.593075
     79          1           0       -7.040891   -1.468121   -0.188622
     80          1           0       -6.402287    2.509444   -0.442169
     81          1           0        6.349132   -3.980025    0.877666
     82          1           0        6.620362   -3.987673   -0.962498
     83          1           0        8.155770   -4.110913    0.184932
     84          1           0        6.723864   -0.286464   -0.208394
     85          1           0       -4.174331    0.609094   -0.135494
     86          1           0        4.877636   -2.725690   -0.288739
     87          1           0       -4.439511    3.587421   -0.838044
     88          1           0        4.378724    0.437991   -0.192537
     89          1           0       -1.668572    4.181040   -2.212467
     90          1           0       -0.967759    4.266628   -0.438814
     91          1           0       -2.590558    4.733630   -1.077576
     92          1           0       -2.261211    0.625389   -0.024084
     93          1           0        2.201225    1.342462   -0.411895
     94          1           0        2.792359   -2.833060    0.992647
     95          1           0        1.014006   -2.360109    0.841187
     96          1           0        2.098504   -2.788901   -0.983404
     97          1           0        0.248091    2.334458   -0.765541
     98          1           0       -0.236120   -0.571085   -0.403614
 ---------------------------------------------------------------------

 SCF Done:  E(RCAM-B3LYP) =  -1706.84667011     A.U. after   15 cycles

 Excitation energies and oscillator strengths:

 Excited State   1:      Singlet-A      1.8675 eV  663.89 nm  f=3.0861  <S**2>=0.000
     155 ->158        -0.14410
     156 ->157         0.69651
     156 <-157        -0.10680
 This state for optimization and/or second-order correction.
 Total Energy, E(TD-HF/TD-DFT) =  -1706.77803912
 Copying the excited state density for this state as the 1-particle RhoCI density.

 The electronic state is 1-A.
 Alpha  occ. eigenvalues --  -19.22108 -19.21148 -10.33215 -10.30447 -10.28917
 Alpha  occ. eigenvalues --  -10.28023 -10.27990 -10.27783 -10.27676 -10.27607
 Alpha  occ. eigenvalues --  -10.27587 -10.27298 -10.27234 -10.27107 -10.27096
 Alpha  occ. eigenvalues --  -10.27067 -10.27006 -10.26818 -10.26709 -10.26517
 Alpha  occ. eigenvalues --  -10.26468 -10.26451 -10.26447 -10.26380 -10.26368
 Alpha  occ. eigenvalues --  -10.26347 -10.26332 -10.26239 -10.26195 -10.25953
 Alpha  occ. eigenvalues --  -10.25791 -10.25728 -10.25700 -10.25576 -10.25286
 Alpha  occ. eigenvalues --  -10.24934 -10.24887 -10.24207 -10.23988 -10.23722
 Alpha  occ. eigenvalues --  -10.23398 -10.22730  -1.10199  -1.08469  -0.93705
 Alpha  occ. eigenvalues --   -0.93459  -0.92416  -0.91559  -0.90634  -0.90097
 Alpha  occ. eigenvalues --   -0.87339  -0.87065  -0.86518  -0.85066  -0.84756
 Alpha  occ. eigenvalues --   -0.83066  -0.81722  -0.80583  -0.79957  -0.78081
 Alpha  occ. eigenvalues --   -0.77834  -0.76704  -0.76505  -0.76347  -0.75688
 Alpha  occ. eigenvalues --   -0.74531  -0.73891  -0.73676  -0.72401  -0.70456
 Alpha  occ. eigenvalues --   -0.69003  -0.67752  -0.66558  -0.64657  -0.63907
 Alpha  occ. eigenvalues --   -0.63605  -0.62555  -0.62054  -0.60864  -0.60223
 Alpha  occ. eigenvalues --   -0.60059  -0.59026  -0.58424  -0.57303  -0.56317
 Alpha  occ. eigenvalues --   -0.55586  -0.55196  -0.54376  -0.53926  -0.53711
 Alpha  occ. eigenvalues --   -0.53034  -0.52865  -0.52285  -0.51610  -0.50925
 Alpha  occ. eigenvalues --   -0.50292  -0.50165  -0.50139  -0.49676  -0.49339
 Alpha  occ. eigenvalues --   -0.48580  -0.48266  -0.48164  -0.47838  -0.47249
 Alpha  occ. eigenvalues --   -0.47069  -0.46782  -0.46460  -0.46139  -0.46089
 Alpha  occ. eigenvalues --   -0.45796  -0.45485  -0.45133  -0.45023  -0.44781
 Alpha  occ. eigenvalues --   -0.44678  -0.44257  -0.44076  -0.43819  -0.43104
 Alpha  occ. eigenvalues --   -0.42870  -0.42536  -0.42320  -0.42159  -0.41954
 Alpha  occ. eigenvalues --   -0.41853  -0.41494  -0.40936  -0.40694  -0.40621
 Alpha  occ. eigenvalues --   -0.40172  -0.40011  -0.39666  -0.39467  -0.38780
 Alpha  occ. eigenvalues --   -0.38649  -0.38616  -0.38164  -0.37898  -0.37703
 Alpha  occ. eigenvalues --   -0.37308  -0.36920  -0.36464  -0.36153  -0.35360
 Alpha  occ. eigenvalues --   -0.34718  -0.34248  -0.33617  -0.32592  -0.31752
 Alpha  occ. eigenvalues --   -0.31097  -0.29143  -0.28603  -0.26483  -0.23247
 Alpha  occ. eigenvalues --   -0.18784
 Alpha virt. eigenvalues --   -0.06946  -0.01637   0.01995   0.04823   0.06647
 Alpha virt. eigenvalues --    0.08507   0.10382   0.11093   0.11426   0.11940
 Alpha virt. eigenvalues --    0.12306   0.12556   0.13002   0.13361   0.13601

 Mulliken charges:
               1
     1  O   -0.553061
     2  O   -0.556970
     3  C    0.027201
     4  C   -0.108633
     5  C   -0.175593
     6  C    0.173537
     7  C    0.109019
     8  C   -0.057273
     9  C   -0.289977
    10  C   -0.288317
    11  C   -0.145872
    12  C   -0.112943
    13  C    0.150136
    14  C    0.086256
    15  C   -0.090844
    16  C   -0.220815
    17  C    0.016701
    18  C   -0.307895
    19  C   -0.270698
    20  C   -0.359923
    21  C   -0.119230
    22  C   -0.137491
    23  C   -0.349404
    24  C    0.099168
    25  C   -0.100117
    26  C   -0.332723
    27  C    0.067110
    28  C   -0.101934
    29  C   -0.366700
    30  C   -0.080334
    31  C   -0.058055
    32  C   -0.106114
    33  C   -0.132829
    34  C    0.087055
    35  C   -0.144288
    36  C    0.172473
    37  C   -0.352037
    38  C   -0.122392
    39  C   -0.141404
    40  C   -0.331263
    41  C   -0.070303
    42  C   -0.089054
    43  H    0.076821
    44  H    0.111312
    45  H    0.094284
    46  H    0.011691
    47  H    0.079640
    48  H    0.091578
    49  H    0.096077
    50  H    0.082983
    51  H    0.114540
    52  H    0.090494
    53  H    0.098834
    54  H    0.071825
    55  H    0.068824
    56  H    0.067880
    57  H    0.074450
    58  H    0.099109
    59  H    0.122604
    60  H    0.099693
    61  H    0.106846
    62  H    0.094192
    63  H    0.111267
    64  H    0.101659
    65  H    0.076522
    66  H    0.125470
    67  H    0.123903
    68  H    0.111500
    69  H    0.313999
    70  H    0.098431
    71  H    0.083313
    72  H    0.138909
    73  H    0.104441
    74  H    0.120669
    75  H    0.300059
    76  H    0.081949
    77  H    0.111987
    78  H    0.096320
    79  H    0.127317
    80  H    0.071654
    81  H    0.125494
    82  H    0.105391
    83  H    0.091442
    84  H    0.068903
    85  H    0.078542
    86  H    0.096437
    87  H    0.067417
    88  H    0.086949
    89  H    0.116350
    90  H    0.104697
    91  H    0.116974
    92  H    0.086512
    93  H    0.069532
    94  H    0.063010
    95  H    0.130069
    96  H    0.069111
    97  H    0.079709
    98  H    0.076252
 Sum of Mulliken charges =  -0.00000

 Dipole moment (field-independent basis, Debye):
    X=             -1.0384    Y=             -0.1436    Z=             -0.5157  Tot=              1.1682
 Quadrupole moment (field-independent basis, Debye-Ang):
   XX=           -255.6793   YY=           -244.0201   ZZ=           -261.1640
   XY=              8.0851   XZ=             34.4800   YZ=              0.9484

 Normal termination of Gaussian 16 at Sat Jul 13 19:56:10 2019.
