 Gaussian 16, Revision A.03,
 Gaussian 16:  ES64L-G16RevA.03 25-Dec-2016

 -------------------------------------
 # td=(NStates=1) CAM-B3LYP/6-31G(d,p)
 -------------------------------------

 --
 TD
 --
 Symbolic Z-matrix:
 Charge =  0 Multiplicity = 1

                         Standard orientation:
 ---------------------------------------------------------------------
 Center     Atomic      Atomic             Coordinates (Angstroms)
 Number     Number       Type             X           Y           Z
 ---------------------------------------------------------------------
      1          8           0      -14.163405   -2.123108    0.545289
      2          8           0       14.708282    1.010351    0.247071
      3          6           0      -11.687076   -0.066953    1.313872
      4          6           0      -10.979246    0.360416   -0.067414
      5          6           0      -11.832187   -1.554704    1.398156
      6          6           0      -12.698671   -2.085648    0.224312
      7          6           0      -11.665864   -0.308628   -1.103037
      8          6           0       11.025414    0.908270    1.078958
      9          6           0      -10.927298    0.222459    2.654966
     10          6           0      -13.029903    0.696012    1.481050
     11          6           0       12.453735    1.495092    0.892202
     12          6           0      -12.368415   -1.394388   -1.018453
     13          6           0       13.412872    0.436205    0.466051
     14          6           0       10.630496   -0.111179   -0.009969
     15          6           0       -9.553774    0.023468   -0.004854
     16          6           0       12.950833   -0.084911   -0.775915
     17          6           0       11.484005   -0.548238   -0.828257
     18          6           0       10.068662    2.161534    1.227300
     19          6           0       10.933653    0.280850    2.560814
     20          6           0      -11.347584    0.281689   -2.515759
     21          6           0       -8.476716    0.860990   -0.225045
     22          6           0        9.219799   -0.435640    0.076295
     23          6           0       11.311845   -1.424341   -2.097096
     24          6           0       -7.070417    0.603562   -0.222521
     25          6           0        8.821534   -1.780435   -0.128495
     26          6           0       -6.733520   -0.854555   -0.058537
     27          6           0        7.436284   -2.185689   -0.087395
     28          6           0       -6.135889    1.648627   -0.364368
     29          6           0        7.152900   -3.665664    0.185344
     30          6           0        6.396450   -1.312716   -0.219847
     31          6           0       -4.795257    1.537335   -0.263131
     32          6           0        4.988942   -1.613097   -0.236319
     33          6           0       -3.899291    2.617953   -0.559016
     34          6           0       -2.531929    2.683252   -0.606846
     35          6           0        3.996750   -0.659990   -0.430659
     36          6           0        2.602108   -0.821544   -0.378399
     37          6           0       -1.959643    3.980764   -1.029331
     38          6           0       -1.629468    1.565944   -0.479235
     39          6           0        1.781172    0.327692   -0.628731
     40          6           0        2.000364   -2.114713   -0.127743
     41          6           0       -0.314462    1.472321   -0.618830
     42          6           0        0.415250    0.375218   -0.423114
     43          1           0      -11.037010    1.461876   -0.108059
     44          1           0      -12.370952   -1.826510    2.345672
     45          1           0      -10.823644   -1.958121    1.248677
     46          1           0      -12.482301   -3.101341    0.068119
     47          1           0       -9.632078   -0.002626    2.520542
     48          1           0      -10.933742    1.391716    2.779729
     49          1           0      -11.408797    0.159600    3.555471
     50          1           0      -13.632160    0.606500    0.778873
     51          1           0      -13.650119    0.273422    2.229166
     52          1           0      -12.896652    1.694220    1.831813
     53          1           0       12.434056    2.226447    0.218121
     54          1           0       12.746021    1.956848    1.858643
     55          1           0      -12.679139   -2.098526   -1.812266
     56          1           0       13.513055   -0.386787    1.073096
     57          1           0       -9.246349   -1.036736    0.344909
     58          1           0       13.749954   -0.984701   -0.905343
     59          1           0       13.087519    0.532458   -1.612777
     60          1           0        8.993662    1.857446    1.478051
     61          1           0       10.035334    2.799070    0.204956
     62          1           0       10.494531    2.893063    1.815105
     63          1           0       11.706798   -0.576546    2.295448
     64          1           0        9.982941   -0.004163    2.672134
     65          1           0       11.566892    1.027688    3.194171
     66          1           0      -10.292817    0.433604   -2.647307
     67          1           0      -11.644352    1.270710   -2.584689
     68          1           0      -11.591823   -0.233609   -3.241477
     69          1           0      -14.665840   -2.368550   -0.157018
     70          1           0        8.569005    0.326631    0.427041
     71          1           0       -8.719675    1.817746   -0.507691
     72          1           0       11.567871   -2.462385   -1.632588
     73          1           0       10.195927   -1.794235   -2.729262
     74          1           0       12.015346   -1.117198   -2.982822
     75          1           0       14.602845    1.779791    1.114056
     76          1           0        9.597650   -2.563341   -0.043768
     77          1           0       -5.646840   -0.975857   -0.228696
     78          1           0       -6.847988   -1.179031    1.068875
     79          1           0       -7.493289   -1.483168   -0.772847
     80          1           0       -6.602036    2.550372   -0.706173
     81          1           0        6.730852   -3.784700    1.095083
     82          1           0        6.524162   -4.103829   -0.600502
     83          1           0        8.072076   -4.219347    0.075617
     84          1           0        6.732897   -0.235080   -0.266502
     85          1           0       -4.507915    0.588161    0.010818
     86          1           0        4.608367   -2.614279   -0.340097
     87          1           0       -4.534240    3.487315   -1.095809
     88          1           0        4.410966    0.323860   -0.487166
     89          1           0       -1.188695    3.888980   -1.720500
     90          1           0       -1.302786    4.416596   -0.203126
     91          1           0       -2.691168    4.822327   -1.323258
     92          1           0       -2.050603    0.547981    0.000023
     93          1           0        2.291313    1.281502   -0.832980
     94          1           0        2.065198   -2.412511    0.966606
     95          1           0        0.673603   -2.303666   -0.567022
     96          1           0        2.530109   -2.965286   -0.739558
     97          1           0        0.248471    2.561022   -0.815247
     98          1           0       -0.212193   -0.382509   -0.251165
 ---------------------------------------------------------------------

 SCF Done:  E(RCAM-B3LYP) =  -1706.83211912     A.U. after   16 cycles

 Excitation energies and oscillator strengths:

 Excited State   1:      Singlet-A      1.7478 eV  709.38 nm  f=3.0726  <S**2>=0.000
     155 ->158         0.13047
     156 ->157         0.70497
     156 <-157        -0.13492
 This state for optimization and/or second-order correction.
 Total Energy, E(TD-HF/TD-DFT) =  -1706.76788885
 Copying the excited state density for this state as the 1-particle RhoCI density.

 The electronic state is 1-A.
 Alpha  occ. eigenvalues --  -19.22298 -19.19428 -10.29242 -10.29240 -10.28916
 Alpha  occ. eigenvalues --  -10.28653 -10.27998 -10.27956 -10.27843 -10.27667
 Alpha  occ. eigenvalues --  -10.27601 -10.27492 -10.27208 -10.27196 -10.27030
 Alpha  occ. eigenvalues --  -10.26973 -10.26936 -10.26838 -10.26793 -10.26789
 Alpha  occ. eigenvalues --  -10.26605 -10.26602 -10.26523 -10.26521 -10.26232
 Alpha  occ. eigenvalues --  -10.26143 -10.26064 -10.26012 -10.25926 -10.25736
 Alpha  occ. eigenvalues --  -10.25635 -10.25563 -10.25480 -10.25308 -10.25281
 Alpha  occ. eigenvalues --  -10.24975 -10.24783 -10.24676 -10.24624 -10.24485
 Alpha  occ. eigenvalues --  -10.22511 -10.21026  -1.07673  -1.07500  -0.95094
 Alpha  occ. eigenvalues --   -0.94579  -0.93006  -0.91950  -0.91143  -0.90167
 Alpha  occ. eigenvalues --   -0.88336  -0.87231  -0.87073  -0.86248  -0.85819
 Alpha  occ. eigenvalues --   -0.83819  -0.82912  -0.80831  -0.80053  -0.78901
 Alpha  occ. eigenvalues --   -0.77518  -0.76811  -0.76759  -0.76271  -0.76184
 Alpha  occ. eigenvalues --   -0.75632  -0.75290  -0.74619  -0.72932  -0.71601
 Alpha  occ. eigenvalues --   -0.69776  -0.68769  -0.66637  -0.66120  -0.64326
 Alpha  occ. eigenvalues --   -0.63943  -0.63559  -0.62713  -0.61072  -0.59873
 Alpha  occ. eigenvalues --   -0.59449  -0.58670  -0.58313  -0.58143  -0.56597
 Alpha  occ. eigenvalues --   -0.56033  -0.55243  -0.54792  -0.54344  -0.54167
 Alpha  occ. eigenvalues --   -0.53417  -0.53147  -0.52546  -0.51996  -0.51336
 Alpha  occ. eigenvalues --   -0.50995  -0.50812  -0.50634  -0.50022  -0.49578
 Alpha  occ. eigenvalues --   -0.49377  -0.48867  -0.48796  -0.48452  -0.48115
 Alpha  occ. eigenvalues --   -0.47549  -0.47478  -0.47359  -0.47083  -0.46542
 Alpha  occ. eigenvalues --   -0.46358  -0.45944  -0.45593  -0.45491  -0.45212
 Alpha  occ. eigenvalues --   -0.44796  -0.44519  -0.44441  -0.44244  -0.43933
 Alpha  occ. eigenvalues --   -0.43314  -0.43121  -0.42979  -0.42669  -0.42397
 Alpha  occ. eigenvalues --   -0.42091  -0.41888  -0.41434  -0.41337  -0.40891
 Alpha  occ. eigenvalues --   -0.40407  -0.40179  -0.39848  -0.39742  -0.39197
 Alpha  occ. eigenvalues --   -0.39074  -0.39015  -0.38452  -0.38250  -0.37597
 Alpha  occ. eigenvalues --   -0.36927  -0.36512  -0.35989  -0.35964  -0.35845
 Alpha  occ. eigenvalues --   -0.34882  -0.34175  -0.33475  -0.32596  -0.32094
 Alpha  occ. eigenvalues --   -0.31895  -0.30493  -0.30093  -0.27287  -0.23614
 Alpha  occ. eigenvalues --   -0.18352
 Alpha virt. eigenvalues --   -0.07593  -0.01883   0.02180   0.05578   0.07324
 Alpha virt. eigenvalues --    0.08328   0.09424   0.10155   0.11102   0.11465
 Alpha virt. eigenvalues --    0.11633   0.12537   0.12773   0.12901   0.13536

 Mulliken charges:
               1
     1  O   -0.569301
     2  O   -0.567562
     3  C    0.007511
     4  C   -0.164690
     5  C   -0.170561
     6  C    0.137800
     7  C    0.154802
     8  C   -0.081435
     9  C   -0.295847
    10  C   -0.297330
    11  C   -0.222461
    12  C   -0.145613
    13  C    0.194813
    14  C    0.130141
    15  C   -0.073461
    16  C   -0.220230
    17  C    0.007673
    18  C   -0.298017
    19  C   -0.264450
    20  C   -0.343297
    21  C   -0.091138
    22  C   -0.107360
    23  C   -0.326605
    24  C    0.096913
    25  C   -0.120591
    26  C   -0.370591
    27  C    0.074668
    28  C   -0.099089
    29  C   -0.370872
    30  C   -0.112896
    31  C   -0.044686
    32  C   -0.093380
    33  C   -0.159289
    34  C    0.128003
    35  C   -0.109463
    36  C    0.136076
    37  C   -0.391060
    38  C   -0.139230
    39  C   -0.131313
    40  C   -0.365719
    41  C   -0.031903
    42  C   -0.051080
    43  H    0.103129
    44  H    0.111174
    45  H    0.100521
    46  H    0.082829
    47  H    0.068065
    48  H    0.061695
    49  H    0.121763
    50  H    0.110239
    51  H    0.106569
    52  H    0.093046
    53  H    0.118534
    54  H    0.069481
    55  H    0.080290
    56  H    0.094443
    57  H    0.083275
    58  H    0.086736
    59  H    0.127986
    60  H    0.094967
    61  H    0.072323
    62  H    0.114544
    63  H    0.082952
    64  H    0.117588
    65  H    0.096378
    66  H    0.110258
    67  H    0.114700
    68  H    0.106936
    69  H    0.291312
    70  H    0.093165
    71  H    0.063955
    72  H    0.112568
    73  H    0.080402
    74  H    0.110019
    75  H    0.293817
    76  H    0.096148
    77  H    0.105564
    78  H    0.112731
    79  H    0.113567
    80  H    0.076835
    81  H    0.139148
    82  H    0.118053
    83  H    0.103006
    84  H    0.074976
    85  H    0.074921
    86  H    0.077797
    87  H    0.078706
    88  H    0.076898
    89  H    0.133415
    90  H    0.113293
    91  H    0.109251
    92  H    0.065614
    93  H    0.086299
    94  H    0.131156
    95  H    0.060944
    96  H    0.112943
    97  H    0.053897
    98  H    0.071298
 Sum of Mulliken charges =  -0.00000

 Dipole moment (field-independent basis, Debye):
    X=              0.2137    Y=             -0.0062    Z=             -0.4233  Tot=              0.4743
 Quadrupole moment (field-independent basis, Debye-Ang):
   XX=           -300.3609   YY=           -243.1485   ZZ=           -263.0595
   XY=              4.4424   XZ=             36.4268   YZ=              3.6783

 Normal termination of Gaussian 16 at Tue Jul 16 14:57:19 2019.
