 Gaussian 16, Revision A.03,
 Gaussian 16:  ES64L-G16RevA.03 25-Dec-2016

 -------------------------------------
 # td=(NStates=1) CAM-B3LYP/6-31G(d,p)
 -------------------------------------

 --
 TD
 --
 Symbolic Z-matrix:
 Charge =  0 Multiplicity = 1

                         Standard orientation:
 ---------------------------------------------------------------------
 Center     Atomic      Atomic             Coordinates (Angstroms)
 Number     Number       Type             X           Y           Z
 ---------------------------------------------------------------------
      1          8           0      -14.200268   -1.794522    0.797470
      2          8           0       14.776773    1.014352    0.280997
      3          6           0      -11.632582    0.083303    1.336296
      4          6           0      -10.869612    0.252226   -0.056121
      5          6           0      -11.980702   -1.428588    1.471951
      6          6           0      -12.819562   -2.053437    0.386077
      7          6           0      -11.709831   -0.402092   -1.239993
      8          6           0       10.996641    1.065606    0.965836
      9          6           0      -10.874636    0.525846    2.539634
     10          6           0      -12.916539    0.812813    1.175970
     11          6           0       12.460364    1.551599    0.736301
     12          6           0      -12.575397   -1.458942   -1.000731
     13          6           0       13.437524    0.476807    0.398916
     14          6           0       10.619645   -0.003085   -0.054006
     15          6           0       -9.524854   -0.198999   -0.107175
     16          6           0       13.037772   -0.251774   -0.789700
     17          6           0       11.629733   -0.620795   -0.859925
     18          6           0       10.063287    2.282377    0.806098
     19          6           0       10.874609    0.498147    2.375276
     20          6           0      -11.405099    0.137813   -2.713766
     21          6           0       -8.371306    0.690920   -0.253184
     22          6           0        9.256838   -0.370547   -0.136725
     23          6           0       11.258244   -1.649767   -1.821401
     24          6           0       -7.048677    0.341461   -0.316353
     25          6           0        8.797022   -1.658959   -0.156556
     26          6           0       -6.439141   -1.046926   -0.052965
     27          6           0        7.435475   -2.107133   -0.006226
     28          6           0       -6.163133    1.432884   -0.412173
     29          6           0        7.284334   -3.611440    0.193260
     30          6           0        6.345125   -1.266232   -0.215113
     31          6           0       -4.862957    1.384159   -0.407799
     32          6           0        5.091835   -1.646023   -0.148059
     33          6           0       -4.020753    2.590657   -0.546599
     34          6           0       -2.624715    2.681277   -0.710003
     35          6           0        4.055587   -0.634910   -0.292414
     36          6           0        2.629153   -0.752705   -0.195061
     37          6           0       -2.006350    3.958787   -0.835235
     38          6           0       -1.802434    1.528942   -0.526422
     39          6           0        1.788893    0.280167   -0.201233
     40          6           0        2.080102   -2.109588    0.130598
     41          6           0       -0.371482    1.479102   -0.498783
     42          6           0        0.370223    0.353180   -0.320724
     43          1           0      -10.921390    1.348207   -0.338111
     44          1           0      -12.266609   -1.717290    2.644040
     45          1           0      -10.915043   -1.947717    1.382256
     46          1           0      -12.499799   -3.093520    0.294384
     47          1           0      -10.103974   -0.117270    2.728287
     48          1           0      -10.648026    1.619212    2.551808
     49          1           0      -11.392567    0.321193    3.434579
     50          1           0      -13.538605    0.741530    0.259557
     51          1           0      -13.532083    0.431821    2.061062
     52          1           0      -12.978947    1.975004    1.178353
     53          1           0       12.386644    2.261910   -0.158973
     54          1           0       12.671534    2.215658    1.712845
     55          1           0      -13.105169   -1.642801   -1.898761
     56          1           0       13.416939   -0.293547    1.133732
     57          1           0       -9.436477   -1.324986    0.133128
     58          1           0       13.648330   -1.276593   -1.112140
     59          1           0       13.152106    0.554338   -1.588674
     60          1           0        9.094964    1.897844    1.255452
     61          1           0        9.951829    2.631473   -0.234664
     62          1           0       10.576273    3.031774    1.421970
     63          1           0       11.459043   -0.359579    2.663294
     64          1           0        9.772817    0.077892    2.515272
     65          1           0       11.134741    1.220270    3.114562
     66          1           0      -10.303656    0.063591   -3.026533
     67          1           0      -11.584389    1.349653   -2.700523
     68          1           0      -11.838603   -0.393238   -3.524504
     69          1           0      -14.938641   -1.938315    0.195882
     70          1           0        8.467147    0.474960    0.029441
     71          1           0       -8.688704    1.720038   -0.358547
     72          1           0       11.257001   -2.767913   -1.139601
     73          1           0       10.347838   -1.572314   -2.417752
     74          1           0       11.993904   -1.975364   -2.717955
     75          1           0       14.941378    1.665801    1.093435
     76          1           0        9.526733   -2.441572   -0.329766
     77          1           0       -5.172135   -0.961652   -0.130907
     78          1           0       -6.808084   -1.379588    0.774743
     79          1           0       -6.963139   -1.825725   -0.714336
     80          1           0       -6.569647    2.541762   -0.521135
     81          1           0        6.756671   -3.897314    1.063124
     82          1           0        6.664278   -4.102039   -0.682939
     83          1           0        8.234025   -4.126078    0.401271
     84          1           0        6.789633   -0.331583   -0.052580
     85          1           0       -4.322880    0.413459   -0.458108
     86          1           0        4.761491   -2.628398   -0.153645
     87          1           0       -4.702577    3.493339   -0.610627
     88          1           0        4.375322    0.391516   -0.379857
     89          1           0       -1.283309    3.947002   -1.860715
     90          1           0       -1.557170    4.359726    0.031286
     91          1           0       -2.828598    4.561377   -0.933662
     92          1           0       -2.195088    0.579607    0.005197
     93          1           0        2.259591    1.341124   -0.361410
     94          1           0        2.365346   -2.284491    1.236210
     95          1           0        1.113571   -2.307758    0.094692
     96          1           0        2.466534   -3.073253   -0.328428
     97          1           0        0.131362    2.541655   -0.846027
     98          1           0       -0.189651   -0.568282   -0.307324
 ---------------------------------------------------------------------

 SCF Done:  E(RCAM-B3LYP) =  -1706.91817265     A.U. after   17 cycles

 Excitation energies and oscillator strengths:

 Excited State   1:      Singlet-A      1.6893 eV  733.94 nm  f=3.1917  <S**2>=0.000
     155 ->158        -0.14943
     156 ->157         0.69751
     156 <-157        -0.12122
 This state for optimization and/or second-order correction.
 Total Energy, E(TD-HF/TD-DFT) =  -1706.85609220
 Copying the excited state density for this state as the 1-particle RhoCI density.

 The electronic state is 1-A.
 Alpha  occ. eigenvalues --  -19.21536 -19.20579 -10.32162 -10.29825 -10.28302
 Alpha  occ. eigenvalues --  -10.27797 -10.27516 -10.27472 -10.27451 -10.27349
 Alpha  occ. eigenvalues --  -10.27266 -10.27230 -10.27188 -10.27169 -10.27167
 Alpha  occ. eigenvalues --  -10.26957 -10.26922 -10.26912 -10.26818 -10.26748
 Alpha  occ. eigenvalues --  -10.26633 -10.26625 -10.26504 -10.26430 -10.26427
 Alpha  occ. eigenvalues --  -10.26252 -10.26141 -10.26125 -10.26119 -10.26080
 Alpha  occ. eigenvalues --  -10.26011 -10.25774 -10.25705 -10.25625 -10.25559
 Alpha  occ. eigenvalues --  -10.25438 -10.25181 -10.24977 -10.24808 -10.24157
 Alpha  occ. eigenvalues --  -10.23489 -10.23155  -1.07550  -1.07235  -0.94291
 Alpha  occ. eigenvalues --   -0.93237  -0.92211  -0.91954  -0.90907  -0.90186
 Alpha  occ. eigenvalues --   -0.88015  -0.87058  -0.86296  -0.85784  -0.85145
 Alpha  occ. eigenvalues --   -0.83247  -0.82922  -0.80156  -0.80094  -0.78137
 Alpha  occ. eigenvalues --   -0.77187  -0.76457  -0.76395  -0.76311  -0.75621
 Alpha  occ. eigenvalues --   -0.75317  -0.75094  -0.74712  -0.72655  -0.69939
 Alpha  occ. eigenvalues --   -0.69158  -0.67486  -0.66651  -0.64713  -0.63261
 Alpha  occ. eigenvalues --   -0.62994  -0.62452  -0.61892  -0.60510  -0.59757
 Alpha  occ. eigenvalues --   -0.59494  -0.58683  -0.58615  -0.57781  -0.56516
 Alpha  occ. eigenvalues --   -0.56033  -0.55284  -0.54576  -0.54269  -0.54102
 Alpha  occ. eigenvalues --   -0.53207  -0.52900  -0.52452  -0.52235  -0.51560
 Alpha  occ. eigenvalues --   -0.51041  -0.50563  -0.49897  -0.49236  -0.48872
 Alpha  occ. eigenvalues --   -0.48221  -0.48058  -0.47618  -0.47478  -0.47396
 Alpha  occ. eigenvalues --   -0.46955  -0.46786  -0.46773  -0.46710  -0.46078
 Alpha  occ. eigenvalues --   -0.45973  -0.45302  -0.45269  -0.44662  -0.44126
 Alpha  occ. eigenvalues --   -0.44046  -0.43965  -0.43629  -0.43263  -0.43064
 Alpha  occ. eigenvalues --   -0.42744  -0.42693  -0.42406  -0.42076  -0.41888
 Alpha  occ. eigenvalues --   -0.41670  -0.41484  -0.41188  -0.40821  -0.40387
 Alpha  occ. eigenvalues --   -0.40148  -0.39833  -0.39544  -0.39511  -0.39271
 Alpha  occ. eigenvalues --   -0.39164  -0.38741  -0.38539  -0.38127  -0.37734
 Alpha  occ. eigenvalues --   -0.37428  -0.37400  -0.37281  -0.36597  -0.35987
 Alpha  occ. eigenvalues --   -0.35929  -0.34463  -0.33627  -0.32209  -0.32170
 Alpha  occ. eigenvalues --   -0.31533  -0.29055  -0.28151  -0.26066  -0.21630
 Alpha  occ. eigenvalues --   -0.17783
 Alpha virt. eigenvalues --   -0.07055  -0.02611   0.02728   0.05151   0.06463
 Alpha virt. eigenvalues --    0.08530   0.10467   0.10963   0.11213   0.11478
 Alpha virt. eigenvalues --    0.12314   0.12586   0.12650   0.12916   0.13931

 Mulliken charges:
               1
     1  O   -0.563851
     2  O   -0.580187
     3  C    0.044698
     4  C   -0.141377
     5  C   -0.177633
     6  C    0.164696
     7  C    0.080609
     8  C   -0.034758
     9  C   -0.298743
    10  C   -0.281114
    11  C   -0.208738
    12  C   -0.139396
    13  C    0.206287
    14  C    0.073660
    15  C   -0.069312
    16  C   -0.229905
    17  C    0.097933
    18  C   -0.292135
    19  C   -0.294622
    20  C   -0.351477
    21  C   -0.122557
    22  C   -0.144781
    23  C   -0.370331
    24  C    0.112220
    25  C   -0.080955
    26  C   -0.346976
    27  C    0.046439
    28  C   -0.104438
    29  C   -0.381852
    30  C   -0.053139
    31  C   -0.056083
    32  C   -0.072012
    33  C   -0.162046
    34  C    0.104775
    35  C   -0.144603
    36  C    0.148242
    37  C   -0.363321
    38  C   -0.127005
    39  C   -0.143657
    40  C   -0.381122
    41  C   -0.076280
    42  C   -0.084656
    43  H    0.083274
    44  H    0.094110
    45  H    0.067754
    46  H    0.100208
    47  H    0.105955
    48  H    0.102047
    49  H    0.104746
    50  H    0.110136
    51  H    0.099582
    52  H    0.063583
    53  H    0.095585
    54  H    0.066379
    55  H    0.080584
    56  H    0.085445
    57  H    0.075899
    58  H    0.097830
    59  H    0.118293
    60  H    0.100512
    61  H    0.112386
    62  H    0.097978
    63  H    0.111541
    64  H    0.090874
    65  H    0.099957
    66  H    0.120436
    67  H    0.092031
    68  H    0.118604
    69  H    0.304827
    70  H    0.085555
    71  H    0.086805
    72  H    0.073705
    73  H    0.140188
    74  H    0.090669
    75  H    0.309593
    76  H    0.081203
    77  H    0.093828
    78  H    0.142433
    79  H    0.106877
    80  H    0.074447
    81  H    0.126851
    82  H    0.108711
    83  H    0.106068
    84  H    0.073407
    85  H    0.081882
    86  H    0.088679
    87  H    0.074954
    88  H    0.075658
    89  H    0.099623
    90  H    0.138332
    91  H    0.112172
    92  H    0.076575
    93  H    0.067493
    94  H    0.113746
    95  H    0.116792
    96  H    0.101262
    97  H    0.069047
    98  H    0.082392
 Sum of Mulliken charges =  -0.00000

 Dipole moment (field-independent basis, Debye):
    X=             -1.2016    Y=             -0.7927    Z=              0.3497  Tot=              1.4813
 Quadrupole moment (field-independent basis, Debye-Ang):
   XX=           -264.1305   YY=           -242.4643   ZZ=           -261.7063
   XY=             10.0393   XZ=             35.4362   YZ=              2.3445

 Normal termination of Gaussian 16 at Sun Jul 14 14:38:11 2019.
