 Gaussian 16, Revision A.03,
 Gaussian 16:  ES64L-G16RevA.03 25-Dec-2016

 -------------------------------------
 # td=(NStates=1) CAM-B3LYP/6-31G(d,p)
 -------------------------------------

 --
 TD
 --
 Symbolic Z-matrix:
 Charge =  0 Multiplicity = 1

                         Standard orientation:
 ---------------------------------------------------------------------
 Center     Atomic      Atomic             Coordinates (Angstroms)
 Number     Number       Type             X           Y           Z
 ---------------------------------------------------------------------
      1          8           0      -14.221355   -1.872063    0.389737
      2          8           0       14.910216    0.880744   -0.107930
      3          6           0      -11.974143    0.049174    1.098149
      4          6           0      -11.057981    0.256077   -0.103255
      5          6           0      -12.161509   -1.403529    1.459735
      6          6           0      -12.825736   -2.054431    0.249419
      7          6           0      -11.578885   -0.581996   -1.301957
      8          6           0       11.198084    1.005702    0.949353
      9          6           0      -11.280164    0.670580    2.402601
     10          6           0      -13.171361    0.925206    0.966210
     11          6           0       12.604054    1.513780    0.566277
     12          6           0      -12.384129   -1.640305   -1.091193
     13          6           0       13.628962    0.397443    0.220482
     14          6           0       10.785413   -0.090690   -0.059585
     15          6           0       -9.631715   -0.070455    0.072504
     16          6           0       13.189351   -0.328120   -0.935543
     17          6           0       11.746066   -0.711408   -0.874372
     18          6           0       10.272115    2.286468    0.904414
     19          6           0       11.182878    0.404529    2.404006
     20          6           0      -11.227826   -0.089738   -2.670337
     21          6           0       -8.567839    0.815482    0.120915
     22          6           0        9.360063   -0.491221    0.102992
     23          6           0       11.328981   -1.807486   -1.906882
     24          6           0       -7.155695    0.466693    0.044626
     25          6           0        8.783461   -1.663318    0.092511
     26          6           0       -6.789533   -0.895579    0.376388
     27          6           0        7.430955   -2.030033    0.045565
     28          6           0       -6.203596    1.518074   -0.136013
     29          6           0        7.020309   -3.481776    0.347391
     30          6           0        6.434715   -1.131613    0.029091
     31          6           0       -4.812237    1.357747   -0.403531
     32          6           0        5.027760   -1.369375    0.026686
     33          6           0       -4.031449    2.487261   -0.688532
     34          6           0       -2.642085    2.641191   -0.715169
     35          6           0        4.067275   -0.493403   -0.171871
     36          6           0        2.619538   -0.660090   -0.120498
     37          6           0       -1.933421    3.910708   -1.005939
     38          6           0       -1.797198    1.525775   -0.513557
     39          6           0        1.789964    0.413130   -0.280130
     40          6           0        2.073177   -2.070658    0.088381
     41          6           0       -0.346945    1.485598   -0.438577
     42          6           0        0.382237    0.358537   -0.179279
     43          1           0      -11.017870    1.468756   -0.272724
     44          1           0      -12.912429   -1.522712    2.354852
     45          1           0      -11.227836   -1.930631    1.588793
     46          1           0      -12.357248   -3.263950    0.273025
     47          1           0      -10.379000    0.157151    2.569196
     48          1           0      -11.190584    1.644860    2.222869
     49          1           0      -11.977639    0.685390    3.323866
     50          1           0      -13.527571    0.728365    0.056840
     51          1           0      -13.760436    0.678320    1.820724
     52          1           0      -12.807464    2.039064    0.855209
     53          1           0       12.550847    2.112087   -0.321888
     54          1           0       13.024666    2.318089    1.419390
     55          1           0      -12.601572   -1.941915   -2.115653
     56          1           0       13.676573   -0.012664    1.313717
     57          1           0       -9.428079   -1.154458    0.313622
     58          1           0       13.723323   -1.276807   -1.079151
     59          1           0       13.338963    0.309185   -1.956913
     60          1           0        9.170879    2.187145    1.129921
     61          1           0       10.070253    2.543341   -0.092469
     62          1           0       10.615211    3.127714    1.445428
     63          1           0       11.892435   -0.497524    2.395982
     64          1           0       10.205099   -0.044994    2.559731
     65          1           0       11.443487    1.290476    3.065974
     66          1           0      -10.104986   -0.201256   -2.726668
     67          1           0      -11.545309    0.864791   -3.101678
     68          1           0      -11.711128   -0.834877   -3.539872
     69          1           0      -14.612607   -2.279666   -0.382767
     70          1           0        8.716931    0.405034    0.208097
     71          1           0       -8.588253    1.896785   -0.062825
     72          1           0       11.566635   -2.727341   -1.403500
     73          1           0       10.265314   -1.778540   -2.318997
     74          1           0       11.916609   -1.554559   -2.725008
     75          1           0       15.337462    1.445451    0.604376
     76          1           0        9.403587   -2.601407   -0.129728
     77          1           0       -5.828991   -1.112532    0.692593
     78          1           0       -7.373143   -1.414588    1.124800
     79          1           0       -7.004037   -1.697545   -0.322722
     80          1           0       -6.519194    2.548534   -0.383683
     81          1           0        6.547144   -3.560392    1.296528
     82          1           0        6.542385   -4.123315   -0.241491
     83          1           0        8.041848   -3.975375    0.435558
     84          1           0        6.667441   -0.033982   -0.189411
     85          1           0       -4.423411    0.314698   -0.402774
     86          1           0        4.787705   -2.388520    0.249525
     87          1           0       -4.612011    3.288912   -0.788747
     88          1           0        4.270819    0.539164   -0.420418
     89          1           0       -1.292651    3.896349   -1.859434
     90          1           0       -1.441346    4.194241   -0.146362
     91          1           0       -2.738745    4.543912   -1.315046
     92          1           0       -2.287964    0.413291   -0.141284
     93          1           0        2.234624    1.446019   -0.377846
     94          1           0        1.820503   -2.397180    1.188359
     95          1           0        0.904991   -2.240890   -0.494867
     96          1           0        2.768056   -2.764408   -0.344436
     97          1           0        0.212897    2.310145   -0.758165
     98          1           0       -0.067541   -0.678286   -0.175756
 ---------------------------------------------------------------------

 SCF Done:  E(RCAM-B3LYP) =  -1707.00716439     A.U. after   15 cycles

 Excitation energies and oscillator strengths:

 Excited State   1:      Singlet-A      2.2186 eV  558.85 nm  f=2.9164  <S**2>=0.000
     155 ->158        -0.14523
     156 ->157         0.69179
 This state for optimization and/or second-order correction.
 Total Energy, E(TD-HF/TD-DFT) =  -1706.92563359
 Copying the excited state density for this state as the 1-particle RhoCI density.

 The electronic state is 1-A.
 Alpha  occ. eigenvalues --  -19.22300 -19.21077 -10.32498 -10.30747 -10.27980
 Alpha  occ. eigenvalues --  -10.27951 -10.27654 -10.27544 -10.27426 -10.27410
 Alpha  occ. eigenvalues --  -10.27370 -10.27252 -10.27163 -10.27052 -10.26919
 Alpha  occ. eigenvalues --  -10.26883 -10.26840 -10.26576 -10.26553 -10.26442
 Alpha  occ. eigenvalues --  -10.26440 -10.26383 -10.26270 -10.26259 -10.25819
 Alpha  occ. eigenvalues --  -10.25767 -10.25690 -10.25638 -10.25576 -10.25537
 Alpha  occ. eigenvalues --  -10.25483 -10.25479 -10.25310 -10.25222 -10.25131
 Alpha  occ. eigenvalues --  -10.24979 -10.24429 -10.24408 -10.24314 -10.24103
 Alpha  occ. eigenvalues --  -10.22617 -10.22317  -1.10953  -1.08898  -0.94189
 Alpha  occ. eigenvalues --   -0.93023  -0.92147  -0.91736  -0.90804  -0.90064
 Alpha  occ. eigenvalues --   -0.87531  -0.87365  -0.86631  -0.85554  -0.84659
 Alpha  occ. eigenvalues --   -0.83491  -0.82432  -0.81004  -0.80470  -0.77762
 Alpha  occ. eigenvalues --   -0.77502  -0.76602  -0.76180  -0.75982  -0.75849
 Alpha  occ. eigenvalues --   -0.75332  -0.75079  -0.75002  -0.72990  -0.70556
 Alpha  occ. eigenvalues --   -0.69393  -0.67443  -0.66596  -0.65120  -0.63585
 Alpha  occ. eigenvalues --   -0.63086  -0.62363  -0.62191  -0.61044  -0.60226
 Alpha  occ. eigenvalues --   -0.59449  -0.59165  -0.58528  -0.57817  -0.56797
 Alpha  occ. eigenvalues --   -0.55760  -0.55248  -0.54685  -0.54378  -0.53794
 Alpha  occ. eigenvalues --   -0.53638  -0.52764  -0.52023  -0.51723  -0.51041
 Alpha  occ. eigenvalues --   -0.50768  -0.50696  -0.50331  -0.49989  -0.49703
 Alpha  occ. eigenvalues --   -0.49310  -0.49098  -0.48052  -0.47920  -0.47649
 Alpha  occ. eigenvalues --   -0.47608  -0.47150  -0.46830  -0.46737  -0.46664
 Alpha  occ. eigenvalues --   -0.45708  -0.45334  -0.45275  -0.45007  -0.44802
 Alpha  occ. eigenvalues --   -0.44647  -0.44553  -0.43978  -0.43868  -0.43147
 Alpha  occ. eigenvalues --   -0.42996  -0.42719  -0.42615  -0.42285  -0.42115
 Alpha  occ. eigenvalues --   -0.41637  -0.41473  -0.41279  -0.41092  -0.40839
 Alpha  occ. eigenvalues --   -0.40296  -0.40197  -0.39986  -0.39550  -0.39236
 Alpha  occ. eigenvalues --   -0.38969  -0.38744  -0.38526  -0.38411  -0.38358
 Alpha  occ. eigenvalues --   -0.37976  -0.37602  -0.37140  -0.36605  -0.36211
 Alpha  occ. eigenvalues --   -0.35445  -0.34260  -0.33632  -0.31772  -0.31431
 Alpha  occ. eigenvalues --   -0.30582  -0.29328  -0.29039  -0.26786  -0.23593
 Alpha  occ. eigenvalues --   -0.19717
 Alpha virt. eigenvalues --   -0.05685  -0.01170   0.02576   0.05614   0.06812
 Alpha virt. eigenvalues --    0.08450   0.11093   0.11377   0.11464   0.11916
 Alpha virt. eigenvalues --    0.12629   0.12732   0.12937   0.13411   0.13634

 Mulliken charges:
               1
     1  O   -0.526007
     2  O   -0.572194
     3  C   -0.009037
     4  C   -0.134277
     5  C   -0.161653
     6  C    0.138527
     7  C    0.099728
     8  C   -0.006699
     9  C   -0.284588
    10  C   -0.250547
    11  C   -0.195927
    12  C   -0.106084
    13  C    0.196648
    14  C    0.043119
    15  C   -0.081022
    16  C   -0.207100
    17  C    0.007227
    18  C   -0.327032
    19  C   -0.285854
    20  C   -0.352461
    21  C   -0.094212
    22  C   -0.112685
    23  C   -0.351825
    24  C    0.129348
    25  C   -0.080809
    26  C   -0.403478
    27  C    0.080941
    28  C   -0.156713
    29  C   -0.380651
    30  C   -0.113658
    31  C   -0.043867
    32  C   -0.079550
    33  C   -0.117928
    34  C    0.077357
    35  C   -0.098527
    36  C    0.113330
    37  C   -0.367723
    38  C   -0.120294
    39  C   -0.134843
    40  C   -0.356811
    41  C   -0.085215
    42  C   -0.062842
    43  H    0.073644
    44  H    0.115351
    45  H    0.101459
    46  H    0.017956
    47  H    0.098998
    48  H    0.097643
    49  H    0.076232
    50  H    0.107247
    51  H    0.106349
    52  H    0.070862
    53  H    0.100779
    54  H    0.042463
    55  H    0.080179
    56  H    0.073543
    57  H    0.081355
    58  H    0.119559
    59  H    0.117919
    60  H    0.090197
    61  H    0.113477
    62  H    0.107729
    63  H    0.094873
    64  H    0.115484
    65  H    0.094729
    66  H    0.124221
    67  H    0.130546
    68  H    0.067699
    69  H    0.309451
    70  H    0.082359
    71  H    0.076773
    72  H    0.126062
    73  H    0.118004
    74  H    0.113955
    75  H    0.306521
    76  H    0.068594
    77  H    0.119591
    78  H    0.119619
    79  H    0.118802
    80  H    0.082311
    81  H    0.132980
    82  H    0.130130
    83  H    0.089007
    84  H    0.066801
    85  H    0.089346
    86  H    0.075226
    87  H    0.066187
    88  H    0.073217
    89  H    0.131338
    90  H    0.140753
    91  H    0.105439
    92  H    0.053977
    93  H    0.081110
    94  H    0.118070
    95  H    0.069125
    96  H    0.122281
    97  H    0.084179
    98  H    0.084193
 Sum of Mulliken charges =  -0.00000

 Dipole moment (field-independent basis, Debye):
    X=              0.1032    Y=             -0.2692    Z=             -0.9575  Tot=              1.0000
 Quadrupole moment (field-independent basis, Debye-Ang):
   XX=           -272.2755   YY=           -242.0056   ZZ=           -263.3512
   XY=             10.5704   XZ=             30.5948   YZ=              0.2183

 Normal termination of Gaussian 16 at Sun Jul 14 03:24:56 2019.
