 Gaussian 16, Revision A.03,
 Gaussian 16:  ES64L-G16RevA.03 25-Dec-2016

 -------------------------------------
 # td=(NStates=1) CAM-B3LYP/6-31G(d,p)
 -------------------------------------

 --
 TD
 --
 Symbolic Z-matrix:
 Charge =  0 Multiplicity = 1

                         Standard orientation:
 ---------------------------------------------------------------------
 Center     Atomic      Atomic             Coordinates (Angstroms)
 Number     Number       Type             X           Y           Z
 ---------------------------------------------------------------------
      1          8           0      -14.148198   -2.009145    0.525951
      2          8           0       14.750012    0.807637   -0.025514
      3          6           0      -11.674642    0.036173    1.204740
      4          6           0      -11.039284    0.165436   -0.038727
      5          6           0      -11.927842   -1.499763    1.423888
      6          6           0      -12.780497   -2.112035    0.209556
      7          6           0      -11.710917   -0.400885   -1.269512
      8          6           0       11.233095    0.939710    1.039970
      9          6           0      -10.921166    0.472895    2.468551
     10          6           0      -13.012778    0.630322    1.202891
     11          6           0       12.548485    1.580189    0.658190
     12          6           0      -12.383290   -1.500835   -1.126032
     13          6           0       13.445827    0.401928    0.201255
     14          6           0       10.581014   -0.061744   -0.043496
     15          6           0       -9.417821    0.029128   -0.110541
     16          6           0       12.974007   -0.199604   -1.140984
     17          6           0       11.431231   -0.554227   -1.073694
     18          6           0       10.269781    2.176711    1.241199
     19          6           0       11.241126    0.206131    2.383306
     20          6           0      -11.469584    0.203545   -2.574654
     21          6           0       -8.483327    0.899112   -0.228479
     22          6           0        9.355080   -0.393949    0.169337
     23          6           0       10.962534   -1.443487   -2.168270
     24          6           0       -7.146739    0.568036   -0.197571
     25          6           0        8.759082   -1.672380   -0.085152
     26          6           0       -6.633844   -0.920806    0.055460
     27          6           0        7.400691   -2.244545   -0.021218
     28          6           0       -6.191428    1.534673   -0.411293
     29          6           0        7.184915   -3.636182    0.125726
     30          6           0        6.400387   -1.285703   -0.213291
     31          6           0       -4.767137    1.393925   -0.459667
     32          6           0        5.010858   -1.525343   -0.058285
     33          6           0       -4.003558    2.586881   -0.651688
     34          6           0       -2.559821    2.675210   -0.539193
     35          6           0        4.011118   -0.524060   -0.107783
     36          6           0        2.671942   -0.668394   -0.041199
     37          6           0       -2.053626    4.037129   -0.718634
     38          6           0       -1.782762    1.575963   -0.398252
     39          6           0        1.807166    0.369011   -0.178703
     40          6           0        2.145169   -2.094479    0.379864
     41          6           0       -0.381483    1.592703   -0.267119
     42          6           0        0.411540    0.408195   -0.107433
     43          1           0      -11.097985    1.285028   -0.281664
     44          1           0      -12.397274   -1.921703    2.427546
     45          1           0      -10.940769   -2.025604    1.408148
     46          1           0      -12.743742   -3.078246    0.081201
     47          1           0       -9.861712   -0.027500    2.517945
     48          1           0      -10.701152    1.505432    2.670449
     49          1           0      -11.466302    0.094071    3.405571
     50          1           0      -13.656159    0.419202    0.416314
     51          1           0      -13.629189    0.368040    1.979089
     52          1           0      -12.950845    1.630370    1.370408
     53          1           0       12.449755    2.192480   -0.130700
     54          1           0       12.903850    2.302368    1.383288
     55          1           0      -13.130979   -1.938245   -2.080869
     56          1           0       13.423654   -0.412589    1.124405
     57          1           0       -9.158610   -1.092355   -0.348218
     58          1           0       13.349344   -1.050672   -1.499453
     59          1           0       12.886969    0.617572   -1.912929
     60          1           0        9.206491    2.085300    1.704938
     61          1           0        9.976096    2.469559    0.210930
     62          1           0       10.843742    2.927249    1.803238
     63          1           0       12.107359   -0.624384    2.471887
     64          1           0       10.211119   -0.150060    2.649438
     65          1           0       11.512584    0.972326    3.089523
     66          1           0      -10.469067    0.023304   -2.720680
     67          1           0      -11.855467    1.350359   -2.491473
     68          1           0      -11.987021   -0.278815   -3.327806
     69          1           0      -14.771068   -1.911746   -0.371818
     70          1           0        8.882314    0.453820    0.511055
     71          1           0       -8.849552    1.794894   -0.381249
     72          1           0       11.080621   -2.412330   -2.141951
     73          1           0        9.824393   -1.120184   -2.336961
     74          1           0       11.568234   -1.200057   -2.941034
     75          1           0       15.133573    1.130044    0.728770
     76          1           0        9.385329   -2.507456   -0.158191
     77          1           0       -5.392384   -1.040363    0.095521
     78          1           0       -6.992878   -1.317705    0.992219
     79          1           0       -6.989020   -1.481764   -0.742523
     80          1           0       -6.500102    2.506164   -0.926748
     81          1           0        6.685142   -4.139804    1.000773
     82          1           0        6.594528   -4.016569   -0.783397
     83          1           0        7.995889   -4.272360   -0.171663
     84          1           0        6.804831   -0.291541   -0.448873
     85          1           0       -4.365518    0.372538   -0.287825
     86          1           0        4.711171   -2.450286    0.128144
     87          1           0       -4.587533    3.408071   -0.715568
     88          1           0        4.476488    0.317820   -0.348159
     89          1           0       -1.217797    4.176493   -1.587712
     90          1           0       -1.538708    4.317747    0.145327
     91          1           0       -2.666615    4.965795   -1.002553
     92          1           0       -2.473117    0.650377   -0.347223
     93          1           0        2.357419    1.226230   -0.466038
     94          1           0        2.887844   -2.511329    1.316359
     95          1           0        1.008125   -2.170031    0.908267
     96          1           0        2.244262   -2.782989   -0.331365
     97          1           0        0.046875    2.508598   -0.558988
     98          1           0       -0.002973   -0.700019    0.101002
 ---------------------------------------------------------------------

 SCF Done:  E(RCAM-B3LYP) =  -1706.84344284     A.U. after   15 cycles

 Excitation energies and oscillator strengths:

 Excited State   1:      Singlet-A      1.9375 eV  639.91 nm  f=3.1402  <S**2>=0.000
     155 ->158         0.15755
     156 ->157         0.69111
 This state for optimization and/or second-order correction.
 Total Energy, E(TD-HF/TD-DFT) =  -1706.77224055
 Copying the excited state density for this state as the 1-particle RhoCI density.

 The electronic state is 1-A.
 Alpha  occ. eigenvalues --  -19.20863 -19.20429 -10.32025 -10.28865 -10.27820
 Alpha  occ. eigenvalues --  -10.27476 -10.27434 -10.27328 -10.27159 -10.27018
 Alpha  occ. eigenvalues --  -10.26984 -10.26900 -10.26890 -10.26860 -10.26854
 Alpha  occ. eigenvalues --  -10.26779 -10.26434 -10.26271 -10.26201 -10.26146
 Alpha  occ. eigenvalues --  -10.26108 -10.26091 -10.26014 -10.25959 -10.25903
 Alpha  occ. eigenvalues --  -10.25862 -10.25719 -10.25605 -10.25596 -10.25533
 Alpha  occ. eigenvalues --  -10.25222 -10.25130 -10.25114 -10.25103 -10.24995
 Alpha  occ. eigenvalues --  -10.24659 -10.24533 -10.24484 -10.24294 -10.24190
 Alpha  occ. eigenvalues --  -10.23558 -10.20348  -1.11511  -1.07221  -0.95026
 Alpha  occ. eigenvalues --   -0.93626  -0.92297  -0.91967  -0.91153  -0.90277
 Alpha  occ. eigenvalues --   -0.88304  -0.87484  -0.86747  -0.86170  -0.85041
 Alpha  occ. eigenvalues --   -0.82531  -0.81255  -0.80591  -0.80280  -0.78273
 Alpha  occ. eigenvalues --   -0.77307  -0.77168  -0.76643  -0.76291  -0.75945
 Alpha  occ. eigenvalues --   -0.75398  -0.75104  -0.74248  -0.73108  -0.70808
 Alpha  occ. eigenvalues --   -0.69812  -0.68284  -0.67452  -0.66324  -0.64147
 Alpha  occ. eigenvalues --   -0.63735  -0.62879  -0.62195  -0.61225  -0.60569
 Alpha  occ. eigenvalues --   -0.59643  -0.59011  -0.58427  -0.57332  -0.56162
 Alpha  occ. eigenvalues --   -0.55981  -0.55714  -0.54948  -0.54506  -0.54118
 Alpha  occ. eigenvalues --   -0.53624  -0.53121  -0.52450  -0.51817  -0.50995
 Alpha  occ. eigenvalues --   -0.50707  -0.50567  -0.50062  -0.49640  -0.49246
 Alpha  occ. eigenvalues --   -0.48972  -0.48761  -0.48590  -0.48406  -0.48142
 Alpha  occ. eigenvalues --   -0.48001  -0.47803  -0.47462  -0.47237  -0.47044
 Alpha  occ. eigenvalues --   -0.46303  -0.46044  -0.45942  -0.45067  -0.44899
 Alpha  occ. eigenvalues --   -0.44618  -0.44459  -0.44375  -0.43686  -0.43498
 Alpha  occ. eigenvalues --   -0.42876  -0.42760  -0.42427  -0.42247  -0.41963
 Alpha  occ. eigenvalues --   -0.41884  -0.41390  -0.41061  -0.40431  -0.40382
 Alpha  occ. eigenvalues --   -0.40223  -0.39911  -0.39618  -0.39263  -0.38994
 Alpha  occ. eigenvalues --   -0.38649  -0.38263  -0.38179  -0.37847  -0.37772
 Alpha  occ. eigenvalues --   -0.37403  -0.37220  -0.36936  -0.36517  -0.35892
 Alpha  occ. eigenvalues --   -0.34841  -0.34420  -0.33749  -0.32323  -0.31143
 Alpha  occ. eigenvalues --   -0.31008  -0.29994  -0.29029  -0.26002  -0.22720
 Alpha  occ. eigenvalues --   -0.18674
 Alpha virt. eigenvalues --   -0.06390  -0.01544   0.02363   0.05993   0.06920
 Alpha virt. eigenvalues --    0.09078   0.11296   0.11560   0.11786   0.12199
 Alpha virt. eigenvalues --    0.12789   0.13012   0.13558   0.13826   0.14385

 Mulliken charges:
               1
     1  O   -0.569540
     2  O   -0.543329
     3  C    0.029867
     4  C   -0.119043
     5  C   -0.192144
     6  C    0.190771
     7  C    0.118713
     8  C   -0.029451
     9  C   -0.310219
    10  C   -0.279988
    11  C   -0.192096
    12  C   -0.158101
    13  C    0.180639
    14  C    0.096667
    15  C   -0.120440
    16  C   -0.187791
    17  C   -0.017019
    18  C   -0.330827
    19  C   -0.274174
    20  C   -0.335116
    21  C   -0.020813
    22  C   -0.099311
    23  C   -0.351571
    24  C    0.080217
    25  C   -0.138954
    26  C   -0.355896
    27  C    0.117105
    28  C   -0.144509
    29  C   -0.411931
    30  C   -0.111383
    31  C   -0.060699
    32  C   -0.079001
    33  C   -0.127553
    34  C    0.120830
    35  C   -0.103314
    36  C    0.135380
    37  C   -0.398705
    38  C   -0.088258
    39  C   -0.109275
    40  C   -0.366262
    41  C   -0.112817
    42  C   -0.083567
    43  H    0.072557
    44  H    0.096719
    45  H    0.086646
    46  H    0.084049
    47  H    0.091337
    48  H    0.101846
    49  H    0.098083
    50  H    0.104950
    51  H    0.112666
    52  H    0.085783
    53  H    0.113151
    54  H    0.089134
    55  H    0.026940
    56  H    0.046716
    57  H    0.064937
    58  H    0.120027
    59  H    0.122586
    60  H    0.095681
    61  H    0.107165
    62  H    0.098762
    63  H    0.080609
    64  H    0.113898
    65  H    0.092856
    66  H    0.135363
    67  H    0.093759
    68  H    0.117443
    69  H    0.298482
    70  H    0.073401
    71  H    0.073146
    72  H    0.127435
    73  H    0.112359
    74  H    0.100393
    75  H    0.293250
    76  H    0.073983
    77  H    0.081481
    78  H    0.128087
    79  H    0.136424
    80  H    0.079317
    81  H    0.131669
    82  H    0.115045
    83  H    0.119073
    84  H    0.082332
    85  H    0.084656
    86  H    0.063902
    87  H    0.083334
    88  H    0.064221
    89  H    0.095883
    90  H    0.137115
    91  H    0.112746
    92  H    0.072199
    93  H    0.072223
    94  H    0.083911
    95  H    0.088909
    96  H    0.141397
    97  H    0.095296
    98  H    0.077575
 Sum of Mulliken charges =  -0.00000

 Dipole moment (field-independent basis, Debye):
    X=              1.0873    Y=              0.4061    Z=             -1.0596  Tot=              1.5716
 Quadrupole moment (field-independent basis, Debye-Ang):
   XX=           -258.6842   YY=           -241.8044   ZZ=           -262.0173
   XY=             -5.2001   XZ=             34.5721   YZ=              3.9383

 Normal termination of Gaussian 16 at Sat Jul 13 04:03:45 2019.
