 Gaussian 16, Revision A.03,
 Gaussian 16:  ES64L-G16RevA.03 25-Dec-2016

 -------------------------------------
 # td=(NStates=1) CAM-B3LYP/6-31G(d,p)
 -------------------------------------

 --
 TD
 --
 Symbolic Z-matrix:
 Charge =  0 Multiplicity = 1

                         Standard orientation:
 ---------------------------------------------------------------------
 Center     Atomic      Atomic             Coordinates (Angstroms)
 Number     Number       Type             X           Y           Z
 ---------------------------------------------------------------------
      1          8           0       14.257122    1.685257    0.660517
      2          8           0      -14.711438   -1.116308   -0.087797
      3          6           0       11.774226   -0.237996    1.258016
      4          6           0       11.050485   -0.392388   -0.166617
      5          6           0       12.028188    1.273935    1.486667
      6          6           0       12.783481    2.028613    0.343179
      7          6           0       11.748290    0.447331   -1.278673
      8          6           0      -11.138166   -1.083537    1.015494
      9          6           0       10.794883   -0.769883    2.397367
     10          6           0       13.076281   -1.131548    1.256828
     11          6           0      -12.517703   -1.607025    0.758759
     12          6           0       12.466773    1.492144   -0.991909
     13          6           0      -13.511092   -0.562691    0.224751
     14          6           0      -10.694082   -0.014055   -0.042181
     15          6           0        9.630340    0.089106   -0.144471
     16          6           0      -13.007206    0.012060   -1.042075
     17          6           0      -11.575688    0.523438   -0.953623
     18          6           0      -10.136959   -2.270980    1.048532
     19          6           0      -11.181184   -0.484599    2.322827
     20          6           0       11.452368   -0.096318   -2.691489
     21          6           0        8.598821   -0.759780   -0.307273
     22          6           0       -9.317537    0.495193    0.079706
     23          6           0      -11.154175    1.247740   -2.105830
     24          6           0        7.188867   -0.417199   -0.301983
     25          6           0       -8.945065    1.781401   -0.084655
     26          6           0        6.893151    1.047799    0.019853
     27          6           0       -7.513225    2.249674    0.015104
     28          6           0        6.188704   -1.408853   -0.455153
     29          6           0       -7.328508    3.716214    0.411127
     30          6           0       -6.444363    1.335514   -0.032670
     31          6           0        4.824730   -1.294792   -0.378895
     32          6           0       -5.148977    1.602156   -0.110886
     33          6           0        3.949144   -2.315131   -0.632594
     34          6           0        2.516888   -2.371889   -0.553618
     35          6           0       -4.100560    0.688993   -0.219573
     36          6           0       -2.673412    0.962997   -0.100539
     37          6           0        1.882248   -3.692298   -0.898286
     38          6           0        1.756955   -1.288471   -0.340658
     39          6           0       -1.869841   -0.160451   -0.241369
     40          6           0       -2.133771    2.241034    0.255192
     41          6           0        0.381608   -1.379546   -0.438946
     42          6           0       -0.411592   -0.253085   -0.114066
     43          1           0       11.042144   -1.416395   -0.428327
     44          1           0       12.537724    1.385971    2.445676
     45          1           0       11.124469    1.864201    1.445732
     46          1           0       12.772108    2.989283    0.465910
     47          1           0        9.996459    0.097414    2.483095
     48          1           0       10.501209   -1.801811    2.269495
     49          1           0       11.457312   -0.447137    3.295440
     50          1           0       13.881413   -0.783994    0.557409
     51          1           0       13.431233   -1.029675    2.344369
     52          1           0       12.704398   -2.229270    1.136187
     53          1           0      -12.334114   -2.349292    0.000246
     54          1           0      -12.994793   -2.072029    1.536721
     55          1           0       12.711290    2.153623   -1.673163
     56          1           0      -13.688095    0.111919    1.017609
     57          1           0        9.376743    1.084106    0.006246
     58          1           0      -13.697763    0.869303   -1.451741
     59          1           0      -13.035659   -1.078326   -1.710729
     60          1           0       -9.122484   -2.040717    1.532792
     61          1           0       -9.950338   -2.930802    0.261163
     62          1           0      -10.548986   -2.958582    1.803943
     63          1           0      -11.764394    0.358157    2.704337
     64          1           0      -10.161051    0.147674    2.519429
     65          1           0      -11.197456   -1.240548    3.130595
     66          1           0       10.473522    0.051365   -3.081781
     67          1           0       11.672302   -1.175739   -2.824359
     68          1           0       12.191600    0.670589   -3.403249
     69          1           0       14.926065    1.817965   -0.077323
     70          1           0       -8.648914   -0.192174    0.558645
     71          1           0        8.608688   -1.850500   -0.431148
     72          1           0      -11.563799    2.241712   -2.002008
     73          1           0       -9.918906    1.519920   -2.239857
     74          1           0      -11.418917    0.871134   -3.142188
     75          1           0      -15.182053   -1.379749    0.788815
     76          1           0       -9.801111    2.571386   -0.098817
     77          1           0        5.893471    1.241151    0.099822
     78          1           0        7.374793    1.411995    1.040598
     79          1           0        7.210069    1.728175   -0.705016
     80          1           0        6.711035   -2.337946   -0.717012
     81          1           0       -6.399220    3.873807    1.302722
     82          1           0       -6.772091    4.230089   -0.399199
     83          1           0       -8.251807    4.322836    0.723935
     84          1           0       -6.834838    0.215996   -0.368776
     85          1           0        4.447126   -0.161134   -0.038931
     86          1           0       -4.811828    2.664756    0.167446
     87          1           0        4.413985   -3.287181   -0.840642
     88          1           0       -4.260453   -0.342909   -0.446728
     89          1           0        1.468460   -3.800803   -2.060704
     90          1           0        0.993546   -3.931042   -0.367450
     91          1           0        2.718170   -4.600816   -0.937411
     92          1           0        2.235574   -0.288907   -0.339955
     93          1           0       -2.294811   -1.209476   -0.466555
     94          1           0       -1.843271    2.362394    1.581092
     95          1           0       -0.955892    2.332324   -0.393036
     96          1           0       -2.907257    3.295717   -0.053174
     97          1           0       -0.048559   -2.269557   -0.780761
     98          1           0        0.068538    0.712978    0.086594
 ---------------------------------------------------------------------

 SCF Done:  E(RCAM-B3LYP) =  -1706.90887260     A.U. after   15 cycles

 Excitation energies and oscillator strengths:

 Excited State   1:      Singlet-A      2.0941 eV  592.05 nm  f=3.1291  <S**2>=0.000
     155 ->158         0.15983
     156 ->157         0.68774
 This state for optimization and/or second-order correction.
 Total Energy, E(TD-HF/TD-DFT) =  -1706.83191460
 Copying the excited state density for this state as the 1-particle RhoCI density.

 The electronic state is 1-A.
 Alpha  occ. eigenvalues --  -19.21553 -19.19459 -10.31774 -10.29857 -10.29095
 Alpha  occ. eigenvalues --  -10.28324 -10.28065 -10.27900 -10.27724 -10.27649
 Alpha  occ. eigenvalues --  -10.27625 -10.27376 -10.27293 -10.27230 -10.27222
 Alpha  occ. eigenvalues --  -10.27061 -10.26991 -10.26975 -10.26956 -10.26929
 Alpha  occ. eigenvalues --  -10.26464 -10.26390 -10.26324 -10.26321 -10.26287
 Alpha  occ. eigenvalues --  -10.26282 -10.26058 -10.26038 -10.25885 -10.25657
 Alpha  occ. eigenvalues --  -10.25630 -10.25563 -10.25433 -10.25405 -10.25366
 Alpha  occ. eigenvalues --  -10.24988 -10.24977 -10.24955 -10.24916 -10.24802
 Alpha  occ. eigenvalues --  -10.23763 -10.23277  -1.10930  -1.04161  -0.93984
 Alpha  occ. eigenvalues --   -0.92957  -0.92517  -0.91434  -0.90432  -0.89536
 Alpha  occ. eigenvalues --   -0.88056  -0.87013  -0.86194  -0.85619  -0.84460
 Alpha  occ. eigenvalues --   -0.83034  -0.82141  -0.80288  -0.79877  -0.77390
 Alpha  occ. eigenvalues --   -0.76782  -0.76454  -0.75768  -0.75695  -0.75155
 Alpha  occ. eigenvalues --   -0.74975  -0.74639  -0.73633  -0.72296  -0.70354
 Alpha  occ. eigenvalues --   -0.69164  -0.68239  -0.66331  -0.64730  -0.64197
 Alpha  occ. eigenvalues --   -0.62947  -0.62191  -0.62015  -0.60053  -0.59919
 Alpha  occ. eigenvalues --   -0.59666  -0.58142  -0.57803  -0.56965  -0.56188
 Alpha  occ. eigenvalues --   -0.55409  -0.55357  -0.54685  -0.54313  -0.54028
 Alpha  occ. eigenvalues --   -0.53791  -0.52632  -0.52254  -0.51917  -0.51185
 Alpha  occ. eigenvalues --   -0.50582  -0.50364  -0.49685  -0.48994  -0.48919
 Alpha  occ. eigenvalues --   -0.48735  -0.48515  -0.47820  -0.47443  -0.47182
 Alpha  occ. eigenvalues --   -0.46873  -0.46688  -0.46572  -0.46304  -0.46135
 Alpha  occ. eigenvalues --   -0.45659  -0.45475  -0.45022  -0.44700  -0.44033
 Alpha  occ. eigenvalues --   -0.43895  -0.43554  -0.43378  -0.43232  -0.43007
 Alpha  occ. eigenvalues --   -0.42738  -0.42606  -0.42391  -0.41657  -0.41630
 Alpha  occ. eigenvalues --   -0.41559  -0.41338  -0.40890  -0.40664  -0.40500
 Alpha  occ. eigenvalues --   -0.40470  -0.39667  -0.39294  -0.38960  -0.38893
 Alpha  occ. eigenvalues --   -0.38675  -0.38209  -0.38118  -0.37867  -0.37619
 Alpha  occ. eigenvalues --   -0.37489  -0.37337  -0.36694  -0.36154  -0.35681
 Alpha  occ. eigenvalues --   -0.34839  -0.33800  -0.33179  -0.32192  -0.31766
 Alpha  occ. eigenvalues --   -0.31334  -0.30255  -0.28727  -0.26498  -0.23071
 Alpha  occ. eigenvalues --   -0.19295
 Alpha virt. eigenvalues --   -0.06013  -0.01664   0.02089   0.05292   0.06243
 Alpha virt. eigenvalues --    0.08236   0.09465   0.10452   0.11095   0.11411
 Alpha virt. eigenvalues --    0.11510   0.12263   0.13047   0.13504   0.13658

 Mulliken charges:
               1
     1  O   -0.595966
     2  O   -0.547967
     3  C    0.019231
     4  C   -0.135395
     5  C   -0.186225
     6  C    0.155383
     7  C    0.117432
     8  C    0.003612
     9  C   -0.289023
    10  C   -0.278255
    11  C   -0.177344
    12  C   -0.115340
    13  C    0.177675
    14  C    0.060422
    15  C   -0.071881
    16  C   -0.202389
    17  C    0.057360
    18  C   -0.327417
    19  C   -0.300773
    20  C   -0.346580
    21  C   -0.080896
    22  C   -0.092152
    23  C   -0.366640
    24  C    0.094582
    25  C   -0.131212
    26  C   -0.377510
    27  C    0.089742
    28  C   -0.120753
    29  C   -0.367978
    30  C   -0.100995
    31  C   -0.059926
    32  C   -0.088826
    33  C   -0.136337
    34  C    0.121008
    35  C   -0.102003
    36  C    0.167461
    37  C   -0.375935
    38  C   -0.095539
    39  C   -0.136516
    40  C   -0.336130
    41  C   -0.079294
    42  C   -0.101691
    43  H    0.082300
    44  H    0.110267
    45  H    0.088688
    46  H    0.093261
    47  H    0.093070
    48  H    0.112088
    49  H    0.088733
    50  H    0.123756
    51  H    0.089684
    52  H    0.075371
    53  H    0.093681
    54  H    0.076826
    55  H    0.069573
    56  H    0.072775
    57  H    0.088930
    58  H    0.094821
    59  H    0.094127
    60  H    0.098718
    61  H    0.120387
    62  H    0.097834
    63  H    0.114220
    64  H    0.070377
    65  H    0.095502
    66  H    0.137441
    67  H    0.121077
    68  H    0.068193
    69  H    0.294137
    70  H    0.095143
    71  H    0.066103
    72  H    0.112348
    73  H    0.094345
    74  H    0.112066
    75  H    0.304117
    76  H    0.095852
    77  H    0.105449
    78  H    0.101454
    79  H    0.128263
    80  H    0.075057
    81  H    0.084257
    82  H    0.129104
    83  H    0.115716
    84  H    0.071453
    85  H    0.076118
    86  H    0.067779
    87  H    0.079187
    88  H    0.079375
    89  H    0.096367
    90  H    0.133326
    91  H    0.090388
    92  H    0.090332
    93  H    0.078236
    94  H    0.087852
    95  H    0.079209
    96  H    0.082679
    97  H    0.089520
    98  H    0.074043
 Sum of Mulliken charges =  -0.00000

 Dipole moment (field-independent basis, Debye):
    X=             -0.9702    Y=              0.6739    Z=             -0.0296  Tot=              1.1817
 Quadrupole moment (field-independent basis, Debye-Ang):
   XX=           -263.7284   YY=           -242.1246   ZZ=           -265.8793
   XY=              8.0113   XZ=            -46.3305   YZ=             -0.3999

 Normal termination of Gaussian 16 at Mon Jul 15 04:29:43 2019.
