 Gaussian 16, Revision A.03,
 Gaussian 16:  ES64L-G16RevA.03 25-Dec-2016

 -------------------------------------
 # td=(NStates=1) CAM-B3LYP/6-31G(d,p)
 -------------------------------------

 --
 TD
 --
 Symbolic Z-matrix:
 Charge =  0 Multiplicity = 1

                         Standard orientation:
 ---------------------------------------------------------------------
 Center     Atomic      Atomic             Coordinates (Angstroms)
 Number     Number       Type             X           Y           Z
 ---------------------------------------------------------------------
      1          8           0       14.247422    1.744980    0.633946
      2          8           0      -14.772303   -1.280467    0.187146
      3          6           0       11.811253   -0.370229    1.312173
      4          6           0       11.006770   -0.447875   -0.027765
      5          6           0       12.134070    1.165158    1.656751
      6          6           0       12.792277    1.932844    0.554148
      7          6           0       11.685169    0.488510   -1.217879
      8          6           0      -11.069751   -1.030698    1.199957
      9          6           0       11.004120   -0.848205    2.481506
     10          6           0       13.050263   -1.129859    1.058247
     11          6           0      -12.430639   -1.684880    0.880091
     12          6           0       12.394385    1.545644   -0.853088
     13          6           0      -13.516206   -0.637049    0.487590
     14          6           0      -10.722626   -0.016915    0.086193
     15          6           0        9.602402    0.068380    0.214013
     16          6           0      -13.050353    0.051673   -0.877257
     17          6           0      -11.629734    0.506191   -0.913761
     18          6           0      -10.007398   -2.228841    1.155724
     19          6           0      -11.103284   -0.373210    2.647020
     20          6           0       11.336240    0.027834   -2.578436
     21          6           0        8.428574   -0.763203   -0.164340
     22          6           0       -9.304397    0.423959    0.101819
     23          6           0      -11.216834    1.341656   -2.112595
     24          6           0        7.088650   -0.329991   -0.160023
     25          6           0       -8.886214    1.711514    0.038338
     26          6           0        6.748255    0.995132    0.367992
     27          6           0       -7.430934    2.190014   -0.051467
     28          6           0        6.172405   -1.354035   -0.396462
     29          6           0       -7.320317    3.693144    0.116917
     30          6           0       -6.356697    1.341839   -0.338491
     31          6           0        4.809323   -1.273973   -0.451574
     32          6           0       -5.056787    1.651529   -0.272628
     33          6           0        3.992422   -2.244556   -0.941024
     34          6           0        2.584373   -2.374629   -0.969560
     35          6           0       -4.088848    0.732275   -0.367010
     36          6           0       -2.670419    0.921825   -0.244829
     37          6           0        1.995764   -3.632301   -1.501731
     38          6           0        1.697060   -1.289006   -0.468427
     39          6           0       -1.814656   -0.169398   -0.454146
     40          6           0       -2.152483    2.304151    0.020122
     41          6           0        0.392517   -1.385574   -0.573650
     42          6           0       -0.492413   -0.213888   -0.249468
     43          1           0       10.939444   -1.494084   -0.340893
     44          1           0       12.811559    1.307504    2.376034
     45          1           0       11.228394    1.731088    1.716072
     46          1           0       12.443327    2.944087    0.651897
     47          1           0       10.202104   -0.168506    2.952753
     48          1           0       10.427634   -1.775268    2.093593
     49          1           0       11.599241   -1.158073    3.300638
     50          1           0       13.598937   -0.878085    0.072668
     51          1           0       13.935592   -1.078792    1.764997
     52          1           0       12.567813   -2.097374    1.180473
     53          1           0      -12.534235   -2.250790    0.106983
     54          1           0      -12.643327   -2.317842    1.648737
     55          1           0       12.840291    2.225145   -1.752680
     56          1           0      -13.831565    0.022557    1.307289
     57          1           0        9.386851    1.085645    0.585973
     58          1           0      -13.605082    0.864143   -1.193987
     59          1           0      -13.379440   -0.823077   -1.672812
     60          1           0       -9.095977   -2.000534    1.683349
     61          1           0       -9.791684   -2.500522    0.160453
     62          1           0      -10.351801   -2.950475    1.815379
     63          1           0      -11.957306    0.418749    2.818344
     64          1           0      -10.192000    0.460694    2.816656
     65          1           0      -11.140064   -1.224190    3.422053
     66          1           0       10.283099    0.060188   -2.911678
     67          1           0       11.788801   -0.960711   -2.488433
     68          1           0       11.963480    0.740356   -3.256504
     69          1           0       14.565217    2.321396   -0.118967
     70          1           0       -8.531915   -0.343879    0.326562
     71          1           0        8.591139   -1.908125   -0.523585
     72          1           0      -11.506713    2.288968   -1.979663
     73          1           0      -10.105821    1.264879   -2.317497
     74          1           0      -11.854773    1.015053   -2.963006
     75          1           0      -14.961369   -2.000688    0.985842
     76          1           0       -9.579671    2.572400   -0.014406
     77          1           0        5.737269    1.124997    0.121412
     78          1           0        7.087496    0.991386    1.578384
     79          1           0        7.374105    2.009001    0.003830
     80          1           0        6.793946   -2.131207   -0.922973
     81          1           0       -6.700553    4.028261    1.084604
     82          1           0       -6.653939    3.973774   -0.608970
     83          1           0       -8.235525    4.375049    0.253967
     84          1           0       -6.590879    0.371290   -0.487301
     85          1           0        4.296431   -0.426491   -0.179231
     86          1           0       -4.594478    2.751353   -0.638617
     87          1           0        4.560660   -3.083032   -1.189294
     88          1           0       -4.146255   -0.273552   -0.327498
     89          1           0        1.275441   -3.301412   -2.510059
     90          1           0        1.242178   -4.128045   -0.683230
     91          1           0        2.842693   -4.363935   -1.733454
     92          1           0        2.292672   -0.493161   -0.335690
     93          1           0       -2.319794   -1.071902   -0.610846
     94          1           0       -1.994377    2.513790    1.083069
     95          1           0       -1.056666    2.576595   -0.477162
     96          1           0       -3.205416    3.108381   -0.466177
     97          1           0       -0.396909   -2.034931   -0.983700
     98          1           0        0.048944    0.606124    0.049622
 ---------------------------------------------------------------------

 SCF Done:  E(RCAM-B3LYP) =  -1706.84092014     A.U. after   17 cycles

 Excitation energies and oscillator strengths:

 Excited State   1:      Singlet-A      1.6041 eV  772.91 nm  f=2.8589  <S**2>=0.000
     155 ->158        -0.10569
     156 ->157         0.71604
     156 <-157        -0.16735
 This state for optimization and/or second-order correction.
 Total Energy, E(TD-HF/TD-DFT) =  -1706.78196998
 Copying the excited state density for this state as the 1-particle RhoCI density.

 The electronic state is 1-A.
 Alpha  occ. eigenvalues --  -19.21523 -19.21309 -10.30848 -10.30026 -10.28768
 Alpha  occ. eigenvalues --  -10.28750 -10.28393 -10.28373 -10.27990 -10.27930
 Alpha  occ. eigenvalues --  -10.27821 -10.27607 -10.27468 -10.27460 -10.27403
 Alpha  occ. eigenvalues --  -10.27137 -10.27096 -10.26958 -10.26908 -10.26724
 Alpha  occ. eigenvalues --  -10.26699 -10.26554 -10.26396 -10.26345 -10.26336
 Alpha  occ. eigenvalues --  -10.26303 -10.26091 -10.26045 -10.25811 -10.25540
 Alpha  occ. eigenvalues --  -10.25506 -10.25293 -10.25221 -10.25218 -10.25020
 Alpha  occ. eigenvalues --  -10.24988 -10.24761 -10.24475 -10.24271 -10.23738
 Alpha  occ. eigenvalues --  -10.23287 -10.23219  -1.07740  -1.06740  -0.92938
 Alpha  occ. eigenvalues --   -0.92767  -0.92312  -0.92146  -0.90764  -0.89687
 Alpha  occ. eigenvalues --   -0.87339  -0.86972  -0.86702  -0.85506  -0.84130
 Alpha  occ. eigenvalues --   -0.83501  -0.82132  -0.80310  -0.80000  -0.78888
 Alpha  occ. eigenvalues --   -0.76757  -0.76361  -0.76215  -0.76105  -0.75723
 Alpha  occ. eigenvalues --   -0.75146  -0.74528  -0.74074  -0.72437  -0.69521
 Alpha  occ. eigenvalues --   -0.68355  -0.67322  -0.66765  -0.65164  -0.64089
 Alpha  occ. eigenvalues --   -0.62931  -0.62823  -0.61661  -0.61120  -0.60352
 Alpha  occ. eigenvalues --   -0.58532  -0.57866  -0.57679  -0.57507  -0.56206
 Alpha  occ. eigenvalues --   -0.55531  -0.55289  -0.54754  -0.54299  -0.54061
 Alpha  occ. eigenvalues --   -0.53365  -0.53196  -0.52000  -0.51958  -0.51172
 Alpha  occ. eigenvalues --   -0.50903  -0.50672  -0.50234  -0.49603  -0.49278
 Alpha  occ. eigenvalues --   -0.49115  -0.48295  -0.47731  -0.47698  -0.47165
 Alpha  occ. eigenvalues --   -0.46912  -0.46869  -0.46825  -0.46252  -0.46169
 Alpha  occ. eigenvalues --   -0.45949  -0.45739  -0.45455  -0.45320  -0.45165
 Alpha  occ. eigenvalues --   -0.44520  -0.44095  -0.43979  -0.43496  -0.43437
 Alpha  occ. eigenvalues --   -0.43390  -0.42805  -0.42607  -0.42220  -0.42042
 Alpha  occ. eigenvalues --   -0.41749  -0.41559  -0.41222  -0.40770  -0.40583
 Alpha  occ. eigenvalues --   -0.40464  -0.39754  -0.39644  -0.39475  -0.39254
 Alpha  occ. eigenvalues --   -0.39114  -0.38857  -0.38583  -0.38348  -0.37210
 Alpha  occ. eigenvalues --   -0.37076  -0.36975  -0.36204  -0.36054  -0.35851
 Alpha  occ. eigenvalues --   -0.34835  -0.34399  -0.33248  -0.32043  -0.31501
 Alpha  occ. eigenvalues --   -0.31418  -0.29779  -0.28070  -0.25814  -0.23710
 Alpha  occ. eigenvalues --   -0.17391
 Alpha virt. eigenvalues --   -0.07734  -0.01035   0.01828   0.05346   0.06781
 Alpha virt. eigenvalues --    0.07653   0.09361   0.10222   0.10498   0.11288
 Alpha virt. eigenvalues --    0.11811   0.12975   0.12997   0.13372   0.13684

 Mulliken charges:
               1
     1  O   -0.553691
     2  O   -0.578499
     3  C    0.037587
     4  C   -0.133206
     5  C   -0.167703
     6  C    0.118284
     7  C    0.104495
     8  C   -0.004690
     9  C   -0.307325
    10  C   -0.291145
    11  C   -0.171324
    12  C   -0.141631
    13  C    0.157295
    14  C    0.020758
    15  C   -0.093786
    16  C   -0.222131
    17  C    0.057367
    18  C   -0.320859
    19  C   -0.300363
    20  C   -0.342397
    21  C   -0.131266
    22  C   -0.119958
    23  C   -0.362464
    24  C    0.136785
    25  C   -0.105960
    26  C   -0.353507
    27  C    0.077814
    28  C   -0.124955
    29  C   -0.378665
    30  C   -0.107953
    31  C   -0.058219
    32  C   -0.079174
    33  C   -0.126026
    34  C    0.080373
    35  C   -0.072140
    36  C    0.102037
    37  C   -0.349657
    38  C   -0.088203
    39  C   -0.120374
    40  C   -0.337049
    41  C   -0.072173
    42  C   -0.090282
    43  H    0.088813
    44  H    0.119443
    45  H    0.086747
    46  H    0.089668
    47  H    0.098708
    48  H    0.085468
    49  H    0.109934
    50  H    0.112056
    51  H    0.097468
    52  H    0.086055
    53  H    0.112921
    54  H    0.075974
    55  H    0.049750
    56  H    0.084960
    57  H    0.092383
    58  H    0.114083
    59  H    0.104114
    60  H    0.106201
    61  H    0.121925
    62  H    0.102234
    63  H    0.100106
    64  H    0.093363
    65  H    0.096580
    66  H    0.134062
    67  H    0.123655
    68  H    0.093018
    69  H    0.304564
    70  H    0.093278
    71  H    0.068244
    72  H    0.132175
    73  H    0.128007
    74  H    0.106868
    75  H    0.301279
    76  H    0.084728
    77  H    0.116587
    78  H    0.103876
    79  H    0.095730
    80  H    0.083108
    81  H    0.102238
    82  H    0.135433
    83  H    0.114694
    84  H    0.078962
    85  H    0.073072
    86  H    0.069866
    87  H    0.069273
    88  H    0.069685
    89  H    0.095169
    90  H    0.108965
    91  H    0.107840
    92  H    0.079812
    93  H    0.072109
    94  H    0.136541
    95  H    0.095593
    96  H    0.046050
    97  H    0.092836
    98  H    0.067708
 Sum of Mulliken charges =  -0.00000

 Dipole moment (field-independent basis, Debye):
    X=             -1.4763    Y=              0.8489    Z=              0.0716  Tot=              1.7044
 Quadrupole moment (field-independent basis, Debye-Ang):
   XX=           -284.9263   YY=           -243.4461   ZZ=           -261.6185
   XY=             16.3784   XZ=            -30.8841   YZ=             -2.6158

 Normal termination of Gaussian 16 at Sun Jul 14 13:00:09 2019.
