 Gaussian 16, Revision A.03,
 Gaussian 16:  ES64L-G16RevA.03 25-Dec-2016

 -------------------------------------
 # td=(NStates=1) CAM-B3LYP/6-31G(d,p)
 -------------------------------------

 --
 TD
 --
 Symbolic Z-matrix:
 Charge =  0 Multiplicity = 1

                         Standard orientation:
 ---------------------------------------------------------------------
 Center     Atomic      Atomic             Coordinates (Angstroms)
 Number     Number       Type             X           Y           Z
 ---------------------------------------------------------------------
      1          8           0      -14.090226   -2.273987    0.291563
      2          8           0       14.822391    0.675536   -0.004286
      3          6           0      -11.687643   -0.217205    1.321485
      4          6           0      -10.909346    0.177159   -0.051328
      5          6           0      -11.980964   -1.665868    1.304277
      6          6           0      -12.756572   -2.204741   -0.000219
      7          6           0      -11.534848   -0.361503   -1.271911
      8          6           0       11.167080    0.859983    0.961892
      9          6           0      -10.811594    0.188069    2.573931
     10          6           0      -12.989707    0.629667    1.452218
     11          6           0       12.620077    1.344359    0.729005
     12          6           0      -12.344048   -1.466530   -1.228396
     13          6           0       13.532312    0.226851    0.206083
     14          6           0       10.687353   -0.208507   -0.076749
     15          6           0       -9.439800   -0.038842   -0.016436
     16          6           0       13.058538   -0.484789   -0.996417
     17          6           0       11.570006   -0.807387   -0.966185
     18          6           0       10.194660    2.141676    0.967960
     19          6           0       11.070609    0.270108    2.409791
     20          6           0      -11.400106    0.313987   -2.594867
     21          6           0       -8.473753    0.819092   -0.259916
     22          6           0        9.231872   -0.445155   -0.053395
     23          6           0       10.975053   -1.513477   -2.074067
     24          6           0       -7.062290    0.503866   -0.205837
     25          6           0        8.769930   -1.697982   -0.103307
     26          6           0       -6.564856   -0.955763   -0.095886
     27          6           0        7.409714   -2.031495   -0.105814
     28          6           0       -6.204401    1.631403   -0.229763
     29          6           0        7.023869   -3.430671    0.104022
     30          6           0        6.337359   -1.122900   -0.137361
     31          6           0       -4.764261    1.581157   -0.200689
     32          6           0        4.892840   -1.385446    0.069807
     33          6           0       -4.041452    2.734736   -0.377411
     34          6           0       -2.659319    2.807486   -0.523914
     35          6           0        3.940839   -0.415738   -0.130373
     36          6           0        2.530616   -0.539759   -0.002801
     37          6           0       -2.036252    4.180426   -0.797630
     38          6           0       -1.816682    1.724663   -0.455965
     39          6           0        1.713917    0.555990   -0.160138
     40          6           0        2.054477   -1.884456    0.366831
     41          6           0       -0.353771    1.735053   -0.368024
     42          6           0        0.330267    0.523638   -0.172844
     43          1           0      -11.066771    1.303123    0.031051
     44          1           0      -12.680525   -1.945088    2.044640
     45          1           0      -11.041805   -2.122545    1.385621
     46          1           0      -12.154231   -3.273683   -0.161848
     47          1           0       -9.667659   -0.323685    2.660828
     48          1           0      -10.607250    1.266843    2.639582
     49          1           0      -11.374788   -0.233281    3.423100
     50          1           0      -13.666271    0.044083    0.577376
     51          1           0      -13.428519    0.434281    2.430397
     52          1           0      -12.818142    1.632783    1.219476
     53          1           0       12.401840    2.147264   -0.085801
     54          1           0       12.951714    2.007666    1.693729
     55          1           0      -12.963540   -2.033081   -2.062854
     56          1           0       13.529948   -0.681781    0.969323
     57          1           0       -9.271097   -1.172085    0.047906
     58          1           0       13.706365   -1.244654   -1.291061
     59          1           0       13.029544    0.143713   -1.888799
     60          1           0        9.407204    1.941613    1.643475
     61          1           0        9.905131    2.474456   -0.165899
     62          1           0       10.762793    3.048053    1.532094
     63          1           0       11.649228   -0.586893    2.519100
     64          1           0        9.983298    0.010284    2.439969
     65          1           0       11.403043    0.941669    3.233198
     66          1           0      -10.196358    0.558241   -2.722813
     67          1           0      -11.789599    1.382972   -2.689923
     68          1           0      -11.797391   -0.068663   -3.450473
     69          1           0      -14.651162   -2.314397   -0.510092
     70          1           0        8.479098    0.541958   -0.021294
     71          1           0       -8.610280    1.764143   -0.357926
     72          1           0       10.947783   -2.549589   -2.036885
     73          1           0       10.032120   -1.289309   -2.585595
     74          1           0       11.638784   -1.474231   -3.009224
     75          1           0       15.271332    0.905585    1.009777
     76          1           0        9.550831   -2.406605    0.176770
     77          1           0       -5.442894   -1.004413   -0.581063
     78          1           0       -6.731467   -1.414143    0.969492
     79          1           0       -6.938258   -1.515654   -0.807621
     80          1           0       -6.659002    2.728819   -0.287998
     81          1           0        6.471621   -3.517120    1.117003
     82          1           0        6.289230   -3.910812   -0.585003
     83          1           0        7.940534   -3.913889    0.152135
     84          1           0        6.571470   -0.035505   -0.307101
     85          1           0       -4.363058    0.709525   -0.233038
     86          1           0        4.563784   -2.483722    0.223368
     87          1           0       -4.666500    3.729869   -0.195425
     88          1           0        4.416992    0.635121   -0.558565
     89          1           0       -1.178739    4.136865   -1.621985
     90          1           0       -1.424606    4.685932    0.028859
     91          1           0       -2.967007    4.916198   -1.213486
     92          1           0       -2.108416    0.704634   -0.391499
     93          1           0        2.206938    1.481545   -0.523259
     94          1           0        2.946380   -2.454045    1.021404
     95          1           0        0.810790   -1.834752    1.297921
     96          1           0        1.887857   -2.385202   -0.867443
     97          1           0        0.302702    2.523983   -0.511328
     98          1           0       -0.328674   -0.251707    0.081539
 ---------------------------------------------------------------------

 SCF Done:  E(RCAM-B3LYP) =  -1706.85231286     A.U. after   15 cycles

 Excitation energies and oscillator strengths:

 Excited State   1:      Singlet-A      2.1665 eV  572.28 nm  f=2.9141  <S**2>=0.000
     155 ->158        -0.16439
     156 ->157         0.68703
 This state for optimization and/or second-order correction.
 Total Energy, E(TD-HF/TD-DFT) =  -1706.77269609
 Copying the excited state density for this state as the 1-particle RhoCI density.

 The electronic state is 1-A.
 Alpha  occ. eigenvalues --  -19.23167 -19.22530 -10.32109 -10.31721 -10.31206
 Alpha  occ. eigenvalues --  -10.28256 -10.27859 -10.27753 -10.27602 -10.27425
 Alpha  occ. eigenvalues --  -10.27421 -10.27413 -10.27409 -10.27358 -10.27186
 Alpha  occ. eigenvalues --  -10.26934 -10.26919 -10.26903 -10.26805 -10.26721
 Alpha  occ. eigenvalues --  -10.26624 -10.26538 -10.26499 -10.26386 -10.26343
 Alpha  occ. eigenvalues --  -10.26232 -10.26218 -10.26205 -10.26178 -10.26045
 Alpha  occ. eigenvalues --  -10.26013 -10.25824 -10.25689 -10.25432 -10.25266
 Alpha  occ. eigenvalues --  -10.25182 -10.24788 -10.24364 -10.24363 -10.24233
 Alpha  occ. eigenvalues --  -10.23816 -10.23375  -1.12027  -1.08813  -0.93373
 Alpha  occ. eigenvalues --   -0.93135  -0.92321  -0.91541  -0.90636  -0.89919
 Alpha  occ. eigenvalues --   -0.87551  -0.86893  -0.86677  -0.85299  -0.84611
 Alpha  occ. eigenvalues --   -0.82705  -0.81674  -0.80401  -0.80057  -0.77309
 Alpha  occ. eigenvalues --   -0.77013  -0.75840  -0.75596  -0.75549  -0.74843
 Alpha  occ. eigenvalues --   -0.74601  -0.73842  -0.73500  -0.72368  -0.70229
 Alpha  occ. eigenvalues --   -0.68708  -0.67828  -0.66241  -0.64692  -0.64059
 Alpha  occ. eigenvalues --   -0.63641  -0.63215  -0.62869  -0.61260  -0.59914
 Alpha  occ. eigenvalues --   -0.58978  -0.58110  -0.57426  -0.57324  -0.55608
 Alpha  occ. eigenvalues --   -0.55199  -0.54689  -0.54306  -0.54144  -0.53973
 Alpha  occ. eigenvalues --   -0.53838  -0.53087  -0.52702  -0.51343  -0.50784
 Alpha  occ. eigenvalues --   -0.50167  -0.49904  -0.49675  -0.49541  -0.48989
 Alpha  occ. eigenvalues --   -0.48805  -0.48745  -0.48010  -0.47486  -0.47388
 Alpha  occ. eigenvalues --   -0.46856  -0.46400  -0.46229  -0.45918  -0.45752
 Alpha  occ. eigenvalues --   -0.45360  -0.45317  -0.45147  -0.44977  -0.44733
 Alpha  occ. eigenvalues --   -0.44674  -0.44547  -0.43921  -0.43367  -0.43165
 Alpha  occ. eigenvalues --   -0.43063  -0.42480  -0.42291  -0.42204  -0.41721
 Alpha  occ. eigenvalues --   -0.41692  -0.41468  -0.41001  -0.40791  -0.40705
 Alpha  occ. eigenvalues --   -0.40352  -0.39869  -0.39577  -0.39333  -0.38884
 Alpha  occ. eigenvalues --   -0.38665  -0.38587  -0.38498  -0.37613  -0.37344
 Alpha  occ. eigenvalues --   -0.37123  -0.36989  -0.36733  -0.35975  -0.35255
 Alpha  occ. eigenvalues --   -0.34814  -0.34568  -0.33357  -0.32538  -0.31689
 Alpha  occ. eigenvalues --   -0.31329  -0.28748  -0.28216  -0.26618  -0.23341
 Alpha  occ. eigenvalues --   -0.19589
 Alpha virt. eigenvalues --   -0.05768  -0.01269   0.02362   0.05109   0.06266
 Alpha virt. eigenvalues --    0.06735   0.08105   0.08664   0.10709   0.11554
 Alpha virt. eigenvalues --    0.11749   0.12172   0.12345   0.12494   0.13372

 Mulliken charges:
               1
     1  O   -0.520403
     2  O   -0.559668
     3  C    0.006809
     4  C   -0.171153
     5  C   -0.170231
     6  C    0.148362
     7  C    0.150826
     8  C   -0.013688
     9  C   -0.292696
    10  C   -0.285275
    11  C   -0.184391
    12  C   -0.144846
    13  C    0.201806
    14  C    0.026709
    15  C   -0.070577
    16  C   -0.217402
    17  C    0.061560
    18  C   -0.304905
    19  C   -0.297015
    20  C   -0.350483
    21  C   -0.038379
    22  C   -0.101309
    23  C   -0.385198
    24  C    0.076653
    25  C   -0.110882
    26  C   -0.357606
    27  C    0.098870
    28  C   -0.141309
    29  C   -0.376559
    30  C   -0.126876
    31  C   -0.015477
    32  C   -0.102114
    33  C   -0.137285
    34  C    0.124903
    35  C   -0.100816
    36  C    0.124653
    37  C   -0.364647
    38  C   -0.134858
    39  C   -0.130241
    40  C   -0.305854
    41  C   -0.066727
    42  C   -0.066533
    43  H    0.082358
    44  H    0.111265
    45  H    0.096451
    46  H    0.045796
    47  H    0.065198
    48  H    0.103835
    49  H    0.101450
    50  H    0.086379
    51  H    0.104812
    52  H    0.101080
    53  H    0.090210
    54  H    0.067509
    55  H    0.064675
    56  H    0.052459
    57  H    0.076797
    58  H    0.124751
    59  H    0.124024
    60  H    0.115469
    61  H    0.092657
    62  H    0.078496
    63  H    0.105479
    64  H    0.099897
    65  H    0.090385
    66  H    0.084257
    67  H    0.105448
    68  H    0.124355
    69  H    0.310912
    70  H    0.091807
    71  H    0.059828
    72  H    0.123009
    73  H    0.133058
    74  H    0.080210
    75  H    0.309282
    76  H    0.103842
    77  H    0.083268
    78  H    0.123367
    79  H    0.140904
    80  H    0.075897
    81  H    0.111792
    82  H    0.121161
    83  H    0.104491
    84  H    0.064596
    85  H    0.065734
    86  H    0.085152
    87  H    0.081175
    88  H    0.073836
    89  H    0.107454
    90  H    0.121301
    91  H    0.085814
    92  H    0.080303
    93  H    0.085297
    94  H    0.109777
    95  H    0.037369
    96  H    0.097302
    97  H    0.074802
    98  H    0.086018
 Sum of Mulliken charges =  -0.00000

 Dipole moment (field-independent basis, Debye):
    X=             -0.2015    Y=             -0.2929    Z=             -0.5791  Tot=              0.6796
 Quadrupole moment (field-independent basis, Debye-Ang):
   XX=           -249.5342   YY=           -251.5729   ZZ=           -262.1770
   XY=             -5.6166   XZ=             36.4147   YZ=              4.4797

 Normal termination of Gaussian 16 at Tue Jul 16 11:22:36 2019.
