 Gaussian 16, Revision A.03,
 Gaussian 16:  ES64L-G16RevA.03 25-Dec-2016

 -------------------------------------
 # td=(NStates=1) CAM-B3LYP/6-31G(d,p)
 -------------------------------------

 --
 TD
 --
 Symbolic Z-matrix:
 Charge =  0 Multiplicity = 1

                         Standard orientation:
 ---------------------------------------------------------------------
 Center     Atomic      Atomic             Coordinates (Angstroms)
 Number     Number       Type             X           Y           Z
 ---------------------------------------------------------------------
      1          8           0      -14.032125   -2.069546    0.402919
      2          8           0       14.860272    0.944691   -0.068127
      3          6           0      -11.843150    0.108934    1.249423
      4          6           0      -11.034000    0.309094   -0.035431
      5          6           0      -12.024508   -1.389443    1.488222
      6          6           0      -12.606532   -2.239566    0.319599
      7          6           0      -11.610962   -0.557825   -1.301610
      8          6           0       11.153140    0.979380    0.969342
      9          6           0      -10.983898    0.714462    2.379681
     10          6           0      -13.115010    0.818850    1.020170
     11          6           0       12.665497    1.411847    0.763907
     12          6           0      -12.241166   -1.638724   -1.042088
     13          6           0       13.537661    0.373747    0.311037
     14          6           0       10.761426   -0.097718   -0.061246
     15          6           0       -9.594260   -0.064884    0.163080
     16          6           0       12.991156   -0.208670   -0.984029
     17          6           0       11.672253   -0.666418   -0.918627
     18          6           0       10.241116    2.154917    0.909553
     19          6           0       10.972326    0.347909    2.455200
     20          6           0      -11.353694    0.036902   -2.601932
     21          6           0       -8.605282    0.812197   -0.200059
     22          6           0        9.269128   -0.480524    0.084106
     23          6           0       11.349224   -1.702778   -1.977618
     24          6           0       -7.138855    0.501343   -0.113696
     25          6           0        8.700388   -1.755865    0.020390
     26          6           0       -6.759926   -0.921578    0.211551
     27          6           0        7.424223   -2.068554    0.094543
     28          6           0       -6.299428    1.474025   -0.356897
     29          6           0        6.970026   -3.501333    0.381580
     30          6           0        6.399632   -1.040273   -0.114254
     31          6           0       -4.797701    1.470861   -0.377935
     32          6           0        5.070287   -1.430293   -0.065757
     33          6           0       -4.035234    2.607563   -0.605105
     34          6           0       -2.709687    2.629129   -0.586750
     35          6           0        4.072300   -0.509199   -0.196990
     36          6           0        2.610359   -0.691273   -0.235890
     37          6           0       -1.979679    3.924621   -0.812577
     38          6           0       -1.869985    1.506458   -0.548390
     39          6           0        1.767541    0.352251   -0.228771
     40          6           0        2.112564   -2.098394    0.165728
     41          6           0       -0.439285    1.596038   -0.479133
     42          6           0        0.383782    0.423325   -0.381571
     43          1           0      -10.910613    1.278761   -0.154596
     44          1           0      -12.701172   -1.262615    2.182805
     45          1           0      -11.077108   -1.948954    1.931401
     46          1           0      -12.450299   -3.429399    0.623366
     47          1           0       -9.914018    0.453020    2.738021
     48          1           0      -11.029145    1.716901    2.207223
     49          1           0      -11.594460    0.355883    3.420079
     50          1           0      -13.826307    0.261821    0.181668
     51          1           0      -13.836211    0.823414    1.951300
     52          1           0      -13.016358    1.973846    0.763632
     53          1           0       12.544171    2.347980    0.010934
     54          1           0       13.109027    1.886133    1.680124
     55          1           0      -12.533804   -2.238230   -1.939413
     56          1           0       13.773451   -0.363674    1.139390
     57          1           0       -9.277972   -0.997780    0.559385
     58          1           0       13.656553   -1.224611   -1.224535
     59          1           0       13.237870    0.416432   -1.820359
     60          1           0        9.093411    1.878950    1.125174
     61          1           0       10.401083    2.692687   -0.097324
     62          1           0       10.443889    2.980770    1.613778
     63          1           0       11.823711   -0.418292    2.544417
     64          1           0        9.941946    0.063370    2.425100
     65          1           0       11.207460    1.139892    3.200263
     66          1           0      -10.263735    0.022399   -3.010269
     67          1           0      -11.681454    0.998034   -2.975758
     68          1           0      -11.772284   -0.685191   -3.270992
     69          1           0      -14.283694   -2.441542   -0.604830
     70          1           0        8.712541    0.581148   -0.156253
     71          1           0       -8.786205    1.742646   -0.433740
     72          1           0       11.679161   -2.586289   -1.852749
     73          1           0       10.221745   -2.119171   -2.324124
     74          1           0       11.850351   -1.283594   -2.993335
     75          1           0       15.304343    1.338811    0.786414
     76          1           0        9.443497   -2.707516   -0.143542
     77          1           0       -5.701939   -1.211644    0.154277
     78          1           0       -6.944326   -1.108487    1.338729
     79          1           0       -7.300428   -1.914979   -0.439623
     80          1           0       -6.558258    2.558317   -0.369378
     81          1           0        6.649970   -3.568001    1.490458
     82          1           0        5.971521   -3.745139   -0.241597
     83          1           0        7.907834   -4.129245    0.266712
     84          1           0        6.573348   -0.119437   -0.580529
     85          1           0       -4.375923    0.434665   -0.069980
     86          1           0        4.783820   -2.439156    0.250504
     87          1           0       -4.506920    3.524646   -1.042936
     88          1           0        4.306389    0.414044   -0.392662
     89          1           0       -1.484883    4.096421   -1.786753
     90          1           0       -1.309964    4.313678   -0.194779
     91          1           0       -2.632475    4.863859   -0.770236
     92          1           0       -2.210589    0.453232   -0.412515
     93          1           0        2.225577    1.250110   -0.232898
     94          1           0        2.343330   -2.185674    1.225613
     95          1           0        1.131060   -1.876953   -0.071030
     96          1           0        2.556838   -2.770822   -0.468566
     97          1           0        0.230712    2.529496   -0.497053
     98          1           0       -0.259947   -0.559368   -0.481292
 ---------------------------------------------------------------------

 SCF Done:  E(RCAM-B3LYP) =  -1706.83815485     A.U. after   16 cycles

 Excitation energies and oscillator strengths:

 Excited State   1:      Singlet-A      2.0216 eV  613.29 nm  f=2.9892  <S**2>=0.000
     155 ->158        -0.16791
     156 ->157         0.68969
 This state for optimization and/or second-order correction.
 Total Energy, E(TD-HF/TD-DFT) =  -1706.76386102
 Copying the excited state density for this state as the 1-particle RhoCI density.

 The electronic state is 1-A.
 Alpha  occ. eigenvalues --  -19.22324 -19.21019 -10.32742 -10.30759 -10.28144
 Alpha  occ. eigenvalues --  -10.27805 -10.27777 -10.27652 -10.27643 -10.27561
 Alpha  occ. eigenvalues --  -10.27404 -10.27367 -10.27250 -10.27083 -10.26979
 Alpha  occ. eigenvalues --  -10.26853 -10.26785 -10.26697 -10.26659 -10.26573
 Alpha  occ. eigenvalues --  -10.26468 -10.26096 -10.26030 -10.25996 -10.25967
 Alpha  occ. eigenvalues --  -10.25964 -10.25958 -10.25932 -10.25790 -10.25747
 Alpha  occ. eigenvalues --  -10.25688 -10.25604 -10.25513 -10.25319 -10.24992
 Alpha  occ. eigenvalues --  -10.24821 -10.24797 -10.24691 -10.24541 -10.24518
 Alpha  occ. eigenvalues --  -10.24463 -10.23624  -1.08034  -1.06154  -0.93948
 Alpha  occ. eigenvalues --   -0.93589  -0.92434  -0.92080  -0.90858  -0.90142
 Alpha  occ. eigenvalues --   -0.88384  -0.87479  -0.86926  -0.85157  -0.84179
 Alpha  occ. eigenvalues --   -0.83320  -0.81625  -0.80245  -0.79562  -0.78700
 Alpha  occ. eigenvalues --   -0.77000  -0.76523  -0.76239  -0.75963  -0.75284
 Alpha  occ. eigenvalues --   -0.75043  -0.74893  -0.74544  -0.72604  -0.70265
 Alpha  occ. eigenvalues --   -0.69369  -0.68085  -0.65905  -0.64539  -0.63846
 Alpha  occ. eigenvalues --   -0.63647  -0.62504  -0.62058  -0.60732  -0.60056
 Alpha  occ. eigenvalues --   -0.59493  -0.58034  -0.57748  -0.57338  -0.55906
 Alpha  occ. eigenvalues --   -0.55621  -0.55041  -0.54430  -0.54063  -0.53859
 Alpha  occ. eigenvalues --   -0.53530  -0.53027  -0.52636  -0.51979  -0.50914
 Alpha  occ. eigenvalues --   -0.50080  -0.49983  -0.49781  -0.49356  -0.48934
 Alpha  occ. eigenvalues --   -0.48604  -0.48414  -0.48302  -0.48009  -0.47892
 Alpha  occ. eigenvalues --   -0.47786  -0.47459  -0.47136  -0.46640  -0.46447
 Alpha  occ. eigenvalues --   -0.45666  -0.45580  -0.45479  -0.45102  -0.44889
 Alpha  occ. eigenvalues --   -0.44628  -0.44440  -0.44141  -0.43793  -0.43489
 Alpha  occ. eigenvalues --   -0.43131  -0.42862  -0.42162  -0.41801  -0.41638
 Alpha  occ. eigenvalues --   -0.41198  -0.41081  -0.40978  -0.40857  -0.40466
 Alpha  occ. eigenvalues --   -0.40255  -0.39810  -0.39740  -0.39610  -0.39055
 Alpha  occ. eigenvalues --   -0.38797  -0.38375  -0.38281  -0.37863  -0.37508
 Alpha  occ. eigenvalues --   -0.37330  -0.36777  -0.36144  -0.35480  -0.35266
 Alpha  occ. eigenvalues --   -0.34798  -0.34237  -0.33426  -0.32303  -0.31959
 Alpha  occ. eigenvalues --   -0.31186  -0.30947  -0.28501  -0.27136  -0.23112
 Alpha  occ. eigenvalues --   -0.19087
 Alpha virt. eigenvalues --   -0.06196  -0.01894   0.03174   0.05581   0.06956
 Alpha virt. eigenvalues --    0.07860   0.09879   0.10762   0.10899   0.11998
 Alpha virt. eigenvalues --    0.12105   0.12434   0.13104   0.13563   0.13668

 Mulliken charges:
               1
     1  O   -0.534015
     2  O   -0.580158
     3  C    0.014229
     4  C   -0.104143
     5  C   -0.159006
     6  C    0.133755
     7  C    0.157250
     8  C   -0.018222
     9  C   -0.290362
    10  C   -0.300145
    11  C   -0.177039
    12  C   -0.152453
    13  C    0.167557
    14  C    0.040213
    15  C   -0.074029
    16  C   -0.236477
    17  C    0.092475
    18  C   -0.309346
    19  C   -0.287741
    20  C   -0.385321
    21  C   -0.084445
    22  C   -0.132665
    23  C   -0.348944
    24  C    0.141235
    25  C   -0.125315
    26  C   -0.372700
    27  C    0.106222
    28  C   -0.154847
    29  C   -0.362443
    30  C   -0.098507
    31  C   -0.076107
    32  C   -0.074675
    33  C   -0.135668
    34  C    0.126205
    35  C   -0.095675
    36  C    0.040668
    37  C   -0.394158
    38  C   -0.127561
    39  C   -0.096572
    40  C   -0.342887
    41  C   -0.079846
    42  C   -0.105486
    43  H    0.074995
    44  H    0.120797
    45  H    0.082336
    46  H    0.072087
    47  H    0.114385
    48  H    0.109161
    49  H    0.054286
    50  H    0.119897
    51  H    0.085537
    52  H    0.080260
    53  H    0.084485
    54  H    0.073473
    55  H    0.071499
    56  H    0.090129
    57  H    0.084119
    58  H    0.080428
    59  H    0.140582
    60  H    0.093565
    61  H    0.092563
    62  H    0.103521
    63  H    0.089180
    64  H    0.119940
    65  H    0.095058
    66  H    0.117460
    67  H    0.131161
    68  H    0.105367
    69  H    0.299274
    70  H    0.103796
    71  H    0.062519
    72  H    0.136830
    73  H    0.086269
    74  H    0.087157
    75  H    0.299535
    76  H    0.073817
    77  H    0.112702
    78  H    0.117493
    79  H    0.085368
    80  H    0.081772
    81  H    0.124301
    82  H    0.113999
    83  H    0.105348
    84  H    0.094426
    85  H    0.082436
    86  H    0.080172
    87  H    0.095494
    88  H    0.054222
    89  H    0.122234
    90  H    0.134320
    91  H    0.084173
    92  H    0.086825
    93  H    0.069562
    94  H    0.131455
    95  H    0.107631
    96  H    0.116580
    97  H    0.087336
    98  H    0.073832
 Sum of Mulliken charges =  -0.00000

 Dipole moment (field-independent basis, Debye):
    X=             -0.0299    Y=             -0.3404    Z=             -0.1777  Tot=              0.3851
 Quadrupole moment (field-independent basis, Debye-Ang):
   XX=           -283.8907   YY=           -242.7159   ZZ=           -262.1819
   XY=              4.1206   XZ=             40.8848   YZ=              2.5518

 Normal termination of Gaussian 16 at Tue Jul 16 03:06:07 2019.
