 Gaussian 16, Revision A.03,
 Gaussian 16:  ES64L-G16RevA.03 25-Dec-2016

 -------------------------------------
 # td=(NStates=1) CAM-B3LYP/6-31G(d,p)
 -------------------------------------

 --
 TD
 --
 Symbolic Z-matrix:
 Charge =  0 Multiplicity = 1

                         Standard orientation:
 ---------------------------------------------------------------------
 Center     Atomic      Atomic             Coordinates (Angstroms)
 Number     Number       Type             X           Y           Z
 ---------------------------------------------------------------------
      1          8           0      -14.042355   -2.214907    0.535394
      2          8           0       14.811297    0.688210    0.143348
      3          6           0      -11.802006   -0.112008    1.232952
      4          6           0      -10.938982    0.228200    0.002894
      5          6           0      -11.888917   -1.716841    1.394357
      6          6           0      -12.629156   -2.307586    0.191709
      7          6           0      -11.586402   -0.483497   -1.225235
      8          6           0       11.186674    0.764528    1.131531
      9          6           0      -10.877384    0.367336    2.519627
     10          6           0      -13.076411    0.600046    1.342675
     11          6           0       12.615744    1.285295    0.903350
     12          6           0      -12.378645   -1.541094   -1.182826
     13          6           0       13.519356    0.200336    0.418619
     14          6           0       10.719289   -0.194782    0.016920
     15          6           0       -9.485783   -0.178426    0.049239
     16          6           0       12.974615   -0.286898   -1.013255
     17          6           0       11.502194   -0.576380   -0.971951
     18          6           0       10.271479    2.036807    1.308550
     19          6           0       11.061324    0.017227    2.477843
     20          6           0      -11.351354    0.173646   -2.651761
     21          6           0       -8.522731    0.710397   -0.208830
     22          6           0        9.297120   -0.473900    0.026635
     23          6           0       11.058726   -1.431390   -2.193342
     24          6           0       -7.039482    0.483289   -0.116656
     25          6           0        8.678591   -1.693703   -0.248500
     26          6           0       -6.486840   -0.842776    0.096403
     27          6           0        7.338415   -2.026946   -0.205971
     28          6           0       -6.265476    1.571093   -0.321220
     29          6           0        6.931905   -3.537465   -0.149215
     30          6           0        6.348399   -1.042941   -0.342264
     31          6           0       -4.770570    1.634043   -0.327609
     32          6           0        4.969615   -1.242454   -0.103302
     33          6           0       -4.039681    2.677855   -0.596664
     34          6           0       -2.697099    2.866466   -0.526789
     35          6           0        4.001554   -0.286534   -0.204778
     36          6           0        2.641057   -0.518079   -0.043287
     37          6           0       -2.033799    4.174067   -0.907488
     38          6           0       -1.835234    1.759437   -0.458489
     39          6           0        1.756936    0.522503   -0.308541
     40          6           0        2.119518   -1.948168    0.226751
     41          6           0       -0.434077    1.766482   -0.455360
     42          6           0        0.340899    0.542944   -0.184601
     43          1           0      -10.829870    1.453006   -0.114192
     44          1           0      -12.499559   -1.812186    2.293714
     45          1           0      -10.973341   -2.238201    1.566046
     46          1           0      -12.470853   -3.240278    0.186453
     47          1           0      -10.023990   -0.231636    2.637948
     48          1           0      -10.817604    1.424246    2.401287
     49          1           0      -11.387134    0.072180    3.411831
     50          1           0      -13.884720    0.330933    0.587833
     51          1           0      -13.623277    0.643553    2.285393
     52          1           0      -12.888104    1.736030    1.284369
     53          1           0       12.583090    1.902802    0.120476
     54          1           0       12.974086    1.842291    1.721884
     55          1           0      -12.943927   -1.916055   -2.124234
     56          1           0       13.674298   -0.771844    0.956171
     57          1           0       -9.215685   -1.295145    0.143480
     58          1           0       13.406962   -1.294649   -1.190376
     59          1           0       13.268136    0.398726   -1.796158
     60          1           0        9.149832    1.884268    1.245578
     61          1           0       10.505253    2.733204    0.502807
     62          1           0       10.579960    2.575191    2.200037
     63          1           0       11.917344   -0.714330    2.514166
     64          1           0       10.111250   -0.420985    2.783329
     65          1           0       11.415045    0.819589    3.222486
     66          1           0      -10.349779    0.617471   -2.696787
     67          1           0      -12.045713    1.227355   -2.767074
     68          1           0      -11.625927   -0.368473   -3.473258
     69          1           0      -14.391731   -2.199969   -0.312644
     70          1           0        8.512540    0.120989    0.244218
     71          1           0       -8.868672    1.622031   -0.465540
     72          1           0       11.607503   -2.242837   -2.200808
     73          1           0        9.994765   -1.369342   -2.250939
     74          1           0       11.520176   -0.882026   -3.042864
     75          1           0       15.246150    0.868751    1.051288
     76          1           0        9.464743   -2.502273   -0.563621
     77          1           0       -5.338984   -1.013097   -0.489232
     78          1           0       -6.552098   -0.968832    1.236672
     79          1           0       -7.147934   -1.804224   -0.335211
     80          1           0       -6.662693    2.561916   -0.565720
     81          1           0        6.243825   -3.953373    0.704967
     82          1           0        6.129766   -3.667441   -1.012175
     83          1           0        7.951211   -3.950839   -0.251614
     84          1           0        6.606398    0.133057   -0.408227
     85          1           0       -4.283637    0.818614   -0.000668
     86          1           0        4.616388   -2.288795    0.149677
     87          1           0       -4.489999    3.724979   -0.608433
     88          1           0        4.188314    0.721048   -0.543290
     89          1           0       -1.197539    4.089255   -1.465537
     90          1           0       -1.657004    4.558619   -0.116054
     91          1           0       -2.887041    4.867060   -1.497249
     92          1           0       -2.187457    0.856178   -0.355883
     93          1           0        2.205603    1.380028   -0.802954
     94          1           0        2.444211   -2.287958    1.248246
     95          1           0        0.944485   -1.685147    0.176938
     96          1           0        2.561786   -2.632491   -0.573780
     97          1           0        0.391408    2.710710   -0.487646
     98          1           0       -0.282074   -0.368841   -0.147796
 ---------------------------------------------------------------------

 SCF Done:  E(RCAM-B3LYP) =  -1706.93774012     A.U. after   15 cycles

 Excitation energies and oscillator strengths:

 Excited State   1:      Singlet-A      2.0561 eV  603.01 nm  f=2.9643  <S**2>=0.000
     155 ->158         0.14537
     156 ->157         0.69522
 This state for optimization and/or second-order correction.
 Total Energy, E(TD-HF/TD-DFT) =  -1706.86218040
 Copying the excited state density for this state as the 1-particle RhoCI density.

 The electronic state is 1-A.
 Alpha  occ. eigenvalues --  -19.21491 -19.19731 -10.30701 -10.29294 -10.29280
 Alpha  occ. eigenvalues --  -10.28651 -10.28511 -10.27885 -10.27719 -10.27609
 Alpha  occ. eigenvalues --  -10.27599 -10.27575 -10.27520 -10.27348 -10.27270
 Alpha  occ. eigenvalues --  -10.26930 -10.26828 -10.26688 -10.26619 -10.26527
 Alpha  occ. eigenvalues --  -10.26432 -10.26403 -10.26328 -10.26260 -10.26247
 Alpha  occ. eigenvalues --  -10.26157 -10.25582 -10.25417 -10.25409 -10.25394
 Alpha  occ. eigenvalues --  -10.25343 -10.25273 -10.25099 -10.25072 -10.24899
 Alpha  occ. eigenvalues --  -10.24755 -10.24739 -10.24505 -10.24216 -10.23861
 Alpha  occ. eigenvalues --  -10.23798 -10.23092  -1.09355  -1.09122  -0.93783
 Alpha  occ. eigenvalues --   -0.93022  -0.92645  -0.91873  -0.90473  -0.90187
 Alpha  occ. eigenvalues --   -0.87381  -0.86878  -0.85799  -0.85409  -0.84454
 Alpha  occ. eigenvalues --   -0.83237  -0.82016  -0.80876  -0.79991  -0.78328
 Alpha  occ. eigenvalues --   -0.77058  -0.76388  -0.75784  -0.75615  -0.75558
 Alpha  occ. eigenvalues --   -0.75433  -0.75307  -0.74668  -0.72629  -0.70861
 Alpha  occ. eigenvalues --   -0.69223  -0.68396  -0.66320  -0.65336  -0.64052
 Alpha  occ. eigenvalues --   -0.63820  -0.62264  -0.61747  -0.60346  -0.59837
 Alpha  occ. eigenvalues --   -0.59184  -0.58834  -0.58157  -0.57583  -0.56369
 Alpha  occ. eigenvalues --   -0.55957  -0.55649  -0.54832  -0.54583  -0.54133
 Alpha  occ. eigenvalues --   -0.52980  -0.52420  -0.52092  -0.51718  -0.51338
 Alpha  occ. eigenvalues --   -0.50854  -0.50413  -0.50072  -0.49670  -0.49624
 Alpha  occ. eigenvalues --   -0.49365  -0.48716  -0.48573  -0.48273  -0.48067
 Alpha  occ. eigenvalues --   -0.47507  -0.47475  -0.47196  -0.46153  -0.45697
 Alpha  occ. eigenvalues --   -0.45650  -0.45283  -0.45209  -0.45060  -0.44868
 Alpha  occ. eigenvalues --   -0.44751  -0.44219  -0.43666  -0.43561  -0.43469
 Alpha  occ. eigenvalues --   -0.43271  -0.43151  -0.42889  -0.42717  -0.42491
 Alpha  occ. eigenvalues --   -0.42038  -0.41618  -0.41510  -0.41371  -0.40789
 Alpha  occ. eigenvalues --   -0.40409  -0.40322  -0.39928  -0.39602  -0.39235
 Alpha  occ. eigenvalues --   -0.39069  -0.38637  -0.38611  -0.38084  -0.37618
 Alpha  occ. eigenvalues --   -0.37554  -0.37328  -0.36921  -0.36019  -0.35605
 Alpha  occ. eigenvalues --   -0.35060  -0.34190  -0.33495  -0.32533  -0.31871
 Alpha  occ. eigenvalues --   -0.31262  -0.30487  -0.29420  -0.27209  -0.23846
 Alpha  occ. eigenvalues --   -0.19145
 Alpha virt. eigenvalues --   -0.06265  -0.01054   0.02981   0.05632   0.07090
 Alpha virt. eigenvalues --    0.09418   0.10808   0.11558   0.11646   0.12009
 Alpha virt. eigenvalues --    0.12631   0.12906   0.12995   0.13403   0.13678

 Mulliken charges:
               1
     1  O   -0.547166
     2  O   -0.562133
     3  C    0.018835
     4  C   -0.137397
     5  C   -0.202458
     6  C    0.158039
     7  C    0.137522
     8  C   -0.040328
     9  C   -0.309963
    10  C   -0.289785
    11  C   -0.168172
    12  C   -0.186803
    13  C    0.151307
    14  C    0.092893
    15  C   -0.061485
    16  C   -0.237275
    17  C    0.023352
    18  C   -0.307998
    19  C   -0.284556
    20  C   -0.344047
    21  C   -0.076044
    22  C   -0.095269
    23  C   -0.346983
    24  C    0.129738
    25  C   -0.147246
    26  C   -0.366941
    27  C    0.089015
    28  C   -0.131061
    29  C   -0.355376
    30  C   -0.127281
    31  C   -0.070003
    32  C   -0.094940
    33  C   -0.100544
    34  C    0.076845
    35  C   -0.092011
    36  C    0.110012
    37  C   -0.347897
    38  C   -0.100214
    39  C   -0.140349
    40  C   -0.352801
    41  C   -0.093543
    42  C   -0.114968
    43  H    0.076175
    44  H    0.123241
    45  H    0.092878
    46  H    0.088154
    47  H    0.105291
    48  H    0.100697
    49  H    0.093552
    50  H    0.109035
    51  H    0.110866
    52  H    0.074091
    53  H    0.118936
    54  H    0.085638
    55  H    0.084989
    56  H    0.078804
    57  H    0.079111
    58  H    0.103203
    59  H    0.125991
    60  H    0.102668
    61  H    0.097687
    62  H    0.101886
    63  H    0.089018
    64  H    0.119677
    65  H    0.077794
    66  H    0.120124
    67  H    0.071590
    68  H    0.120760
    69  H    0.293401
    70  H    0.068338
    71  H    0.072261
    72  H    0.124687
    73  H    0.132147
    74  H    0.099618
    75  H    0.303461
    76  H    0.076201
    77  H    0.095194
    78  H    0.130294
    79  H    0.096262
    80  H    0.080098
    81  H    0.116965
    82  H    0.114762
    83  H    0.115827
    84  H    0.075472
    85  H    0.076812
    86  H    0.073902
    87  H    0.066442
    88  H    0.075006
    89  H    0.130706
    90  H    0.135451
    91  H    0.081829
    92  H    0.070194
    93  H    0.086763
    94  H    0.121282
    95  H    0.090248
    96  H    0.121890
    97  H    0.072627
    98  H    0.095480
 Sum of Mulliken charges =  -0.00000

 Dipole moment (field-independent basis, Debye):
    X=              1.4133    Y=             -0.2859    Z=             -0.1946  Tot=              1.4550
 Quadrupole moment (field-independent basis, Debye-Ang):
   XX=           -270.7792   YY=           -248.5276   ZZ=           -262.0224
   XY=             -0.5900   XZ=             34.7104   YZ=              2.7505

 Normal termination of Gaussian 16 at Sun Jul 14 14:34:24 2019.
