 Gaussian 16, Revision A.03,
 Gaussian 16:  ES64L-G16RevA.03 25-Dec-2016

 -------------------------------------
 # td=(NStates=1) CAM-B3LYP/6-31G(d,p)
 -------------------------------------

 --
 TD
 --
 Symbolic Z-matrix:
 Charge =  0 Multiplicity = 1

                         Standard orientation:
 ---------------------------------------------------------------------
 Center     Atomic      Atomic             Coordinates (Angstroms)
 Number     Number       Type             X           Y           Z
 ---------------------------------------------------------------------
      1          8           0      -14.109816   -2.036316    0.321124
      2          8           0       14.823392    0.839560   -0.017598
      3          6           0      -11.821547    0.074153    1.278956
      4          6           0      -11.061655    0.358483    0.024943
      5          6           0      -12.083339   -1.435502    1.438107
      6          6           0      -12.741116   -2.028582    0.143763
      7          6           0      -11.619607   -0.303574   -1.285445
      8          6           0       11.235193    0.964104    0.997541
      9          6           0      -11.129204    0.579540    2.530945
     10          6           0      -13.261574    0.861315    1.145940
     11          6           0       12.626802    1.472114    0.873747
     12          6           0      -12.395174   -1.390399   -1.169514
     13          6           0       13.533634    0.315947    0.239495
     14          6           0       10.652252    0.029606   -0.076627
     15          6           0       -9.550093   -0.144028    0.005214
     16          6           0       12.913582   -0.096114   -1.106483
     17          6           0       11.406826   -0.597465   -1.018755
     18          6           0       10.347613    2.300370    0.939478
     19          6           0       11.087303    0.371001    2.374737
     20          6           0      -11.214193    0.262734   -2.565541
     21          6           0       -8.581444    0.682849   -0.160530
     22          6           0        9.278807   -0.417420    0.181688
     23          6           0       11.134192   -1.454328   -2.118598
     24          6           0       -7.157982    0.439055   -0.196580
     25          6           0        8.886763   -1.739294    0.047785
     26          6           0       -6.674270   -0.981609    0.152974
     27          6           0        7.424779   -2.111385    0.013372
     28          6           0       -6.262620    1.574151   -0.385287
     29          6           0        7.019069   -3.559665    0.289997
     30          6           0        6.482728   -1.128299   -0.156590
     31          6           0       -4.867363    1.448716   -0.458848
     32          6           0        5.098096   -1.451903   -0.019238
     33          6           0       -3.979618    2.461314   -0.652199
     34          6           0       -2.572484    2.483223   -0.507301
     35          6           0        4.083149   -0.605894   -0.309723
     36          6           0        2.681021   -0.833406   -0.128584
     37          6           0       -1.910230    3.820937   -0.889828
     38          6           0       -1.771706    1.439377   -0.250324
     39          6           0        1.778488    0.318942   -0.294945
     40          6           0        2.124886   -2.156110    0.350789
     41          6           0       -0.397155    1.419474   -0.355895
     42          6           0        0.322787    0.343792   -0.168274
     43          1           0      -10.893199    1.508394    0.072531
     44          1           0      -12.668917   -1.460907    2.328001
     45          1           0      -11.096482   -1.985569    1.573871
     46          1           0      -12.375951   -3.114895    0.027567
     47          1           0      -10.063439    0.245961    2.484756
     48          1           0      -11.129838    1.700510    2.488293
     49          1           0      -11.549225    0.382265    3.442781
     50          1           0      -13.935499    0.468767    0.420685
     51          1           0      -13.685361    0.482151    2.224343
     52          1           0      -13.132102    1.868589    0.878368
     53          1           0       12.993074    2.359270    0.278857
     54          1           0       13.055823    1.447055    1.988222
     55          1           0      -12.790245   -1.941474   -2.018873
     56          1           0       13.675814   -0.499268    0.928934
     57          1           0       -9.396207   -1.145862    0.331348
     58          1           0       13.560898   -0.891585   -1.497057
     59          1           0       13.014695    0.661464   -1.743558
     60          1           0        9.327530    2.043266    1.117522
     61          1           0       10.146716    2.793922   -0.007820
     62          1           0       10.695116    3.087254    1.588511
     63          1           0       11.814217   -0.367975    2.624364
     64          1           0        9.963090    0.254489    2.309730
     65          1           0       11.276277    1.215569    3.148290
     66          1           0       -9.953425   -0.049753   -2.749431
     67          1           0      -11.296072    1.355010   -2.542465
     68          1           0      -11.778950   -0.544752   -3.312347
     69          1           0      -14.537830   -2.356770   -0.422603
     70          1           0        8.525276    0.322731    0.365023
     71          1           0       -8.843908    1.813962   -0.361650
     72          1           0       11.239736   -2.432949   -1.913222
     73          1           0       10.201389   -1.400369   -2.278681
     74          1           0       11.788765   -1.075711   -2.913639
     75          1           0       15.008314    1.153244    0.867235
     76          1           0        9.514699   -2.684238   -0.000391
     77          1           0       -5.459778   -0.961712    0.224082
     78          1           0       -6.974560   -1.295687    1.115884
     79          1           0       -6.999385   -1.767105   -0.667726
     80          1           0       -6.615645    2.511123   -0.756597
     81          1           0        6.535673   -3.547093    1.258025
     82          1           0        6.220575   -3.754799   -0.537907
     83          1           0        7.760082   -4.209916    0.115336
     84          1           0        6.744428   -0.245463   -0.754080
     85          1           0       -4.375954    0.493746   -0.392954
     86          1           0        4.972550   -2.550944    0.404274
     87          1           0       -4.378339    3.593264   -0.826159
     88          1           0        4.492437    0.426320   -0.709853
     89          1           0       -1.627119    3.794973   -1.940327
     90          1           0       -0.801448    3.927367   -0.361811
     91          1           0       -2.497203    4.596060   -0.807824
     92          1           0       -2.315001    0.468655    0.028107
     93          1           0        2.176054    1.238351   -0.653354
     94          1           0        3.274730   -2.610155    0.996557
     95          1           0        1.115046   -2.151559    1.115073
     96          1           0        1.825311   -2.646465   -0.892602
     97          1           0        0.119253    2.241957   -0.820297
     98          1           0        0.031332   -0.705987    0.182269
 ---------------------------------------------------------------------

 SCF Done:  E(RCAM-B3LYP) =  -1706.89226489     A.U. after   15 cycles

 Excitation energies and oscillator strengths:

 Excited State   1:      Singlet-A      2.2987 eV  539.36 nm  f=3.0540  <S**2>=0.000
     155 ->158        -0.16526
     156 ->157         0.68586
 This state for optimization and/or second-order correction.
 Total Energy, E(TD-HF/TD-DFT) =  -1706.80778805
 Copying the excited state density for this state as the 1-particle RhoCI density.

 The electronic state is 1-A.
 Alpha  occ. eigenvalues --  -19.20684 -19.20557 -10.32046 -10.30969 -10.29577
 Alpha  occ. eigenvalues --  -10.28694 -10.28687 -10.28156 -10.27579 -10.27410
 Alpha  occ. eigenvalues --  -10.27394 -10.27360 -10.27178 -10.27167 -10.26954
 Alpha  occ. eigenvalues --  -10.26899 -10.26896 -10.26647 -10.26626 -10.26513
 Alpha  occ. eigenvalues --  -10.26489 -10.26458 -10.26360 -10.26246 -10.25962
 Alpha  occ. eigenvalues --  -10.25883 -10.25877 -10.25819 -10.25728 -10.25411
 Alpha  occ. eigenvalues --  -10.25308 -10.25304 -10.25272 -10.25152 -10.25083
 Alpha  occ. eigenvalues --  -10.25069 -10.24976 -10.24193 -10.23975 -10.23843
 Alpha  occ. eigenvalues --  -10.23653 -10.22577  -1.11577  -1.10083  -0.93705
 Alpha  occ. eigenvalues --   -0.93229  -0.92353  -0.91289  -0.90247  -0.89175
 Alpha  occ. eigenvalues --   -0.88503  -0.87484  -0.86994  -0.85331  -0.84440
 Alpha  occ. eigenvalues --   -0.82380  -0.81752  -0.81016  -0.80066  -0.77807
 Alpha  occ. eigenvalues --   -0.77342  -0.76348  -0.76042  -0.75621  -0.75149
 Alpha  occ. eigenvalues --   -0.75132  -0.74523  -0.74355  -0.72331  -0.69891
 Alpha  occ. eigenvalues --   -0.68833  -0.67886  -0.66231  -0.65276  -0.64035
 Alpha  occ. eigenvalues --   -0.63308  -0.62589  -0.61786  -0.59996  -0.59638
 Alpha  occ. eigenvalues --   -0.59282  -0.59172  -0.58458  -0.57351  -0.56172
 Alpha  occ. eigenvalues --   -0.55559  -0.54992  -0.54537  -0.54045  -0.53886
 Alpha  occ. eigenvalues --   -0.53556  -0.52824  -0.52431  -0.52089  -0.51499
 Alpha  occ. eigenvalues --   -0.50843  -0.50349  -0.49953  -0.49519  -0.49153
 Alpha  occ. eigenvalues --   -0.48919  -0.48463  -0.48395  -0.48242  -0.47723
 Alpha  occ. eigenvalues --   -0.47438  -0.47258  -0.46779  -0.46594  -0.46411
 Alpha  occ. eigenvalues --   -0.46103  -0.46027  -0.45953  -0.45671  -0.45254
 Alpha  occ. eigenvalues --   -0.45123  -0.44723  -0.44518  -0.44354  -0.43819
 Alpha  occ. eigenvalues --   -0.43008  -0.42928  -0.42581  -0.42379  -0.42185
 Alpha  occ. eigenvalues --   -0.41812  -0.41644  -0.41069  -0.40526  -0.40310
 Alpha  occ. eigenvalues --   -0.39972  -0.39782  -0.39706  -0.39144  -0.39012
 Alpha  occ. eigenvalues --   -0.38727  -0.38306  -0.38076  -0.37793  -0.37478
 Alpha  occ. eigenvalues --   -0.37117  -0.36753  -0.36509  -0.35998  -0.35852
 Alpha  occ. eigenvalues --   -0.34877  -0.34027  -0.33760  -0.31744  -0.31617
 Alpha  occ. eigenvalues --   -0.30685  -0.29295  -0.28897  -0.26994  -0.23753
 Alpha  occ. eigenvalues --   -0.19803
 Alpha virt. eigenvalues --   -0.05378  -0.01361   0.02511   0.05726   0.07028
 Alpha virt. eigenvalues --    0.07974   0.09008   0.10940   0.11740   0.11836
 Alpha virt. eigenvalues --    0.12000   0.12146   0.12768   0.13457   0.13746

 Mulliken charges:
               1
     1  O   -0.519997
     2  O   -0.547664
     3  C    0.002850
     4  C   -0.133405
     5  C   -0.167351
     6  C    0.144816
     7  C    0.144161
     8  C   -0.011486
     9  C   -0.299518
    10  C   -0.294480
    11  C   -0.210312
    12  C   -0.144116
    13  C    0.132671
    14  C    0.096227
    15  C   -0.111875
    16  C   -0.228281
    17  C    0.022815
    18  C   -0.324381
    19  C   -0.283187
    20  C   -0.333355
    21  C   -0.053680
    22  C   -0.147164
    23  C   -0.339549
    24  C    0.086718
    25  C   -0.102391
    26  C   -0.363859
    27  C    0.047331
    28  C   -0.124310
    29  C   -0.365719
    30  C   -0.116683
    31  C   -0.060046
    32  C   -0.095584
    33  C   -0.129311
    34  C    0.106971
    35  C   -0.105330
    36  C    0.077970
    37  C   -0.362875
    38  C   -0.114750
    39  C   -0.130658
    40  C   -0.309356
    41  C   -0.079893
    42  C   -0.057316
    43  H    0.076198
    44  H    0.111244
    45  H    0.083162
    46  H    0.057999
    47  H    0.100450
    48  H    0.089384
    49  H    0.109013
    50  H    0.125574
    51  H    0.075238
    52  H    0.097734
    53  H    0.112632
    54  H    0.059208
    55  H    0.074744
    56  H    0.078821
    57  H    0.087208
    58  H    0.101703
    59  H    0.127987
    60  H    0.092301
    61  H    0.105416
    62  H    0.105659
    63  H    0.111090
    64  H    0.109820
    65  H    0.088076
    66  H    0.087364
    67  H    0.125039
    68  H    0.092304
    69  H    0.294256
    70  H    0.104058
    71  H    0.066035
    72  H    0.127369
    73  H    0.122441
    74  H    0.112484
    75  H    0.300217
    76  H    0.082520
    77  H    0.089117
    78  H    0.135520
    79  H    0.114047
    80  H    0.092664
    81  H    0.141911
    82  H    0.119037
    83  H    0.111524
    84  H    0.093862
    85  H    0.083489
    86  H    0.078061
    87  H    0.056301
    88  H    0.084394
    89  H    0.126540
    90  H    0.090845
    91  H    0.111905
    92  H    0.071711
    93  H    0.068614
    94  H    0.074250
    95  H    0.113885
    96  H    0.093407
    97  H    0.091792
    98  H    0.067730
 Sum of Mulliken charges =  -0.00000

 Dipole moment (field-independent basis, Debye):
    X=             -0.0400    Y=             -1.3201    Z=             -0.6264  Tot=              1.4617
 Quadrupole moment (field-independent basis, Debye-Ang):
   XX=           -281.7804   YY=           -246.0016   ZZ=           -261.8098
   XY=              0.3576   XZ=             30.2550   YZ=              0.3969

 Normal termination of Gaussian 16 at Sat Jul 13 17:07:32 2019.
