 Gaussian 09, Revision D.01,
 Gaussian 09:  ES64L-G09RevD.01 24-Apr-2013

 ----------------------------------------
 #n B3LYP/SVP td Opt Freq=savenormalmodes
 ----------------------------------------

 ----------------------------------
 dihydrobiliverdin-s1-geom-freq.com
 ----------------------------------
 Symbolic Z-matrix:
 Charge =  0 Multiplicity = 1

 SCF Done:  E(RB3LYP) =  -1948.07791816     A.U. after   16 cycles
 SCF Done:  E(RB3LYP) =  -1948.11889014     A.U. after   14 cycles
 SCF Done:  E(RB3LYP) =  -1948.13219141     A.U. after   15 cycles
 SCF Done:  E(RB3LYP) =  -1948.13694285     A.U. after   16 cycles
 SCF Done:  E(RB3LYP) =  -1948.13681222     A.U. after   14 cycles
 SCF Done:  E(RB3LYP) =  -1948.12586695     A.U. after   17 cycles
 SCF Done:  E(RB3LYP) =  -1948.13123390     A.U. after   17 cycles
 SCF Done:  E(RB3LYP) =  -1948.13539095     A.U. after   16 cycles
 SCF Done:  E(RB3LYP) =  -1948.13458690     A.U. after   13 cycles
 SCF Done:  E(RB3LYP) =  -1948.09291472     A.U. after   17 cycles
 Optimization completed.
    -- Stationary point found.
 Normal termination of Gaussian 09 at Sat May 11 05:09:57 2019.

 ----------------------------------------------------------------------
 #N Geom=AllCheck Guess=TCheck SCRF=Check GenChk RB3LYP TD(FC)/SVP Freq
 ----------------------------------------------------------------------

 Structure from the checkpoint file:  "dihydrobiliverdin-s1-geom-freq.chk"
 ----------------------------------
 dihydrobiliverdin-s1-geom-freq.com
 ----------------------------------
 Charge =  0 Multiplicity = 1

                         Standard orientation:
 ---------------------------------------------------------------------
 Center     Atomic      Atomic             Coordinates (Angstroms)
 Number     Number       Type             X           Y           Z
 ---------------------------------------------------------------------
      1          8           0       -3.269974   -1.313236   -2.872545
      2          8           0        3.058575    3.111611    3.128380
      3          8           0        3.652690    1.382308    4.426757
      4          8           0        7.721313   -1.567667   -0.702659
      5          8           0        6.674266   -2.983965   -2.089816
      6          8           0       -2.637814    1.620846    1.460476
      7          7           0       -0.267246   -2.417427    0.895765
      8          7           0       -2.681073   -1.192550   -0.627742
      9          7           0        1.148908    0.077117   -0.733367
     10          7           0       -1.005464    1.455047   -0.191354
     11          6           0       -3.376055   -1.344322    0.631265
     12          6           0       -2.648691   -2.361143    1.592647
     13          6           0       -1.219108   -2.043792    1.788207
     14          6           0       -0.569601   -1.248117    2.805540
     15          6           0        0.780747   -1.172211    2.463975
     16          6           0        0.957117   -1.877109    1.231703
     17          6           0       -4.739552   -1.877575    0.239641
     18          6           0        1.862386   -0.410388    3.171285
     19          6           0       -4.800164   -2.008927   -1.109666
     20          6           0        2.085519   -1.900134    0.288091
     21          6           0        2.104644   -0.904631   -0.671630
     22          6           0       -3.518603   -1.479425   -1.697534
     23          6           0        3.024322   -0.646581   -1.779301
     24          6           0       -1.294298   -0.556489    3.908706
     25          6           0       -5.783478   -2.171764    1.268379
     26          6           0        2.567593    0.477261   -2.453445
     27          6           0        1.915216    1.070401    2.769673
     28          6           0        1.370002    0.938131   -1.784974
     29          6           0        4.243018   -1.475708   -2.057102
     30          6           0       -5.853918   -2.462868   -2.010750
     31          6           0        5.446044   -1.103026   -1.177915
     32          6           0        3.163174    1.136116   -3.659477
     33          6           0        0.517406    2.023616   -2.010048
     34          6           0        2.967908    1.834096    3.541182
     35          6           0       -0.599886    2.290667   -1.191664
     36          6           0       -6.917278   -3.229570   -1.715772
     37          6           0        6.646303   -1.997007   -1.396542
     38          6           0       -1.432414    3.514543   -1.223819
     39          6           0       -2.317123    3.393832   -0.175696
     40          6           0       -2.034378    2.084210    0.475437
     41          6           0       -1.261701    4.581651   -2.199463
     42          6           0       -3.392184    4.298679    0.320823
     43          6           0       -1.934387    5.746280   -2.281754
     44          1           0       -3.441617   -0.371612    1.151310
     45          1           0       -2.737905   -3.365263    1.148225
     46          1           0       -3.165221   -2.362060    2.562707
     47          1           0       -0.460027   -2.856723    0.000711
     48          1           0       -1.996695   -0.430464   -0.719863
     49          1           0        1.722558   -0.480785    4.260887
     50          1           0        2.836382   -0.874299    2.958487
     51          1           0        2.827829   -2.695651    0.324023
     52          1           0       -2.046148   -1.208730    4.380484
     53          1           0       -0.604630   -0.205816    4.688193
     54          1           0       -1.824449    0.317675    3.487881
     55          1           0       -5.660965   -1.530881    2.156055
     56          1           0       -5.741639   -3.221728    1.611998
     57          1           0       -6.792975   -2.008212    0.861826
     58          1           0        2.114025    1.191530    1.693208
     59          1           0        0.945463    1.571092    2.932404
     60          1           0        0.312691    0.278634   -0.149647
     61          1           0        4.534530   -1.385516   -3.114869
     62          1           0        4.018278   -2.544401   -1.907127
     63          1           0       -5.699611   -2.141063   -3.047067
     64          1           0        5.185349   -1.156876   -0.106502
     65          1           0        5.759441   -0.059023   -1.344014
     66          1           0        4.011425    0.563231   -4.060130
     67          1           0        3.527293    2.151484   -3.425962
     68          1           0        2.419034    1.241702   -4.466167
     69          1           0        0.760669    2.707445   -2.822895
     70          1           0       -7.102531   -3.628514   -0.715688
     71          1           0       -7.636693   -3.503547   -2.491972
     72          1           0        3.743683    3.537164    3.672166
     73          1           0       -0.492648    4.402593   -2.958782
     74          1           0       -4.149498    4.509138   -0.455277
     75          1           0       -3.894492    3.824875    1.177298
     76          1           0       -2.995399    5.275813    0.650170
     77          1           0        8.440832   -2.196477   -0.885013
     78          1           0       -1.707357    6.460979   -3.076970
     79          1           0       -2.718800    6.027640   -1.577963
 ---------------------------------------------------------------------

 SCF Done:  E(RB3LYP) =  -1948.13314621     A.U. after    7 cycles
 SCF Done:  E(RB3LYP) =  -1948.13314853     A.U. after    8 cycles
 SCF Done:  E(RB3LYP) =  -1948.13314897     A.U. after    7 cycles
 SCF Done:  E(RB3LYP) =  -1948.13314569     A.U. after    7 cycles
 SCF Done:  E(RB3LYP) =  -1948.13315165     A.U. after    7 cycles
 SCF Done:  E(RB3LYP) =  -1948.13314334     A.U. after    7 cycles
 SCF Done:  E(RB3LYP) =  -1948.13314625     A.U. after    7 cycles
 SCF Done:  E(RB3LYP) =  -1948.13314779     A.U. after    8 cycles
 SCF Done:  E(RB3LYP) =  -1948.13314259     A.U. after    7 cycles

 Alpha  occ. eigenvalues --  -19.19425 -19.17918 -19.13987 -19.12075 -19.12064
 Alpha  occ. eigenvalues --  -19.08176 -14.37180 -14.36863 -14.32367 -14.30941
 Alpha  occ. eigenvalues --  -10.33319 -10.31272 -10.28063 -10.26718 -10.26262
 Alpha  occ. eigenvalues --  -10.25626 -10.25507 -10.23094 -10.22866 -10.22854
 Alpha  occ. eigenvalues --  -10.22500 -10.22073 -10.21651 -10.21531 -10.21426
 Alpha  occ. eigenvalues --  -10.21331 -10.21226 -10.21020 -10.20523 -10.20441
 Alpha  occ. eigenvalues --  -10.20019 -10.19789 -10.19675 -10.19567 -10.19314
 Alpha  occ. eigenvalues --  -10.19245 -10.18487 -10.18451 -10.18027 -10.17990
 Alpha  occ. eigenvalues --  -10.16981 -10.16969 -10.16425  -1.11136  -1.09549
 Alpha  occ. eigenvalues --   -1.02058  -1.01974  -1.00648  -1.00232  -0.99911
 Alpha  occ. eigenvalues --   -0.96555  -0.93535  -0.91698  -0.84055  -0.82617
 Alpha  occ. eigenvalues --   -0.81491  -0.80181  -0.80077  -0.79406  -0.78258
 Alpha  occ. eigenvalues --   -0.76749  -0.75865  -0.75744  -0.74320  -0.73280
 Alpha  occ. eigenvalues --   -0.71112  -0.70230  -0.69943  -0.69705  -0.67623
 Alpha  occ. eigenvalues --   -0.66768  -0.65904  -0.63253  -0.61545  -0.60997
 Alpha  occ. eigenvalues --   -0.59897  -0.59154  -0.59095  -0.57565  -0.57182
 Alpha  occ. eigenvalues --   -0.55753  -0.55373  -0.55153  -0.53565  -0.52941
 Alpha  occ. eigenvalues --   -0.52110  -0.51631  -0.51185  -0.50209  -0.49633
 Alpha  occ. eigenvalues --   -0.49283  -0.48912  -0.48566  -0.48315  -0.48051
 Alpha  occ. eigenvalues --   -0.47591  -0.47313  -0.46574  -0.46160  -0.46050
 Alpha  occ. eigenvalues --   -0.45150  -0.44842  -0.44627  -0.44265  -0.44140
 Alpha  occ. eigenvalues --   -0.43434  -0.43343  -0.42889  -0.42667  -0.42022
 Alpha  occ. eigenvalues --   -0.41842  -0.41421  -0.41349  -0.41229  -0.41029
 Alpha  occ. eigenvalues --   -0.40871  -0.40587  -0.40583  -0.40138  -0.40092
 Alpha  occ. eigenvalues --   -0.39936  -0.39462  -0.39323  -0.38612  -0.38217
 Alpha  occ. eigenvalues --   -0.38079  -0.37894  -0.37656  -0.37389  -0.36908
 Alpha  occ. eigenvalues --   -0.36692  -0.36374  -0.36133  -0.36113  -0.35340
 Alpha  occ. eigenvalues --   -0.34283  -0.33805  -0.33481  -0.32327  -0.32225
 Alpha  occ. eigenvalues --   -0.32047  -0.30103  -0.29699  -0.29430  -0.29145
 Alpha  occ. eigenvalues --   -0.27799  -0.27361  -0.26062  -0.24604  -0.23891
 Alpha  occ. eigenvalues --   -0.23695  -0.22904  -0.22514  -0.22509  -0.18579
 Alpha virt. eigenvalues --   -0.12872  -0.07758  -0.03660  -0.01705  -0.00812
 Alpha virt. eigenvalues --    0.01176   0.02285   0.02777   0.03128   0.04133
 Alpha virt. eigenvalues --    0.04289   0.05021   0.05362   0.05732   0.05898

 Mulliken charges:
               1
     1  O   -0.206992
     2  O   -0.171026
     3  O   -0.227005
     4  O   -0.182089
     5  O   -0.223069
     6  O   -0.305428
     7  N   -0.021458
     8  N   -0.230425
     9  N   -0.126510
    10  N   -0.348851
    11  C    0.060821
    12  C    0.212172
    13  C   -0.029794
    14  C   -0.092476
    15  C   -0.106089
    16  C    0.091512
    17  C   -0.185513
    18  C    0.141604
    19  C   -0.040806
    20  C   -0.218986
    21  C    0.145205
    22  C    0.144755
    23  C   -0.112670
    24  C    0.102218
    25  C    0.087974
    26  C   -0.120137
    27  C   -0.024192
    28  C    0.067464
    29  C    0.119328
    30  C   -0.007694
    31  C   -0.001007
    32  C    0.112075
    33  C   -0.086447
    34  C    0.126547
    35  C    0.085265
    36  C   -0.026241
    37  C    0.124934
    38  C    0.077201
    39  C   -0.232502
    40  C    0.140034
    41  C   -0.024724
    42  C    0.099547
    43  C   -0.031199
    44  H    0.070122
    45  H    0.003809
    46  H    0.009831
    47  H    0.147309
    48  H    0.157456
    49  H    0.016473
    50  H    0.013749
    51  H    0.000457
    52  H    0.020626
    53  H    0.021873
    54  H    0.086521
    55  H    0.022131
    56  H    0.032771
    57  H    0.039201
    58  H    0.060492
    59  H    0.054942
    60  H    0.146716
    61  H    0.004976
    62  H    0.007355
    63  H    0.014607
    64  H    0.035206
    65  H    0.031575
    66  H    0.002218
    67  H    0.023377
    68  H    0.028623
    69  H   -0.039192
    70  H    0.009788
    71  H    0.029371
    72  H    0.181156
    73  H   -0.026325
    74  H    0.020285
    75  H    0.006668
    76  H    0.019001
    77  H    0.178182
    78  H    0.011020
    79  H    0.002302
 Sum of Mulliken charges =   0.00000

 Dipole moment (field-independent basis, Debye):
    X=              0.5110    Y=             -4.0170    Z=              5.2348  Tot=              6.6182
 Quadrupole moment (field-independent basis, Debye-Ang):
   XX=           -235.6505   YY=           -244.2163   ZZ=           -258.9492
   XY=             23.8872   XZ=            -16.7901   YZ=            -15.8365

 SCF Done:  E(RB3LYP) =  -1948.13315123     A.U. after    8 cycles

 Excitation energies and oscillator strengths:

 Excited state symmetry could not be determined.
 Excited State   1:      Singlet-?Sym    0.8452 eV 1466.94 nm  f=0.0001  <S**2>=0.000
     155 ->156         0.70380
 This state for optimization and/or second-order correction.
 Total Energy, E(TD-HF/TD-KS) =  -1948.10209113
 Copying the excited state density for this state as the 1-particle RhoCI density.

 Excited state symmetry could not be determined.
 Excited State   2:      Singlet-?Sym    2.0527 eV  603.99 nm  f=0.0025  <S**2>=0.000
     152 ->156         0.59887
     153 ->156         0.24188
     154 ->156         0.26550

 Excited state symmetry could not be determined.
 Excited State   3:      Singlet-?Sym    2.1861 eV  567.14 nm  f=0.0020  <S**2>=0.000
     148 ->156        -0.10649
     152 ->156        -0.22481
     153 ->156         0.64663
