 Gaussian 16, Revision A.03,
 Gaussian 16:  ES64L-G16RevA.03 25-Dec-2016

 ------------------------------------------------
 #n B3LYP/SVP Opt=Restart Freq=savenormalmodes Td
 ------------------------------------------------

 Normal termination of Gaussian 16 at Fri Jul 26 10:11:51 2019.

 ----------------------------------------------------------------------
 #N Geom=AllCheck Guess=TCheck SCRF=Check GenChk RB3LYP TD(FC,Read)/SVP
  Freq
 ----------------------------------------------------------------------

 Structure from the checkpoint file:  "pheophytin-s1-geom-freq.chk"
 -----------------------
 pheophytin-s1-geom-freq
 -----------------------
 Charge =  0 Multiplicity = 1

                         Standard orientation:
 ---------------------------------------------------------------------
 Center     Atomic      Atomic             Coordinates (Angstroms)
 Number     Number       Type             X           Y           Z
 ---------------------------------------------------------------------
      1          6           0       -5.121394   -1.951967    0.453913
      2          6           0       -4.718605    2.747705    1.423375
      3          6           0       -9.297714    3.357732   -0.233915
      4          6           0       -9.821381   -1.424397   -0.948507
      5          7           0       -5.182559    0.425361    0.825565
      6          6           0       -4.509000   -0.750146    0.829291
      7          6           0       -3.062425   -0.595034    1.277578
      8          6           0       -3.068601    0.838876    1.865212
      9          6           0       -4.390521    1.389565    1.341056
     10          6           0       -2.995430    0.866793    3.401712
     11          6           0       -2.066640   -0.789386    0.113835
     12          6           0       -0.606146   -0.780961    0.562108
     13          6           0        0.364853   -1.049705   -0.571871
     14          8           0        0.062428   -1.460743   -1.666327
     15          8           0        1.629256   -0.785632   -0.200182
     16          7           0       -7.018324    2.762435    0.494068
     17          6           0       -5.908390    3.382603    1.018814
     18          6           0       -6.187566    4.789073    1.064521
     19          6           0       -7.469638    4.986591    0.537666
     20          6           0       -8.005681    3.673795    0.206599
     21          6           0       -5.218824    5.822178    1.550006
     22          6           0       -8.114464    6.282604    0.369350
     23          6           0       -9.045059    6.646799   -0.534036
     24          7           0       -9.186048    0.904947   -0.490231
     25          6           0       -9.842303    2.096637   -0.541952
     26          6           0      -11.237681    1.913186   -0.979390
     27          6           0      -11.395594    0.569151   -1.189424
     28          6           0      -10.092895   -0.039872   -0.875192
     29          6           0      -12.238136    3.013836   -1.145872
     30          6           0      -12.608985   -0.169511   -1.677707
     31          6           0      -12.595273   -0.463916   -3.188233
     32          7           0       -7.498672   -1.257050   -0.226443
     33          6           0       -8.590009   -2.014121   -0.640634
     34          6           0       -8.193698   -3.404226   -0.662519
     35          6           0       -6.859498   -3.411310   -0.248825
     36          6           0       -6.454484   -2.072130    0.018595
     37          6           0       -9.049833   -4.566294   -1.044870
     38          6           0       -5.738502   -4.307807    0.013451
     39          8           0       -5.671067   -5.514981   -0.059060
     40          6           0       -4.533759   -3.358861    0.437720
     41          6           0       -3.945722   -3.842964    1.751424
     42          8           0       -4.203837   -3.400323    2.845603
     43          8           0       -3.104699   -4.867110    1.542942
     44          6           0       -2.584614   -5.510810    2.705730
     45          6           0        2.659506   -1.052285   -1.178292
     46          6           0        3.978903   -0.713537   -0.564026
     47          6           0        4.957007    0.050117   -1.085567
     48          6           0        4.874858    0.743242   -2.423668
     49          6           0        6.252944    0.243644   -0.324907
     50          6           0        7.487747   -0.396162   -0.986648
     51          6           0        8.765301   -0.208154   -0.161297
     52          6           0       10.061487   -0.744820   -0.800857
     53          6           0       10.022107   -2.267822   -0.990841
     54          6           0       11.283338   -0.293645    0.024337
     55          6           0       12.654201   -0.575044   -0.601885
     56          6           0       13.816021   -0.013466    0.226108
     57          6           0       15.221850   -0.189670   -0.382118
     58          6           0       15.616787   -1.668314   -0.504262
     59          6           0       16.254128    0.620255    0.427436
     60          6           0       17.661695    0.702442   -0.174827
     61          6           0       18.601600    1.613032    0.623774
     62          6           0       20.061141    1.663292    0.133101
     63          6           0       20.190780    2.236194   -1.284819
     64          6           0       20.935470    2.451510    1.117216
     65          1           0       -3.958573    3.406207    1.847789
     66          1           0       -9.974342    4.205292   -0.323396
     67          1           0      -10.626438   -2.090301   -1.261039
     68          1           0       -2.839237   -1.336309    2.061984
     69          1           0       -2.234416    1.440654    1.465528
     70          1           0       -2.035270    0.455629    3.753146
     71          1           0       -3.087591    1.893294    3.789430
     72          1           0       -3.804629    0.262613    3.841579
     73          1           0       -2.265540   -1.740648   -0.401716
     74          1           0       -2.230823   -0.004120   -0.643291
     75          1           0       -0.316888    0.169113    1.039763
     76          1           0       -0.429676   -1.557931    1.328288
     77          1           0       -4.313912    5.858869    0.918534
     78          1           0       -5.658371    6.828740    1.544284
     79          1           0       -4.882429    5.611416    2.579358
     80          1           0       -7.759470    7.059477    1.056851
     81          1           0       -9.416245    5.969808   -1.306257
     82          1           0       -9.437554    7.666828   -0.543217
     83          1           0      -12.364829    3.594443   -0.216141
     84          1           0      -11.930807    3.729976   -1.927867
     85          1           0      -13.226035    2.623305   -1.429895
     86          1           0      -12.711603   -1.119281   -1.124389
     87          1           0      -13.512576    0.412798   -1.433207
     88          1           0      -12.554901    0.469515   -3.771574
     89          1           0      -11.717850   -1.066327   -3.472169
     90          1           0      -13.499200   -1.016845   -3.491516
     91          1           0       -9.944299   -4.639359   -0.402017
     92          1           0       -9.410438   -4.480240   -2.084788
     93          1           0       -8.482613   -5.502471   -0.953270
     94          1           0       -3.762454   -3.496436   -0.339116
     95          1           0       -1.931234   -6.313859    2.343468
     96          1           0       -2.014213   -4.802445    3.325911
     97          1           0       -3.399393   -5.929814    3.315223
     98          1           0        2.601916   -2.121583   -1.449780
     99          1           0        2.441520   -0.484133   -2.093731
    100          1           0        4.145682   -1.169857    0.419025
    101          1           0        5.197481    1.794562   -2.332396
    102          1           0        5.550166    0.272585   -3.158837
    103          1           0        3.865055    0.734091   -2.855378
    104          1           0        6.439099    1.328387   -0.206606
    105          1           0        6.141877   -0.165103    0.693175
    106          1           0        7.283478   -1.468901   -1.142655
    107          1           0        7.642445    0.036350   -1.991232
    108          1           0        8.895662    0.871086    0.038273
    109          1           0        8.632840   -0.680238    0.830963
    110          1           0       10.151308   -0.280749   -1.803026
    111          1           0        9.168111   -2.582322   -1.609929
    112          1           0       10.931390   -2.642269   -1.484947
    113          1           0        9.935723   -2.781561   -0.017216
    114          1           0       11.198197    0.793258    0.205956
    115          1           0       11.234443   -0.766342    1.024043
    116          1           0       12.784968   -1.660927   -0.737127
    117          1           0       12.686819   -0.136266   -1.617114
    118          1           0       13.639755    1.065418    0.388859
    119          1           0       13.801783   -0.471758    1.233609
    120          1           0       15.195029    0.238747   -1.403653
    121          1           0       14.896062   -2.236647   -1.111770
    122          1           0       16.602657   -1.791177   -0.977874
    123          1           0       15.662983   -2.144492    0.491010
    124          1           0       15.868204    1.648396    0.552402
    125          1           0       16.316899    0.200534    1.449806
    126          1           0       18.109303   -0.305394   -0.233772
    127          1           0       17.582800    1.060876   -1.216607
    128          1           0       18.193061    2.641940    0.636470
    129          1           0       18.599988    1.280128    1.677917
    130          1           0       20.437794    0.622220    0.110620
    131          1           0       19.803109    3.269218   -1.328459
    132          1           0       21.244896    2.264679   -1.605676
    133          1           0       19.637699    1.640647   -2.027490
    134          1           0       20.890012    2.022679    2.131655
    135          1           0       21.991703    2.457911    0.802208
    136          1           0       20.603508    3.502121    1.185899
    137          1           0       -7.112250    1.757124    0.387488
    138          1           0       -7.576327   -0.241443   -0.146720
 ---------------------------------------------------------------------

 SCF Done:  E(RB3LYP) =  -2733.62526035     A.U. after    1 cycles

 Excitation energies and oscillator strengths:

 Excited State   1:      Singlet-A      2.0897 eV  593.32 nm  f=0.1621  <S**2>=0.000
     235 -> 238       -0.32565
     236 -> 237        0.62404
 This state for optimization and/or second-order correction.
 Total Energy, E(TD-HF/TD-DFT) =  -2733.54846684
 Copying the excited state density for this state as the 1-particle RhoCI density.

 Excited State   2:      Singlet-A      2.2822 eV  543.27 nm  f=0.0314  <S**2>=0.000
     235 -> 237        0.59781
     236 -> 238        0.37061

 Excited State   3:      Singlet-A      2.9222 eV  424.29 nm  f=0.0009  <S**2>=0.000
     234 -> 237        0.69317
