 Gaussian 09, Revision D.01,
 Gaussian 09:  ES64L-G09RevD.01 24-Apr-2013

 ----------------------------------------
 #n B3LYP/SVP Opt Freq=savenormalmodes td
 ----------------------------------------

 -----------------------
 pheophytin-s1-geom-freq
 -----------------------
 Symbolic Z-matrix:
 Charge =  0 Multiplicity = 1

 SCF Done:  E(RB3LYP) =  -2733.62609144     A.U. after   16 cycles
 SCF Done:  E(RB3LYP) =  -2733.62564471     A.U. after   14 cycles
 SCF Done:  E(RB3LYP) =  -2733.62534623     A.U. after   13 cycles
 SCF Done:  E(RB3LYP) =  -2733.62519619     A.U. after   13 cycles
 SCF Done:  E(RB3LYP) =  -2733.62519195     A.U. after   11 cycles
 SCF Done:  E(RB3LYP) =  -2733.62528972     A.U. after   11 cycles
 SCF Done:  E(RB3LYP) =  -2733.62533621     A.U. after   11 cycles
 SCF Done:  E(RB3LYP) =  -2733.62535602     A.U. after   11 cycles
 SCF Done:  E(RB3LYP) =  -2733.62536040     A.U. after   11 cycles
 SCF Done:  E(RB3LYP) =  -2733.62535391     A.U. after   11 cycles
 Optimization completed.
    -- Stationary point found.
 Normal termination of Gaussian 09 at Mon Jul  1 02:00:58 2019.

 ----------------------------------------------------------------------
 #N Geom=AllCheck Guess=TCheck SCRF=Check GenChk RB3LYP TD(FC)/SVP Freq
 ----------------------------------------------------------------------

 Structure from the checkpoint file:  "pheophytin-s1-geom-freq.chk"
 -----------------------
 pheophytin-s1-geom-freq
 -----------------------
 Charge =  0 Multiplicity = 1

                         Standard orientation:
 ---------------------------------------------------------------------
 Center     Atomic      Atomic             Coordinates (Angstroms)
 Number     Number       Type             X           Y           Z
 ---------------------------------------------------------------------
      1          6           0       -5.203317   -1.988450    0.409184
      2          6           0       -4.594530    2.649820    1.551812
      3          6           0       -9.081632    3.550908   -0.220700
      4          6           0       -9.823704   -1.171159   -1.115862
      5          7           0       -5.155772    0.374804    0.862507
      6          6           0       -4.542967   -0.833458    0.845858
      7          6           0       -3.106388   -0.769055    1.345943
      8          6           0       -3.054657    0.647074    1.972951
      9          6           0       -4.332514    1.280049    1.432913
     10          6           0       -3.016710    0.631531    3.510857
     11          6           0       -2.081526   -0.989920    0.212924
     12          6           0       -0.637279   -1.057948    0.708008
     13          6           0        0.350504   -1.387484   -0.395189
     14          8           0        0.063738   -1.867276   -1.465760
     15          8           0        1.609022   -1.095710   -0.024801
     16          7           0       -6.860223    2.813923    0.555577
     17          6           0       -5.737095    3.358256    1.133671
     18          6           0       -5.944946    4.775413    1.217368
     19          6           0       -7.197555    5.056140    0.658519
     20          6           0       -7.789597    3.784416    0.268392
     21          6           0       -4.940764    5.741291    1.765267
     22          6           0       -7.769658    6.388658    0.513326
     23          6           0       -8.648363    6.829560   -0.407631
     24          7           0       -9.087016    1.105628   -0.557428
     25          6           0       -9.680251    2.330586   -0.587112
     26          6           0      -11.069069    2.233818   -1.070411
     27          6           0      -11.288115    0.907401   -1.331679
     28          6           0      -10.027921    0.222059   -1.001375
     29          6           0      -12.007218    3.389452   -1.226659
     30          6           0      -12.521772    0.249411   -1.880826
     31          6           0      -12.482139    0.018273   -3.401851
     32          7           0       -7.519479   -1.148148   -0.318201
     33          6           0       -8.633831   -1.833258   -0.792251
     34          6           0       -8.307659   -3.240359   -0.852339
     35          6           0       -6.989712   -3.330461   -0.398648
     36          6           0       -6.526087   -2.023957   -0.070863
     37          6           0       -9.208785   -4.342847   -1.301872
     38          6           0       -5.924782   -4.292442   -0.134909
     39          8           0       -5.916462   -5.498233   -0.249132
     40          6           0       -4.687711   -3.422498    0.359196
     41          6           0       -4.165647   -3.981814    1.670789
     42          8           0       -4.435194   -3.564881    2.772357
     43          8           0       -3.370529   -5.039241    1.449743
     44          6           0       -2.918435   -5.748669    2.602648
     45          6           0        2.652633   -1.424252   -0.969386
     46          6           0        3.958438   -0.989991   -0.386727
     47          6           0        4.922582   -0.264440   -0.983182
     48          6           0        4.834000    0.276663   -2.389353
     49          6           0        6.208961    0.040729   -0.243272
     50          6           0        7.460592   -0.640316   -0.827581
     51          6           0        8.733544   -0.323356   -0.035360
     52          6           0       10.040493   -0.905811   -0.609608
     53          6           0       10.039505   -2.441201   -0.596703
     54          6           0       11.255594   -0.319926    0.137185
     55          6           0       12.626774   -0.633276   -0.472980
     56          6           0       13.781468    0.056960    0.262533
     57          6           0       15.181694   -0.137772   -0.353108
     58          6           0       15.624130   -1.607707   -0.327100
     59          6           0       16.200284    0.785661    0.344584
     60          6           0       17.590690    0.853952   -0.297978
     61          6           0       18.514557    1.871549    0.381236
     62          6           0       19.959343    1.922675   -0.151195
     63          6           0       20.034775    2.357135   -1.621202
     64          6           0       20.827256    2.833355    0.727208
     65          1           0       -3.815792    3.254362    2.020232
     66          1           0       -9.710361    4.435385   -0.302097
     67          1           0      -10.650597   -1.784236   -1.475859
     68          1           0       -2.952420   -1.541686    2.116863
     69          1           0       -2.181327    1.215104    1.608983
     70          1           0       -2.088843    0.159733    3.872666
     71          1           0       -3.062338    1.651262    3.923889
     72          1           0       -3.867604    0.061702    3.916534
     73          1           0       -2.304357   -1.922182   -0.326631
     74          1           0       -2.183432   -0.184082   -0.533860
     75          1           0       -0.311424   -0.125126    1.194596
     76          1           0       -0.529987   -1.844870    1.477315
     77          1           0       -4.016358    5.752497    1.161626
     78          1           0       -5.329147    6.768614    1.781006
     79          1           0       -4.646776    5.480590    2.796157
     80          1           0       -7.400250    7.123513    1.238447
     81          1           0       -9.026397    6.198014   -1.214364
     82          1           0       -8.988254    7.868280   -0.395004
     83          1           0      -12.134357    3.942811   -0.280504
     84          1           0      -11.639430    4.115981   -1.972120
     85          1           0      -13.003842    3.060489   -1.554616
     86          1           0      -12.683958   -0.716606   -1.371732
     87          1           0      -13.402989    0.864066   -1.633820
     88          1           0      -12.384509    0.972488   -3.943318
     89          1           0      -11.625931   -0.611885   -3.690287
     90          1           0      -13.402097   -0.478859   -3.750202
     91          1           0      -10.122102   -4.396966   -0.684051
     92          1           0       -9.537724   -4.198381   -2.345767
     93          1           0       -8.690286   -5.308837   -1.234214
     94          1           0       -3.901326   -3.572878   -0.399852
     95          1           0       -2.285305   -6.563425    2.230729
     96          1           0       -2.342999   -5.089235    3.270249
     97          1           0       -3.770667   -6.157254    3.166391
     98          1           0        2.627284   -2.516206   -1.136485
     99          1           0        2.423209   -0.953879   -1.935879
    100          1           0        4.128088   -1.334093    0.640515
    101          1           0        5.131287    1.339125   -2.412274
    102          1           0        5.525426   -0.255272   -3.065470
    103          1           0        3.827937    0.196526   -2.822451
    104          1           0        6.370777    1.135725   -0.244804
    105          1           0        6.101013   -0.255939    0.813282
    106          1           0        7.284019   -1.728794   -0.855809
    107          1           0        7.603742   -0.325237   -1.876547
    108          1           0        8.838958    0.774989    0.029106
    109          1           0        8.613131   -0.672713    1.007875
    110          1           0       10.113198   -0.575606   -1.664791
    111          1           0        9.194364   -2.856228   -1.166868
    112          1           0       10.958498   -2.855283   -1.038543
    113          1           0        9.964566   -2.822987    0.436677
    114          1           0       11.137617    0.777906    0.186270
    115          1           0       11.233708   -0.668221    1.187650
    116          1           0       12.790301   -1.723172   -0.481100
    117          1           0       12.631752   -0.317415   -1.533417
    118          1           0       13.569234    1.140672    0.307818
    119          1           0       13.801883   -0.285865    1.314797
    120          1           0       15.122358    0.179067   -1.413211
    121          1           0       14.915708   -2.258924   -0.861442
    122          1           0       16.608022   -1.748000   -0.799953
    123          1           0       15.697457   -1.975515    0.711589
    124          1           0       15.779938    1.807447    0.374047
    125          1           0       16.300094    0.475156    1.402397
    126          1           0       18.073060   -0.138949   -0.267097
    127          1           0       17.476312    1.102411   -1.368096
    128          1           0       18.068593    2.881924    0.303019
    129          1           0       18.549661    1.645520    1.462756
    130          1           0       20.372998    0.897806   -0.081994
    131          1           0       19.611876    3.368430   -1.754795
    132          1           0       21.079189    2.386555   -1.972308
    133          1           0       19.484077    1.674726   -2.286897
    134          1           0       20.820820    2.505762    1.779675
    135          1           0       21.875014    2.844107    0.385171
    136          1           0       20.459128    3.873785    0.701254
    137          1           0       -7.002867    1.818841    0.413376
    138          1           0       -7.548310   -0.133121   -0.205616
 ---------------------------------------------------------------------

 SCF Done:  E(RB3LYP) =  -2733.62535205     A.U. after    8 cycles
 SCF Done:  E(RB3LYP) =  -2733.62534943     A.U. after    9 cycles
 SCF Done:  E(RB3LYP) =  -2733.62536294     A.U. after    7 cycles
 SCF Done:  E(RB3LYP) =  -2733.62533839     A.U. after    9 cycles
 SCF Done:  E(RB3LYP) =  -2733.62535383     A.U. after    7 cycles
 SCF Done:  E(RB3LYP) =  -2733.62534890     A.U. after    8 cycles
 SCF Done:  E(RB3LYP) =  -2733.62534390     A.U. after    7 cycles
 SCF Done:  E(RB3LYP) =  -2733.62535758     A.U. after    8 cycles
 SCF Done:  E(RB3LYP) =  -2733.62534886     A.U. after    8 cycles

 Alpha  occ. eigenvalues --  -19.17641 -19.17481 -19.12203 -19.12113 -19.12086
 Alpha  occ. eigenvalues --  -14.36815 -14.36676 -14.32127 -14.29931 -10.31279
 Alpha  occ. eigenvalues --  -10.31160 -10.27804 -10.24640 -10.24328 -10.23686
 Alpha  occ. eigenvalues --  -10.23597 -10.23161 -10.23153 -10.22761 -10.22644
 Alpha  occ. eigenvalues --  -10.21431 -10.21202 -10.21181 -10.21160 -10.20564
 Alpha  occ. eigenvalues --  -10.20469 -10.20328 -10.20315 -10.20227 -10.20120
 Alpha  occ. eigenvalues --  -10.20094 -10.20027 -10.19984 -10.19796 -10.19736
 Alpha  occ. eigenvalues --  -10.19523 -10.19469 -10.19430 -10.19359 -10.19221
 Alpha  occ. eigenvalues --  -10.19189 -10.19034 -10.18979 -10.18869 -10.18750
 Alpha  occ. eigenvalues --  -10.18703 -10.18694 -10.18637 -10.18599 -10.18567
 Alpha  occ. eigenvalues --  -10.18299 -10.18288 -10.18239 -10.18091 -10.17997
 Alpha  occ. eigenvalues --  -10.17976 -10.17851 -10.17833 -10.17799 -10.17785
 Alpha  occ. eigenvalues --  -10.17768 -10.17576 -10.17552 -10.17545  -1.09606
 Alpha  occ. eigenvalues --   -1.09382  -1.02717  -1.00489  -1.00466  -0.98289
 Alpha  occ. eigenvalues --   -0.97951  -0.94372  -0.93093  -0.84608  -0.82562
 Alpha  occ. eigenvalues --   -0.81779  -0.81681  -0.81091  -0.80873  -0.80697
 Alpha  occ. eigenvalues --   -0.80023  -0.79544  -0.79200  -0.78799  -0.77624
 Alpha  occ. eigenvalues --   -0.76788  -0.75994  -0.75697  -0.74884  -0.74388
 Alpha  occ. eigenvalues --   -0.73606  -0.73265  -0.72553  -0.71772  -0.70910
 Alpha  occ. eigenvalues --   -0.70259  -0.69251  -0.68795  -0.68108  -0.67640
 Alpha  occ. eigenvalues --   -0.67296  -0.67067  -0.66474  -0.65994  -0.65327
 Alpha  occ. eigenvalues --   -0.64128  -0.62927  -0.62486  -0.61835  -0.61674
 Alpha  occ. eigenvalues --   -0.61123  -0.58940  -0.58346  -0.57843  -0.57294
 Alpha  occ. eigenvalues --   -0.56906  -0.56030  -0.56018  -0.55738  -0.55598
 Alpha  occ. eigenvalues --   -0.55236  -0.55072  -0.54531  -0.54010  -0.53037
 Alpha  occ. eigenvalues --   -0.52635  -0.51850  -0.51582  -0.50945  -0.50442
 Alpha  occ. eigenvalues --   -0.49930  -0.49368  -0.48839  -0.48614  -0.48170
 Alpha  occ. eigenvalues --   -0.47844  -0.47585  -0.47415  -0.47227  -0.46948
 Alpha  occ. eigenvalues --   -0.46571  -0.46447  -0.46037  -0.45774  -0.45554
 Alpha  occ. eigenvalues --   -0.45349  -0.45079  -0.44810  -0.44707  -0.44471
 Alpha  occ. eigenvalues --   -0.44285  -0.44151  -0.44033  -0.43775  -0.43628
 Alpha  occ. eigenvalues --   -0.43317  -0.43175  -0.43114  -0.42761  -0.42682
 Alpha  occ. eigenvalues --   -0.42307  -0.42173  -0.42065  -0.41780  -0.41623
 Alpha  occ. eigenvalues --   -0.41461  -0.41019  -0.40890  -0.40683  -0.40525
 Alpha  occ. eigenvalues --   -0.40310  -0.40088  -0.39883  -0.39637  -0.39524
 Alpha  occ. eigenvalues --   -0.39454  -0.39287  -0.38926  -0.38785  -0.38546
 Alpha  occ. eigenvalues --   -0.38366  -0.38203  -0.38169  -0.38099  -0.37873
 Alpha  occ. eigenvalues --   -0.37661  -0.37389  -0.37357  -0.37318  -0.37115
 Alpha  occ. eigenvalues --   -0.37002  -0.36893  -0.36599  -0.36310  -0.36226
 Alpha  occ. eigenvalues --   -0.36093  -0.35667  -0.35615  -0.35527  -0.35312
 Alpha  occ. eigenvalues --   -0.35091  -0.34754  -0.34669  -0.34265  -0.34111
 Alpha  occ. eigenvalues --   -0.34016  -0.33964  -0.33680  -0.33542  -0.32736
 Alpha  occ. eigenvalues --   -0.32722  -0.32276  -0.32107  -0.32037  -0.32020
 Alpha  occ. eigenvalues --   -0.31822  -0.31673  -0.31438  -0.31050  -0.30990
 Alpha  occ. eigenvalues --   -0.30622  -0.30441  -0.29441  -0.28178  -0.27980
 Alpha  occ. eigenvalues --   -0.27646  -0.27199  -0.26772  -0.26378  -0.26262
 Alpha  occ. eigenvalues --   -0.24991  -0.24958  -0.23908  -0.22723  -0.19633
 Alpha  occ. eigenvalues --   -0.18935
 Alpha virt. eigenvalues --   -0.10083  -0.07544  -0.04076  -0.01539   0.00309
 Alpha virt. eigenvalues --    0.00344   0.00790   0.01106   0.02669   0.04512
 Alpha virt. eigenvalues --    0.04671   0.04698   0.05131   0.05350   0.05612

 Mulliken charges:
               1
     1  C    0.031391
     2  C   -0.066498
     3  C   -0.103419
     4  C   -0.099192
     5  N   -0.168233
     6  C   -0.086186
     7  C   -0.014731
     8  C   -0.033346
     9  C   -0.002681
    10  C    0.073908
    11  C    0.055507
    12  C    0.052119
    13  C    0.160022
    14  O   -0.235023
    15  O   -0.315167
    16  N   -0.054195
    17  C    0.105561
    18  C   -0.147375
    19  C    0.047831
    20  C    0.094654
    21  C    0.118642
    22  C   -0.063285
    23  C   -0.032503
    24  N   -0.244414
    25  C    0.082774
    26  C   -0.151340
    27  C   -0.098102
    28  C    0.078839
    29  C    0.124541
    30  C    0.071592
    31  C    0.018925
    32  N   -0.025943
    33  C    0.084997
    34  C   -0.162315
    35  C    0.009612
    36  C    0.078469
    37  C    0.114657
    38  C    0.043970
    39  O   -0.162691
    40  C   -0.037006
    41  C    0.184303
    42  O   -0.228343
    43  O   -0.292641
    44  C    0.192729
    45  C    0.290181
    46  C   -0.095423
    47  C   -0.140013
    48  C    0.087790
    49  C    0.087570
    50  C    0.012798
    51  C    0.037002
    52  C   -0.056203
    53  C    0.035640
    54  C    0.030804
    55  C    0.047511
    56  C    0.031477
    57  C   -0.055839
    58  C    0.035166
    59  C    0.032545
    60  C    0.040779
    61  C    0.026208
    62  C   -0.087645
    63  C    0.029666
    64  C    0.045604
    65  H   -0.033540
    66  H   -0.036080
    67  H   -0.026841
    68  H    0.008291
    69  H   -0.004057
    70  H    0.012684
    71  H    0.008067
    72  H    0.028651
    73  H    0.017527
    74  H    0.005342
    75  H    0.021641
    76  H    0.027422
    77  H    0.026097
    78  H    0.006028
    79  H    0.023563
    80  H   -0.002750
    81  H    0.024755
    82  H    0.021584
    83  H    0.023676
    84  H    0.019111
    85  H    0.003088
    86  H   -0.000649
    87  H   -0.003973
    88  H    0.010551
    89  H    0.010158
    90  H    0.012166
    91  H    0.024844
    92  H    0.024188
    93  H    0.034646
    94  H    0.059908
    95  H    0.033480
    96  H    0.023724
    97  H    0.033767
    98  H    0.021811
    99  H    0.010715
   100  H   -0.013616
   101  H    0.013387
   102  H    0.029226
   103  H    0.004515
   104  H   -0.002823
   105  H   -0.011214
   106  H   -0.000033
   107  H   -0.007481
   108  H   -0.015559
   109  H   -0.013632
   110  H   -0.019991
   111  H    0.006332
   112  H    0.008592
   113  H    0.000241
   114  H   -0.015957
   115  H   -0.014986
   116  H   -0.002439
   117  H   -0.016000
   118  H   -0.016204
   119  H   -0.015575
   120  H   -0.020503
   121  H    0.006700
   122  H    0.006666
   123  H   -0.000707
   124  H   -0.015922
   125  H   -0.015471
   126  H   -0.008157
   127  H   -0.009024
   128  H   -0.015199
   129  H   -0.014169
   130  H   -0.012321
   131  H    0.000282
   132  H    0.003522
   133  H    0.009621
   134  H    0.002951
   135  H    0.003328
   136  H    0.000135
   137  H    0.137517
   138  H    0.138337
 Sum of Mulliken charges =   0.00000

 Dipole moment (field-independent basis, Debye):
    X=              2.8456    Y=              3.7720    Z=              0.5649  Tot=              4.7586
 Quadrupole moment (field-independent basis, Debye-Ang):
   XX=           -353.8587   YY=           -386.3924   ZZ=           -392.1824
   XY=            -24.4276   XZ=              9.1752   YZ=             -2.6687

 SCF Done:  E(RB3LYP) =  -2733.62535228     A.U. after    9 cycles

 Excitation energies and oscillator strengths:

 Excited state symmetry could not be determined.
 Excited State   1:      Singlet-?Sym    2.0903 eV  593.14 nm  f=0.1618  <S**2>=0.000
     235 -> 238       -0.32606
     236 -> 237        0.62395
 This state for optimization and/or second-order correction.
 Total Energy, E(TD-HF/TD-KS) =  -2733.54853445
 Copying the excited state density for this state as the 1-particle RhoCI density.

 Excited state symmetry could not be determined.
 Excited State   2:      Singlet-?Sym    2.2825 eV  543.20 nm  f=0.0316  <S**2>=0.000
     235 -> 237        0.59813
     236 -> 238        0.37029

 Excited state symmetry could not be determined.
 Excited State   3:      Singlet-?Sym    2.9225 eV  424.25 nm  f=0.0009  <S**2>=0.000
     234 -> 237        0.69332
