 Gaussian 16, Revision A.03,
 Gaussian 16:  ES64L-G16RevA.03 25-Dec-2016

 ------------------------------------------------------------
 # wB97XD/Def2TZVP iop(3/107=0150000000,3/108=0150000000) opt
 ------------------------------------------------------------

 -----
 TITLE
 -----
 Symbolic Z-matrix:
 Charge =  0 Multiplicity = 1

 SCF Done:  E(RwB97XD) =  -2735.82836406     A.U. after   18 cycles
 SCF Done:  E(RwB97XD) =  -2735.82872281     A.U. after   14 cycles
 SCF Done:  E(RwB97XD) =  -2735.82866909     A.U. after   14 cycles
 SCF Done:  E(RwB97XD) =  -2735.82889398     A.U. after   14 cycles
 SCF Done:  E(RwB97XD) =  -2735.82897671     A.U. after   12 cycles
 SCF Done:  E(RwB97XD) =  -2735.82900439     A.U. after   14 cycles
 SCF Done:  E(RwB97XD) =  -2735.82901849     A.U. after   10 cycles
 SCF Done:  E(RwB97XD) =  -2735.82902215     A.U. after   12 cycles
 SCF Done:  E(RwB97XD) =  -2735.82902448     A.U. after   11 cycles
 SCF Done:  E(RwB97XD) =  -2735.82902600     A.U. after   12 cycles
 SCF Done:  E(RwB97XD) =  -2735.82905549     A.U. after   12 cycles
 SCF Done:  E(RwB97XD) =  -2735.82905528     A.U. after   10 cycles
 SCF Done:  E(RwB97XD) =  -2735.82905625     A.U. after   12 cycles
 SCF Done:  E(RwB97XD) =  -2735.82905348     A.U. after   13 cycles
 SCF Done:  E(RwB97XD) =  -2735.82905646     A.U. after   13 cycles
 SCF Done:  E(RwB97XD) =  -2735.82905720     A.U. after   10 cycles
 SCF Done:  E(RwB97XD) =  -2735.82905749     A.U. after    9 cycles
 SCF Done:  E(RwB97XD) =  -2735.82905788     A.U. after    8 cycles
 SCF Done:  E(RwB97XD) =  -2735.82905794     A.U. after    6 cycles
 SCF Done:  E(RwB97XD) =  -2735.82905794     A.U. after    5 cycles
 Optimization completed on the basis of negligible forces.
    -- Stationary point found.

                         Standard orientation:
 ---------------------------------------------------------------------
 Center     Atomic      Atomic             Coordinates (Angstroms)
 Number     Number       Type             X           Y           Z
 ---------------------------------------------------------------------
      1          6           0       -5.231143   -1.901434   -0.322419
      2          6           0       -3.469334    1.299589    2.731947
      3          6           0       -6.342655    4.649219    0.709276
      4          6           0       -8.364115    1.374667   -2.186838
      5          7           0       -4.496528   -0.106379    1.060370
      6          6           0       -4.421400   -1.404118    0.658535
      7          6           0       -3.367833   -2.182248    1.420299
      8          6           0       -3.015029   -1.204116    2.557950
      9          6           0       -3.687109    0.076572    2.092284
     10          6           0       -3.535165   -1.653211    3.924814
     11          6           0       -2.169356   -2.552991    0.538342
     12          6           0       -1.193276   -3.472467    1.256647
     13          6           0        0.019414   -3.821403    0.426296
     14          8           0        0.248519   -3.394830   -0.674723
     15          8           0        0.809699   -4.681090    1.082636
     16          7           0       -4.992628    2.761942    1.485320
     17          6           0       -4.050883    2.518756    2.434460
     18          6           0       -3.762063    3.779483    3.072313
     19          6           0       -4.531834    4.738209    2.472963
     20          6           0       -5.352964    4.085825    1.470083
     21          6           0       -2.752638    3.953187    4.156106
     22          6           0       -4.521905    6.165924    2.787501
     23          6           0       -4.570481    7.160349    1.905286
     24          7           0       -7.111341    2.743840   -0.609361
     25          6           0       -7.169778    4.031735   -0.253217
     26          6           0       -8.207473    4.745402   -0.985469
     27          6           0       -8.785453    3.828381   -1.805544
     28          6           0       -8.086322    2.576537   -1.558711
     29          6           0       -8.526295    6.196373   -0.835192
     30          6           0       -9.876513    4.033681   -2.808296
     31          6           0       -9.343410    4.290658   -4.221985
     32          7           0       -6.656567    0.077573   -1.054934
     33          6           0       -7.701446    0.168980   -1.958969
     34          6           0       -7.919977   -1.117686   -2.518087
     35          6           0       -6.978579   -1.945857   -1.913202
     36          6           0       -6.218351   -1.178548   -1.014659
     37          6           0       -8.964588   -1.488229   -3.514279
     38          6           0       -6.502231   -3.320435   -1.873966
     39          8           0       -6.882575   -4.294641   -2.470528
     40          6           0       -5.297531   -3.322146   -0.852922
     41          6           0       -5.539028   -4.379296    0.203346
     42          8           0       -6.263447   -4.252646    1.153881
     43          8           0       -4.851135   -5.494596   -0.067598
     44          6           0       -5.082578   -6.595255    0.811005
     45          6           0        2.058252   -5.039180    0.446775
     46          6           0        3.137458   -4.068363    0.796034
     47          6           0        3.814020   -3.286892   -0.047292
     48          6           0        3.577309   -3.242431   -1.531984
     49          6           0        4.908271   -2.387478    0.466062
     50          6           0        6.295655   -2.735681   -0.084656
     51          6           0        7.385539   -1.825881    0.474930
     52          6           0        8.780243   -2.027059   -0.130626
     53          6           0        9.322448   -3.429883    0.144021
     54          6           0        9.730031   -0.935391    0.378199
     55          6           0       11.105242   -0.905251   -0.284000
     56          6           0       11.950516    0.279395    0.177363
     57          6           0       13.302637    0.436057   -0.529606
     58          6           0       14.227360   -0.751951   -0.263154
     59          6           0       13.951243    1.765523   -0.124783
     60          6           0       15.228510    2.126570   -0.879184
     61          6           0       15.727094    3.530189   -0.544648
     62          6           0       17.082129    3.904289   -1.155388
     63          6           0       17.055893    3.886599   -2.683618
     64          6           0       17.539868    5.269182   -0.642643
     65          1           0       -2.757677    1.302708    3.547267
     66          1           0       -6.520776    5.700271    0.889443
     67          1           0       -9.166415    1.357012   -2.913478
     68          1           0       -3.805633   -3.098894    1.825834
     69          1           0       -1.934672   -1.048751    2.624486
     70          1           0       -3.053371   -2.584482    4.229025
     71          1           0       -3.337875   -0.902169    4.691334
     72          1           0       -4.612682   -1.824214    3.886339
     73          1           0       -2.512550   -3.046132   -0.371505
     74          1           0       -1.658966   -1.643100    0.214459
     75          1           0       -0.830185   -3.027171    2.187296
     76          1           0       -1.681474   -4.406834    1.547054
     77          1           0       -1.754234    3.675305    3.810057
     78          1           0       -2.707762    4.986999    4.494223
     79          1           0       -2.986769    3.323934    5.017944
     80          1           0       -4.437649    6.415193    3.841159
     81          1           0       -4.607110    6.979807    0.838179
     82          1           0       -4.549546    8.192183    2.231199
     83          1           0       -7.674567    6.822721   -1.113524
     84          1           0       -9.365024    6.485220   -1.468162
     85          1           0       -8.788230    6.444647    0.196330
     86          1           0      -10.536686    3.162388   -2.821586
     87          1           0      -10.501031    4.874967   -2.499841
     88          1           0       -8.720982    5.186772   -4.241201
     89          1           0       -8.729755    3.455938   -4.565134
     90          1           0      -10.162474    4.427203   -4.930542
     91          1           0       -9.064536   -0.728742   -4.291275
     92          1           0       -8.720520   -2.439157   -3.984276
     93          1           0       -9.938670   -1.597073   -3.030467
     94          1           0       -4.411283   -3.600087   -1.426206
     95          1           0       -4.456664   -7.403162    0.442096
     96          1           0       -4.808178   -6.335518    1.833680
     97          1           0       -6.132319   -6.886123    0.787703
     98          1           0        2.282365   -6.025714    0.853040
     99          1           0        1.901534   -5.127131   -0.625734
    100          1           0        3.380522   -4.021472    1.854029
    101          1           0        2.569439   -3.552866   -1.799234
    102          1           0        3.723259   -2.226022   -1.904183
    103          1           0        4.291733   -3.879893   -2.060118
    104          1           0        4.671391   -1.352804    0.190864
    105          1           0        4.936318   -2.425833    1.558038
    106          1           0        6.510020   -3.780919    0.153000
    107          1           0        6.289980   -2.658807   -1.176419
    108          1           0        7.084772   -0.784872    0.314313
    109          1           0        7.447020   -1.959251    1.561876
    110          1           0        8.689393   -1.905866   -1.217844
    111          1           0        8.659060   -4.201952   -0.247332
    112          1           0       10.298816   -3.581153   -0.317324
    113          1           0        9.430821   -3.594511    1.220337
    114          1           0        9.250117    0.037787    0.228383
    115          1           0        9.852816   -1.048274    1.462386
    116          1           0       11.633898   -1.837426   -0.074614
    117          1           0       10.980995   -0.857639   -1.372195
    118          1           0       11.373171    1.198096    0.027240
    119          1           0       12.121410    0.203028    1.258231
    120          1           0       13.108571    0.478296   -1.609265
    121          1           0       13.776264   -1.693107   -0.579418
    122          1           0       15.172784   -0.653092   -0.797617
    123          1           0       14.452361   -0.829825    0.804893
    124          1           0       13.220396    2.567261   -0.276902
    125          1           0       14.159169    1.746598    0.952046
    126          1           0       16.019742    1.407165   -0.647337
    127          1           0       15.039921    2.042144   -1.953931
    128          1           0       14.979288    4.266665   -0.863759
    129          1           0       15.799109    3.625321    0.544414
    130          1           0       17.812864    3.157457   -0.822232
    131          1           0       16.302168    4.582994   -3.063176
    132          1           0       18.022369    4.187337   -3.093377
    133          1           0       16.824805    2.895902   -3.077283
    134          1           0       17.595463    5.285634    0.447925
    135          1           0       18.525476    5.529608   -1.034070
    136          1           0       16.841525    6.051901   -0.952740
    137          1           0       -5.425163    2.047178    0.922835
    138          1           0       -6.331106    0.891287   -0.549769
 ---------------------------------------------------------------------

 The electronic state is 1-A.
 Alpha  occ. eigenvalues --  -19.27629 -19.27114 -19.21166 -19.21056 -19.20976
 Alpha  occ. eigenvalues --  -14.45221 -14.45014 -14.40549 -14.38509 -10.39016
 Alpha  occ. eigenvalues --  -10.38935 -10.35472 -10.32006 -10.31806 -10.31605
 Alpha  occ. eigenvalues --  -10.31277 -10.30826 -10.30658 -10.30421 -10.30316
 Alpha  occ. eigenvalues --  -10.29046 -10.29016 -10.28873 -10.28730 -10.28589
 Alpha  occ. eigenvalues --  -10.28514 -10.28424 -10.28101 -10.27866 -10.27766
 Alpha  occ. eigenvalues --  -10.27677 -10.27559 -10.27528 -10.27254 -10.27240
 Alpha  occ. eigenvalues --  -10.27070 -10.26741 -10.26581 -10.26555 -10.26242
 Alpha  occ. eigenvalues --  -10.26170 -10.26104 -10.26045 -10.26019 -10.26016
 Alpha  occ. eigenvalues --  -10.25989 -10.25963 -10.25958 -10.25932 -10.25696
 Alpha  occ. eigenvalues --  -10.25427 -10.25339 -10.25187 -10.25101 -10.25074
 Alpha  occ. eigenvalues --  -10.25041 -10.24981 -10.24979 -10.24930 -10.24920
 Alpha  occ. eigenvalues --  -10.24538 -10.24362 -10.24358 -10.24353  -1.18966
 Alpha  occ. eigenvalues --   -1.18497  -1.11869  -1.09758  -1.09680  -1.07470
 Alpha  occ. eigenvalues --   -1.07273  -1.03480  -1.02267  -0.93241  -0.91044
 Alpha  occ. eigenvalues --   -0.90962  -0.90226  -0.89917  -0.89698  -0.89199
 Alpha  occ. eigenvalues --   -0.88714  -0.88020  -0.87960  -0.87567  -0.86118
 Alpha  occ. eigenvalues --   -0.85312  -0.84645  -0.84133  -0.83365  -0.82872
 Alpha  occ. eigenvalues --   -0.81948  -0.81571  -0.80923  -0.79878  -0.79437
 Alpha  occ. eigenvalues --   -0.78454  -0.77626  -0.77054  -0.75973  -0.75777
 Alpha  occ. eigenvalues --   -0.75487  -0.75162  -0.74559  -0.74014  -0.73513
 Alpha  occ. eigenvalues --   -0.72190  -0.70961  -0.70322  -0.69793  -0.69661
 Alpha  occ. eigenvalues --   -0.69109  -0.66773  -0.66122  -0.65573  -0.64942
 Alpha  occ. eigenvalues --   -0.64611  -0.63667  -0.63319  -0.63289  -0.62881
 Alpha  occ. eigenvalues --   -0.62700  -0.62467  -0.62126  -0.61739  -0.60234
 Alpha  occ. eigenvalues --   -0.60060  -0.59431  -0.58951  -0.58499  -0.57782
 Alpha  occ. eigenvalues --   -0.56650  -0.56445  -0.56272  -0.55832  -0.55222
 Alpha  occ. eigenvalues --   -0.55084  -0.54871  -0.54644  -0.54509  -0.54113
 Alpha  occ. eigenvalues --   -0.53850  -0.53230  -0.53137  -0.52825  -0.52560
 Alpha  occ. eigenvalues --   -0.52470  -0.52055  -0.52011  -0.51721  -0.51597
 Alpha  occ. eigenvalues --   -0.51238  -0.51120  -0.50740  -0.50512  -0.50359
 Alpha  occ. eigenvalues --   -0.50214  -0.49992  -0.49832  -0.49595  -0.49344
 Alpha  occ. eigenvalues --   -0.49049  -0.48932  -0.48713  -0.48633  -0.48328
 Alpha  occ. eigenvalues --   -0.48085  -0.48041  -0.47558  -0.47470  -0.47133
 Alpha  occ. eigenvalues --   -0.46937  -0.46782  -0.46506  -0.46368  -0.46116
 Alpha  occ. eigenvalues --   -0.45978  -0.45825  -0.45676  -0.45401  -0.45286
 Alpha  occ. eigenvalues --   -0.45096  -0.44842  -0.44693  -0.44471  -0.44148
 Alpha  occ. eigenvalues --   -0.43911  -0.43904  -0.43761  -0.43681  -0.43515
 Alpha  occ. eigenvalues --   -0.43347  -0.43166  -0.43019  -0.42704  -0.42493
 Alpha  occ. eigenvalues --   -0.42317  -0.42234  -0.42096  -0.41934  -0.41870
 Alpha  occ. eigenvalues --   -0.41639  -0.41121  -0.40859  -0.40534  -0.40476
 Alpha  occ. eigenvalues --   -0.40304  -0.40187  -0.40062  -0.39549  -0.39121
 Alpha  occ. eigenvalues --   -0.38841  -0.38707  -0.38434  -0.38166  -0.38129
 Alpha  occ. eigenvalues --   -0.37879  -0.37769  -0.37663  -0.37431  -0.37299
 Alpha  occ. eigenvalues --   -0.37190  -0.36386  -0.34871  -0.34756  -0.34595
 Alpha  occ. eigenvalues --   -0.34213  -0.33646  -0.33282  -0.32729  -0.32202
 Alpha  occ. eigenvalues --   -0.31267  -0.30955  -0.30873  -0.28784  -0.24683
 Alpha  occ. eigenvalues --   -0.23499
 Alpha virt. eigenvalues --   -0.05379  -0.02421   0.02129   0.04304   0.06336
 Alpha virt. eigenvalues --    0.06642   0.07175   0.07369   0.08764   0.09411
 Alpha virt. eigenvalues --    0.09882   0.10086   0.10357   0.10654   0.11305

 Mulliken charges:
               1
     1  C   -0.221747
     2  C   -0.545337
     3  C   -0.456938
     4  C   -0.329589
     5  N   -0.419146
     6  C    0.323296
     7  C    0.008450
     8  C    0.072911
     9  C    0.270552
    10  C   -0.388874
    11  C   -0.299973
    12  C   -0.229307
    13  C    0.415145
    14  O   -0.394301
    15  O   -0.288498
    16  N   -0.194049
    17  C    0.290190
    18  C   -0.104850
    19  C    0.084663
    20  C    0.226006
    21  C   -0.345577
    22  C   -0.201798
    23  C   -0.306354
    24  N   -0.510296
    25  C    0.304827
    26  C    0.009605
    27  C   -0.089774
    28  C    0.367245
    29  C   -0.376531
    30  C   -0.262261
    31  C   -0.321469
    32  N   -0.178602
    33  C    0.246711
    34  C   -0.133899
    35  C   -0.028663
    36  C    0.066114
    37  C   -0.388240
    38  C    0.176315
    39  O   -0.336249
    40  C    0.062676
    41  C    0.307809
    42  O   -0.359496
    43  O   -0.271783
    44  C   -0.193627
    45  C   -0.016920
    46  C   -0.258160
    47  C    0.119334
    48  C   -0.398207
    49  C   -0.193702
    50  C   -0.246816
    51  C   -0.185665
    52  C    0.048900
    53  C   -0.399702
    54  C   -0.189152
    55  C   -0.226328
    56  C   -0.190080
    57  C    0.053959
    58  C   -0.399645
    59  C   -0.188373
    60  C   -0.228924
    61  C   -0.192764
    62  C    0.011791
    63  C   -0.368600
    64  C   -0.330962
    65  H    0.140846
    66  H    0.190053
    67  H    0.142447
    68  H    0.124094
    69  H    0.081217
    70  H    0.119102
    71  H    0.115639
    72  H    0.144355
    73  H    0.128933
    74  H    0.131266
    75  H    0.126007
    76  H    0.127842
    77  H    0.142593
    78  H    0.120386
    79  H    0.137555
    80  H    0.132529
    81  H    0.158697
    82  H    0.132595
    83  H    0.133541
    84  H    0.116344
    85  H    0.134842
    86  H    0.105927
    87  H    0.106284
    88  H    0.114046
    89  H    0.118142
    90  H    0.112548
    91  H    0.124061
    92  H    0.161147
    93  H    0.143528
    94  H    0.109137
    95  H    0.132090
    96  H    0.124038
    97  H    0.140510
    98  H    0.107875
    99  H    0.130097
   100  H    0.107739
   101  H    0.157958
   102  H    0.120347
   103  H    0.135038
   104  H    0.111580
   105  H    0.097021
   106  H    0.108949
   107  H    0.104101
   108  H    0.089992
   109  H    0.093024
   110  H    0.056948
   111  H    0.122288
   112  H    0.122295
   113  H    0.104299
   114  H    0.089463
   115  H    0.090358
   116  H    0.098810
   117  H    0.087860
   118  H    0.089222
   119  H    0.089834
   120  H    0.055364
   121  H    0.120309
   122  H    0.123219
   123  H    0.103868
   124  H    0.089539
   125  H    0.091091
   126  H    0.094311
   127  H    0.097211
   128  H    0.090783
   129  H    0.089037
   130  H    0.058743
   131  H    0.102988
   132  H    0.113269
   133  H    0.120969
   134  H    0.109753
   135  H    0.113307
   136  H    0.102151
   137  H    0.230429
   138  H    0.230951
 Sum of Mulliken charges =  -0.00000

 Dipole moment (field-independent basis, Debye):
    X=              3.5342    Y=              3.3741    Z=              2.9127  Tot=              5.6884
 Quadrupole moment (field-independent basis, Debye-Ang):
   XX=           -391.6091   YY=           -362.4541   ZZ=           -375.9983
   XY=            -38.1177   XZ=              4.7717   YZ=             -6.3890

 Normal termination of Gaussian 16 at Sat Nov 30 13:41:18 2019.
