 Gaussian 16, Revision A.03,

 -------------------------------------------------
 #n wB97XD/Def2TZVP Opt Geom=Checkpoint Guess=Read
 -------------------------------------------------

 ------------------
 b-carotene-charged
 ------------------
 Structure from the checkpoint file:  "b-carotene-charged.chk"
 Charge =  1 Multiplicity = 2

 SCF Done:  E(UwB97XD) =  -1557.71140189     A.U. after   24 cycles
 SCF Done:  E(UwB97XD) =  -1557.72113924     A.U. after   22 cycles
 SCF Done:  E(UwB97XD) =  -1557.72324035     A.U. after   20 cycles
 SCF Done:  E(UwB97XD) =  -1557.72336155     A.U. after   19 cycles
 SCF Done:  E(UwB97XD) =  -1557.72341576     A.U. after   19 cycles
 SCF Done:  E(UwB97XD) =  -1557.72347768     A.U. after   16 cycles
 SCF Done:  E(UwB97XD) =  -1557.72350512     A.U. after   17 cycles
 SCF Done:  E(UwB97XD) =  -1557.72351388     A.U. after   14 cycles
 SCF Done:  E(UwB97XD) =  -1557.72351747     A.U. after   13 cycles
 SCF Done:  E(UwB97XD) =  -1557.72351908     A.U. after   12 cycles
 SCF Done:  E(UwB97XD) =  -1557.72351971     A.U. after   11 cycles
 SCF Done:  E(UwB97XD) =  -1557.72351993     A.U. after   10 cycles
 SCF Done:  E(UwB97XD) =  -1557.72352021     A.U. after    7 cycles
 SCF Done:  E(UwB97XD) =  -1557.72352037     A.U. after   11 cycles
 SCF Done:  E(UwB97XD) =  -1557.72352042     A.U. after   10 cycles
 SCF Done:  E(UwB97XD) =  -1557.72352046     A.U. after   11 cycles
 SCF Done:  E(UwB97XD) =  -1557.72352047     A.U. after   10 cycles
 Optimization completed.
    -- Stationary point found.
 Normal termination of Gaussian 16 at Fri Nov 22 01:55:21 2019.
 Gaussian 16:  ES64L-G16RevA.03 25-Dec-2016

 ----------------------------------
 #n wB97XD/Def2TZVP Geom=Checkpoint
 ----------------------------------

 ---------------------
 b-carotene-charged-SP
 ---------------------
 Structure from the checkpoint file:  "b-carotene-charged-SP.chk"
 Charge =  0 Multiplicity = 1

                         Standard orientation:
 ---------------------------------------------------------------------
 Center     Atomic      Atomic             Coordinates (Angstroms)
 Number     Number       Type             X           Y           Z
 ---------------------------------------------------------------------
      1          6           0       12.116250    0.571894   -0.624809
      2          6           0      -12.086452   -0.150105    0.822722
      3          6           0       13.411262   -0.240597   -0.486613
      4          6           0      -12.998553    0.981698    1.313290
      5          6           0       13.169674   -1.737939   -0.501924
      6          6           0      -13.396560    1.934959    0.203421
      7          6           0       11.000078   -0.020543    0.250002
      8          6           0      -10.957789    0.414926   -0.054119
      9          6           0       12.297763   -2.112408    0.681518
     10          6           0      -12.156750    2.583096   -0.388676
     11          6           0       11.105567   -1.213146    0.866311
     12          6           0      -11.006203    1.637512   -0.618337
     13          6           0       11.649734    0.579771   -2.088562
     14          6           0       12.436660    2.015460   -0.206431
     15          6           0      -12.902763   -1.176689    0.021925
     16          6           0      -11.499081   -0.841781    2.061412
     17          6           0        9.806098    0.815078    0.366797
     18          6           0       -9.852786   -0.514611   -0.265378
     19          6           0       10.103107   -1.772353    1.835853
     20          6           0       -9.954034    2.200338   -1.532046
     21          6           0        8.531101    0.393155    0.275781
     22          6           0       -8.534175   -0.234643   -0.225727
     23          6           0        7.369274    1.239811    0.381154
     24          6           0       -7.483842   -1.197526   -0.411257
     25          6           0        7.562004    2.703860    0.633076
     26          6           0       -7.844403   -2.622136   -0.700984
     27          6           0        6.138191    0.654153    0.241740
     28          6           0       -6.185088   -0.755451   -0.307162
     29          6           0        4.884258    1.296315    0.312039
     30          6           0       -5.019792   -1.526318   -0.447177
     31          6           0        3.694174    0.633650    0.157921
     32          6           0       -3.753787   -0.999846   -0.322513
     33          6           0        2.423619    1.242683    0.225241
     34          6           0       -2.555020   -1.724750   -0.448195
     35          6           0        2.320381    2.718770    0.487462
     36          6           0       -2.599916   -3.195368   -0.742702
     37          6           0        1.236325    0.529349    0.058537
     38          6           0       -1.361563   -1.021708   -0.286991
     39          6           0        1.112334   -0.831612   -0.201370
     40          6           0       -0.075808   -1.541484   -0.364237
     41          1           0       13.896720    0.025970    0.458262
     42          1           0       14.096107    0.054438   -1.285176
     43          1           0      -12.473270    1.544145    2.092429
     44          1           0      -13.880890    0.542214    1.784901
     45          1           0       14.115422   -2.280240   -0.460718
     46          1           0       12.679065   -2.033420   -1.432961
     47          1           0      -14.074499    2.701513    0.581609
     48          1           0      -13.940155    1.398504   -0.577857
     49          1           0       12.888060   -2.091984    1.606115
     50          1           0       11.938169   -3.142091    0.590538
     51          1           0      -11.797844    3.379689    0.275969
     52          1           0      -12.399736    3.080124   -1.331060
     53          1           0       11.468652   -0.430838   -2.457390
     54          1           0       12.404057    1.047075   -2.725511
     55          1           0       10.720202    1.142332   -2.200340
     56          1           0       12.615135    2.086244    0.868628
     57          1           0       11.645857    2.717667   -0.474951
     58          1           0       13.341818    2.346702   -0.718991
     59          1           0      -13.370725   -0.724927   -0.852780
     60          1           0      -13.687899   -1.603180    0.650022
     61          1           0      -12.282434   -2.004380   -0.327604
     62          1           0      -10.844895   -0.164986    2.614686
     63          1           0      -10.923199   -1.733123    1.805053
     64          1           0      -12.305583   -1.153901    2.728167
     65          1           0        9.980594    1.879031    0.481882
     66          1           0      -10.142833   -1.551889   -0.402623
     67          1           0        9.422922   -1.023967    2.235615
     68          1           0       10.631601   -2.240530    2.669899
     69          1           0        9.506853   -2.561070    1.367075
     70          1           0       -9.295566    1.443607   -1.951303
     71          1           0       -9.335989    2.931941   -1.002007
     72          1           0      -10.428242    2.735561   -2.356751
     73          1           0        8.340373   -0.657829    0.089053
     74          1           0       -8.220526    0.780202   -0.009661
     75          1           0        8.107860    2.859660    1.565282
     76          1           0        6.627450    3.253111    0.697272
     77          1           0        8.155905    3.148974   -0.167828
     78          1           0       -8.441599   -2.685024   -1.612362
     79          1           0       -8.448483   -3.031029    0.111628
     80          1           0       -6.978024   -3.264786   -0.825006
     81          1           0        6.120864   -0.416261    0.058387
     82          1           0       -6.042747    0.299753   -0.092633
     83          1           0        4.860618    2.362753    0.497144
     84          1           0       -5.117361   -2.583044   -0.661890
     85          1           0        3.747710   -0.432567   -0.026609
     86          1           0       -3.669311    0.061228   -0.107729
     87          1           0        2.781692    2.980097    1.441905
     88          1           0        1.282436    3.043591    0.516078
     89          1           0        2.830371    3.290399   -0.290587
     90          1           0       -3.120823   -3.379805   -1.683945
     91          1           0       -3.141471   -3.725086    0.043100
     92          1           0       -1.613956   -3.642432   -0.820676
     93          1           0        0.324943    1.110032    0.139962
     94          1           0       -1.469093    0.037153   -0.078485
     95          1           0        2.017255   -1.419560   -0.293295
     96          1           0        0.037511   -2.598559   -0.567888
 ---------------------------------------------------------------------

 SCF Done:  E(RwB97XD) =  -1557.92453589     A.U. after   15 cycles

 The electronic state is 1-A.
 Alpha  occ. eigenvalues --  -10.29945 -10.29932 -10.29884 -10.29641 -10.29593
 Alpha  occ. eigenvalues --  -10.29483 -10.28818 -10.28631 -10.28579 -10.28573
 Alpha  occ. eigenvalues --  -10.28488 -10.28473 -10.28435 -10.28340 -10.28319
 Alpha  occ. eigenvalues --  -10.28308 -10.28287 -10.28100 -10.28093 -10.28002
 Alpha  occ. eigenvalues --  -10.27970 -10.27965 -10.27942 -10.27862 -10.27861
 Alpha  occ. eigenvalues --  -10.27847 -10.27783 -10.27731 -10.27719 -10.27653
 Alpha  occ. eigenvalues --  -10.27322 -10.27280 -10.27157 -10.27097 -10.26985
 Alpha  occ. eigenvalues --  -10.26870 -10.26856 -10.26742 -10.26452 -10.26420
 Alpha  occ. eigenvalues --   -0.95841  -0.95731  -0.94531  -0.94020  -0.92991
 Alpha  occ. eigenvalues --   -0.92325  -0.89627  -0.89073  -0.88928  -0.88252
 Alpha  occ. eigenvalues --   -0.87494  -0.85800  -0.84772  -0.82451  -0.82176
 Alpha  occ. eigenvalues --   -0.80701  -0.79098  -0.79065  -0.78228  -0.78169
 Alpha  occ. eigenvalues --   -0.78089  -0.77890  -0.77114  -0.77073  -0.76106
 Alpha  occ. eigenvalues --   -0.73257  -0.72054  -0.69674  -0.69041  -0.66904
 Alpha  occ. eigenvalues --   -0.66503  -0.65557  -0.64926  -0.63583  -0.62998
 Alpha  occ. eigenvalues --   -0.62500  -0.61840  -0.60402  -0.59631  -0.58595
 Alpha  occ. eigenvalues --   -0.57797  -0.57164  -0.56799  -0.56205  -0.55798
 Alpha  occ. eigenvalues --   -0.54834  -0.54340  -0.54091  -0.53726  -0.53411
 Alpha  occ. eigenvalues --   -0.52674  -0.52025  -0.51537  -0.51303  -0.51173
 Alpha  occ. eigenvalues --   -0.51107  -0.51100  -0.51007  -0.50777  -0.50744
 Alpha  occ. eigenvalues --   -0.50420  -0.50040  -0.48892  -0.48613  -0.48421
 Alpha  occ. eigenvalues --   -0.48294  -0.48236  -0.47949  -0.47716  -0.47312
 Alpha  occ. eigenvalues --   -0.47256  -0.47051  -0.46418  -0.46004  -0.45645
 Alpha  occ. eigenvalues --   -0.45514  -0.45211  -0.45139  -0.44445  -0.44118
 Alpha  occ. eigenvalues --   -0.43782  -0.43581  -0.43340  -0.43249  -0.43130
 Alpha  occ. eigenvalues --   -0.43039  -0.42812  -0.42497  -0.42343  -0.42216
 Alpha  occ. eigenvalues --   -0.42068  -0.41939  -0.41199  -0.40981  -0.39977
 Alpha  occ. eigenvalues --   -0.39921  -0.39290  -0.39026  -0.38296  -0.37633
 Alpha  occ. eigenvalues --   -0.37124  -0.36780  -0.35256  -0.32632  -0.30980
 Alpha  occ. eigenvalues --   -0.28789  -0.25883  -0.21885
 Alpha virt. eigenvalues --   -0.04121   0.00193   0.04464   0.07329   0.09428
 Alpha virt. eigenvalues --    0.09951   0.10275   0.10892   0.10994   0.11261
 Alpha virt. eigenvalues --    0.11826   0.12060   0.12320   0.12528   0.13018

 Mulliken charges:
               1
     1  C    0.186883
     2  C    0.106434
     3  C   -0.213938
     4  C   -0.205347
     5  C   -0.185368
     6  C   -0.186594
     7  C    0.010657
     8  C    0.038007
     9  C   -0.177436
    10  C   -0.153354
    11  C   -0.012613
    12  C   -0.043568
    13  C   -0.405632
    14  C   -0.411996
    15  C   -0.396732
    16  C   -0.347909
    17  C   -0.271207
    18  C   -0.231162
    19  C   -0.419086
    20  C   -0.408076
    21  C   -0.230800
    22  C   -0.252150
    23  C    0.175908
    24  C    0.185810
    25  C   -0.386912
    26  C   -0.389412
    27  C   -0.184448
    28  C   -0.192818
    29  C   -0.061564
    30  C   -0.054697
    31  C   -0.166823
    32  C   -0.202339
    33  C    0.118997
    34  C    0.118451
    35  C   -0.394453
    36  C   -0.394581
    37  C   -0.144556
    38  C   -0.061343
    39  C   -0.139514
    40  C   -0.181388
    41  H    0.098089
    42  H    0.106411
    43  H    0.095805
    44  H    0.105298
    45  H    0.104547
    46  H    0.095451
    47  H    0.104179
    48  H    0.097773
    49  H    0.106684
    50  H    0.111062
    51  H    0.100369
    52  H    0.102202
    53  H    0.115618
    54  H    0.115806
    55  H    0.132306
    56  H    0.131679
    57  H    0.116119
    58  H    0.126269
    59  H    0.119700
    60  H    0.118304
    61  H    0.115087
    62  H    0.124235
    63  H    0.115799
    64  H    0.119446
    65  H    0.137803
    66  H    0.126155
    67  H    0.153827
    68  H    0.121551
    69  H    0.131469
    70  H    0.159199
    71  H    0.127455
    72  H    0.114465
    73  H    0.127438
    74  H    0.134671
    75  H    0.136610
    76  H    0.122405
    77  H    0.131791
    78  H    0.135715
    79  H    0.131418
    80  H    0.121006
    81  H    0.098432
    82  H    0.097418
    83  H    0.104267
    84  H    0.103558
    85  H    0.101774
    86  H    0.098152
    87  H    0.131168
    88  H    0.120263
    89  H    0.131342
    90  H    0.134828
    91  H    0.135311
    92  H    0.122012
    93  H    0.096880
    94  H    0.107868
    95  H    0.105323
    96  H    0.086861
 Sum of Mulliken charges =  -0.00000

 Dipole moment (field-independent basis, Debye):
    X=              0.3740    Y=              0.1280    Z=              0.1025  Tot=              0.4083
 Quadrupole moment (field-independent basis, Debye-Ang):
   XX=           -213.5451   YY=           -233.0298   ZZ=           -258.0616
   XY=             -2.2278   XZ=              1.1379   YZ=              3.0745

 1\1\GINC-RYZEN-SSD3\SP\RwB97XD\def2TZVP\C40H56\PADAWAN\22-Nov-2019\0\\
 #n wB97XD/Def2TZVP Geom=Checkpoint\\b-carotene-charged-SP\\0,1\C,0,12.
 1235784039,0.5276632284,-0.653494522\C,0,-12.0784952709,-0.1288066634,
 0.8351677172\C,0,13.4182608387,-0.2800622158,-0.4871450789\C,0,-12.989
 6681648,1.0203419566,1.2854833137\C,0,13.1758822293,-1.7768588392,-0.4
 486406993\C,0,-13.3879416703,1.9334463331,0.142440729\C,0,11.007700289
 1,-0.0324436523,0.2427264721\C,0,-10.9501417239,0.4038317862,-0.062108
 4761\C,0,12.3045904961,-2.108213935,0.7480405734\C,0,-12.1482020707,2.

 Normal termination of Gaussian 16 at Fri Nov 22 02:41:01 2019.
