 Gaussian 09, Revision D.01,
 Gaussian 09:  ES64L-G09RevD.01 24-Apr-2013

 -----------------------------------------
 #n wB97/ChkBasis Geom=AllCheck Td(Root=2)
 -----------------------------------------

 Structure from the checkpoint file:  "cla-td-s2-wb97-tzvp.chk"
 ----------------
 cla-s0-wb97-tzvp
 ----------------
 Charge =  0 Multiplicity = 1

                         Standard orientation:
 ---------------------------------------------------------------------
 Center     Atomic      Atomic             Coordinates (Angstroms)
 Number     Number       Type             X           Y           Z
 ---------------------------------------------------------------------
      1         12           0       -7.057446    0.699914    0.069210
      2          6           0       -4.969503   -2.012939    0.411470
      3          6           0       -4.608831    2.695042    1.325634
      4          6           0       -9.100282    3.389632   -0.296239
      5          6           0       -9.592397   -1.388025   -1.041335
      6          7           0       -5.062650    0.371158    0.736374
      7          6           0       -4.385541   -0.851354    0.776856
      8          6           0       -2.964558   -0.661553    1.264317
      9          6           0       -2.968726    0.798142    1.754966
     10          6           0       -4.291163    1.333813    1.233637
     11          6           0       -2.882585    0.920608    3.276188
     12          6           0       -1.940782   -0.926472    0.156395
     13          6           0       -0.508837   -0.856444    0.665762
     14          6           0        0.508175   -1.104401   -0.423511
     15          8           0        0.249083   -1.424728   -1.556398
     16          8           0        1.759785   -0.926781    0.027934
     17          7           0       -6.878427    2.674748    0.432618
     18          6           0       -5.803285    3.303869    0.942770
     19          6           0       -6.069851    4.748735    1.052582
     20          6           0       -7.324010    4.946450    0.585566
     21          6           0       -7.856164    3.628019    0.201423
     22          6           0       -5.105536    5.738594    1.619451
     23          6           0       -8.084447    6.197456    0.483672
     24          6           0       -7.573921    7.373681    0.132522
     25          7           0       -9.009497    0.954123   -0.570577
     26          6           0       -9.661577    2.116981   -0.661017
     27          6           0      -10.998881    1.921985   -1.159912
     28          6           0      -11.141013    0.575146   -1.362177
     29          6           0       -9.886451   -0.034702   -0.993695
     30          6           0      -12.001909    3.009233   -1.396134
     31          6           0      -12.334361   -0.144464   -1.915860
     32          6           0      -12.276395   -0.276990   -3.439332
     33          7           0       -7.281357   -1.259294   -0.282163
     34          6           0       -8.377796   -2.004823   -0.705251
     35          6           0       -8.057709   -3.394172   -0.720056
     36          6           0       -6.731398   -3.456682   -0.294358
     37          6           0       -6.322725   -2.135838   -0.046269
     38          6           0       -8.955886   -4.525969   -1.106511
     39          6           0       -5.624082   -4.355822    0.014908
     40          8           0       -5.561268   -5.561488    0.000650
     41          6           0       -4.406508   -3.424789    0.404443
     42          6           0       -3.821079   -3.894591    1.717913
     43          8           0       -4.161359   -3.511919    2.809666
     44          8           0       -2.874806   -4.820943    1.519253
     45          6           0       -2.352414   -5.427055    2.705745
     46          6           0        2.807362   -1.172447   -0.935880
     47          6           0        4.112823   -0.884936   -0.270716
     48          6           0        5.100481   -0.127450   -0.747011
     49          6           0        5.053782    0.610180   -2.059831
     50          6           0        6.389739    0.020692    0.023654
     51          6           0        7.605880   -0.553581   -0.706607
     52          6           0        8.892944   -0.387337    0.095119
     53          6           0       10.166645   -0.827008   -0.632940
     54          6           0       10.157248   -2.326418   -0.926018
     55          6           0       11.400034   -0.415127    0.176285
     56          6           0       12.737313   -0.650512   -0.520186
     57          6           0       13.912772   -0.075297    0.264618
     58          6           0       15.266882   -0.152589   -0.446658
     59          6           0       15.687997   -1.597831   -0.707147
     60          6           0       16.325297    0.605792    0.359496
     61          6           0       17.670514    0.780096   -0.339543
     62          6           0       18.626373    1.664515    0.455287
     63          6           0       20.024868    1.813224   -0.148780
     64          6           0       19.985511    2.458508   -1.532356
     65          6           0       20.922207    2.619762    0.786187
     66          1           0       -3.838741    3.339921    1.735520
     67          1           0       -9.748538    4.250158   -0.432352
     68          1           0      -10.391643   -2.046729   -1.375580
     69          1           0       -2.774937   -1.345896    2.100627
     70          1           0       -2.150395    1.370157    1.303088
     71          1           0       -1.932301    0.516985    3.637095
     72          1           0       -2.958478    1.961723    3.599406
     73          1           0       -3.691398    0.355847    3.749433
     74          1           0       -2.109576   -1.911947   -0.286073
     75          1           0       -2.084196   -0.203841   -0.654828
     76          1           0       -0.279268    0.112156    1.121925
     77          1           0       -0.337567   -1.603895    1.448948
     78          1           0       -4.327923    5.998257    0.893906
     79          1           0       -5.618928    6.658501    1.905644
     80          1           0       -4.606586    5.332727    2.503293
     81          1           0       -9.147885    6.132402    0.707317
     82          1           0       -8.195230    8.261785    0.084691
     83          1           0       -6.528611    7.484591   -0.139885
     84          1           0      -11.641118    3.733943   -2.132474
     85          1           0      -12.942297    2.600397   -1.771615
     86          1           0      -12.222992    3.558595   -0.475756
     87          1           0      -12.413194   -1.137614   -1.462403
     88          1           0      -13.245022    0.390653   -1.629491
     89          1           0      -13.154098   -0.802829   -3.824104
     90          1           0      -12.234124    0.708797   -3.910819
     91          1           0      -11.383562   -0.828189   -3.747390
     92          1           0       -9.284837   -4.432298   -2.145504
     93          1           0       -8.432168   -5.476630   -0.997869
     94          1           0       -9.849734   -4.554023   -0.476947
     95          1           0       -3.655547   -3.579018   -0.376823
     96          1           0       -1.890186   -4.674562    3.347973
     97          1           0       -3.152629   -5.923872    3.257170
     98          1           0       -1.614032   -6.151410    2.366815
     99          1           0        2.738911   -2.220037   -1.247935
    100          1           0        2.626361   -0.557551   -1.818619
    101          1           0        4.252097   -1.378857    0.689756
    102          1           0        4.042319    0.725421   -2.449534
    103          1           0        5.491182    1.606803   -1.945426
    104          1           0        5.644142    0.088183   -2.819260
    105          1           0        6.565454    1.087836    0.215952
    106          1           0        6.291517   -0.465926    0.999863
    107          1           0        7.418210   -1.612316   -0.918572
    108          1           0        7.726038   -0.056816   -1.677647
    109          1           0        8.995886    0.669910    0.372449
    110          1           0        8.811155   -0.943637    1.039725
    111          1           0       10.204095   -0.289708   -1.592472
    112          1           0        9.285855   -2.618438   -1.517026
    113          1           0       11.044347   -2.635061   -1.483916
    114          1           0       10.134399   -2.895731    0.010730
    115          1           0       11.315335    0.651971    0.419522
    116          1           0       11.390220   -0.948349    1.137713
    117          1           0       12.888113   -1.723026   -0.678889
    118          1           0       12.710151   -0.189838   -1.517648
    119          1           0       13.699758    0.977098    0.492677
    120          1           0       13.989741   -0.587503    1.234541
    121          1           0       15.161163    0.354061   -1.417779
    122          1           0       15.793156   -2.139123    0.240560
    123          1           0       14.955061   -2.130349   -1.317964
    124          1           0       16.645647   -1.650665   -1.230608
    125          1           0       15.930663    1.600588    0.604475
    126          1           0       16.475571    0.093535    1.320589
    127          1           0       18.144059   -0.195613   -0.503842
    128          1           0       17.498542    1.212475   -1.332919
    129          1           0       18.184804    2.664923    0.570678
    130          1           0       18.723083    1.256246    1.469940
    131          1           0       20.454765    0.807139   -0.252518
    132          1           0       19.512721    3.446185   -1.478450
    133          1           0       20.995434    2.594110   -1.930024
    134          1           0       19.424417    1.856581   -2.251410
    135          1           0       20.990342    2.154788    1.774047
    136          1           0       21.935448    2.711586    0.384465
    137          1           0       20.523484    3.631819    0.919488
 ---------------------------------------------------------------------

 SCF Done:  E(RwB97) =  -2935.12932403     A.U. after   26 cycles

 Excitation energies and oscillator strengths:

 Excited State   1:      Singlet-A      2.1772 eV  569.46 nm  f=0.1915  <S**2>=0.000
     240 -> 242       -0.20246
     240 -> 243       -0.24713
     241 -> 242        0.59167
     241 -> 243       -0.18604

 Excited State   2:      Singlet-A      2.9862 eV  415.19 nm  f=0.1420  <S**2>=0.000
     240 -> 242        0.53098
     241 -> 242        0.28335
     241 -> 243        0.33950
 This state for optimization and/or second-order correction.
 Total Energy, E(TD-HF/TD-KS) =  -2935.01958251
 Copying the excited state density for this state as the 1-particle RhoCI density.

 Excited State   3:      Singlet-A      3.6407 eV  340.55 nm  f=1.1543  <S**2>=0.000
     238 -> 242        0.12220
     240 -> 242       -0.32093
     240 -> 243       -0.21108
     241 -> 243        0.54609

 The electronic state is 1-A.
 Alpha  occ. eigenvalues --  -46.43093 -19.03898 -19.03771 -18.97961 -18.97537
 Alpha  occ. eigenvalues --  -18.96975 -14.23775 -14.21897 -14.21847 -14.21383
 Alpha  occ. eigenvalues --  -10.25976 -10.25714 -10.21975 -10.19104 -10.18921
 Alpha  occ. eigenvalues --  -10.18557 -10.17863 -10.17432 -10.17293 -10.16692
 Alpha  occ. eigenvalues --  -10.15818 -10.15454 -10.15284 -10.15152 -10.15113
 Alpha  occ. eigenvalues --  -10.15109 -10.15056 -10.15050 -10.15025 -10.14943
 Alpha  occ. eigenvalues --  -10.14876 -10.14702 -10.14688 -10.13944 -10.13884
 Alpha  occ. eigenvalues --  -10.13827 -10.13699 -10.13656 -10.13504 -10.13502
 Alpha  occ. eigenvalues --  -10.13188 -10.13141 -10.13098 -10.13018 -10.12998
 Alpha  occ. eigenvalues --  -10.12878 -10.12830 -10.12829 -10.12792 -10.12709
 Alpha  occ. eigenvalues --  -10.12485 -10.12391 -10.12277 -10.12249 -10.12091
 Alpha  occ. eigenvalues --  -10.12075 -10.11939 -10.11933 -10.11867 -10.11845
 Alpha  occ. eigenvalues --  -10.11530 -10.11305 -10.11269 -10.11256 -10.11142
 Alpha  occ. eigenvalues --   -3.11350  -1.88790  -1.88163  -1.88101  -1.24714
 Alpha  occ. eigenvalues --   -1.24533  -1.16869  -1.15282  -1.14890  -1.11830
 Alpha  occ. eigenvalues --   -1.10948  -1.10654  -1.09695  -0.99469  -0.99125
 Alpha  occ. eigenvalues --   -0.98273  -0.97848  -0.97319  -0.97219  -0.96514
 Alpha  occ. eigenvalues --   -0.95984  -0.95526  -0.94765  -0.94171  -0.93572
 Alpha  occ. eigenvalues --   -0.92675  -0.91817  -0.90842  -0.90657  -0.90306
 Alpha  occ. eigenvalues --   -0.88960  -0.88332  -0.87912  -0.87296  -0.85372
 Alpha  occ. eigenvalues --   -0.85334  -0.84372  -0.83530  -0.83070  -0.82741
 Alpha  occ. eigenvalues --   -0.82435  -0.82123  -0.81766  -0.80464  -0.79233
 Alpha  occ. eigenvalues --   -0.78592  -0.77492  -0.76735  -0.76002  -0.74963
 Alpha  occ. eigenvalues --   -0.73889  -0.73425  -0.72008  -0.71352  -0.71315
 Alpha  occ. eigenvalues --   -0.70395  -0.70137  -0.69682  -0.69559  -0.68749
 Alpha  occ. eigenvalues --   -0.68453  -0.67219  -0.66926  -0.66361  -0.65533
 Alpha  occ. eigenvalues --   -0.64984  -0.64740  -0.64068  -0.63658  -0.63566
 Alpha  occ. eigenvalues --   -0.62603  -0.61890  -0.61660  -0.61493  -0.61207
 Alpha  occ. eigenvalues --   -0.60826  -0.60677  -0.60178  -0.59870  -0.59662
 Alpha  occ. eigenvalues --   -0.58996  -0.58871  -0.58768  -0.58241  -0.58066
 Alpha  occ. eigenvalues --   -0.57595  -0.57343  -0.57155  -0.56914  -0.56694
 Alpha  occ. eigenvalues --   -0.56619  -0.56466  -0.56160  -0.56112  -0.55710
 Alpha  occ. eigenvalues --   -0.55477  -0.55037  -0.54786  -0.54627  -0.54534
 Alpha  occ. eigenvalues --   -0.54232  -0.53930  -0.53729  -0.53668  -0.53273
 Alpha  occ. eigenvalues --   -0.53217  -0.52909  -0.52646  -0.52309  -0.52043
 Alpha  occ. eigenvalues --   -0.51840  -0.51618  -0.51404  -0.51287  -0.51106
 Alpha  occ. eigenvalues --   -0.50962  -0.50755  -0.50551  -0.50152  -0.49990
 Alpha  occ. eigenvalues --   -0.49886  -0.49821  -0.49630  -0.49379  -0.49138
 Alpha  occ. eigenvalues --   -0.49043  -0.48825  -0.48754  -0.48556  -0.48373
 Alpha  occ. eigenvalues --   -0.48246  -0.48011  -0.47792  -0.47663  -0.47456
 Alpha  occ. eigenvalues --   -0.47119  -0.47099  -0.46761  -0.46567  -0.46496
 Alpha  occ. eigenvalues --   -0.46341  -0.45987  -0.45566  -0.45507  -0.45375
 Alpha  occ. eigenvalues --   -0.45043  -0.44711  -0.44603  -0.44173  -0.43700
 Alpha  occ. eigenvalues --   -0.43339  -0.43276  -0.43081  -0.42960  -0.42760
 Alpha  occ. eigenvalues --   -0.42688  -0.42598  -0.42359  -0.42162  -0.41704
 Alpha  occ. eigenvalues --   -0.41645  -0.41613  -0.41480  -0.39696  -0.39440
 Alpha  occ. eigenvalues --   -0.39214  -0.38858  -0.37748  -0.36425  -0.35565
 Alpha  occ. eigenvalues --   -0.35105  -0.34658  -0.34193  -0.33451  -0.27766
 Alpha  occ. eigenvalues --   -0.25494
 Alpha virt. eigenvalues --   -0.03814  -0.00425   0.05496   0.07363   0.07452
 Alpha virt. eigenvalues --    0.09621   0.09708   0.09998   0.10394   0.10702
 Alpha virt. eigenvalues --    0.11089   0.11246   0.11294   0.11726   0.11879

 Mulliken charges:
               1
     1  Mg   0.805509
     2  C   -0.190472
     3  C   -0.471590
     4  C   -0.189556
     5  C   -0.087314
     6  N   -0.475899
     7  C    0.263464
     8  C    0.013492
     9  C    0.044853
    10  C    0.245405
    11  C   -0.411394
    12  C   -0.343320
    13  C   -0.249462
    14  C    0.383216
    15  O   -0.387369
    16  O   -0.267625
    17  N   -0.479102
    18  C    0.266500
    19  C   -0.001083
    20  C   -0.018032
    21  C    0.140196
    22  C   -0.411825
    23  C   -0.100373
    24  C   -0.283521
    25  N   -0.464453
    26  C    0.140750
    27  C    0.022508
    28  C   -0.073744
    29  C    0.219364
    30  C   -0.361476
    31  C   -0.300434
    32  C   -0.318084
    33  N   -0.484790
    34  C    0.109873
    35  C   -0.006419
    36  C   -0.176998
    37  C    0.184718
    38  C   -0.389270
    39  C    0.206223
    40  O   -0.343133
    41  C    0.016205
    42  C    0.314478
    43  O   -0.372221
    44  O   -0.242571
    45  C   -0.195951
    46  C   -0.067565
    47  C   -0.156954
    48  C    0.046303
    49  C   -0.384961
    50  C   -0.226656
    51  C   -0.246892
    52  C   -0.244032
    53  C    0.071168
    54  C   -0.423750
    55  C   -0.244888
    56  C   -0.230848
    57  C   -0.247382
    58  C    0.078513
    59  C   -0.423247
    60  C   -0.243280
    61  C   -0.233690
    62  C   -0.231611
    63  C    0.015739
    64  C   -0.385636
    65  C   -0.353305
    66  H    0.146197
    67  H    0.150574
    68  H    0.165329
    69  H    0.151759
    70  H    0.114204
    71  H    0.127070
    72  H    0.121666
    73  H    0.148303
    74  H    0.141561
    75  H    0.146737
    76  H    0.139585
    77  H    0.142289
    78  H    0.160590
    79  H    0.152755
    80  H    0.129887
    81  H    0.136525
    82  H    0.132417
    83  H    0.153046
    84  H    0.143871
    85  H    0.117702
    86  H    0.137839
    87  H    0.114785
    88  H    0.120250
    89  H    0.116497
    90  H    0.116208
    91  H    0.119395
    92  H    0.136746
    93  H    0.159454
    94  H    0.137228
    95  H    0.145166
    96  H    0.121665
    97  H    0.137957
    98  H    0.130263
    99  H    0.132222
   100  H    0.100962
   101  H    0.127332
   102  H    0.119086
   103  H    0.127991
   104  H    0.145326
   105  H    0.123691
   106  H    0.115615
   107  H    0.118148
   108  H    0.110795
   109  H    0.105512
   110  H    0.111379
   111  H    0.081503
   112  H    0.123902
   113  H    0.125500
   114  H    0.112406
   115  H    0.103032
   116  H    0.109032
   117  H    0.101476
   118  H    0.106115
   119  H    0.102984
   120  H    0.108399
   121  H    0.080321
   122  H    0.111658
   123  H    0.123010
   124  H    0.124328
   125  H    0.103993
   126  H    0.107877
   127  H    0.102485
   128  H    0.105366
   129  H    0.104367
   130  H    0.101616
   131  H    0.076459
   132  H    0.108858
   133  H    0.117650
   134  H    0.120587
   135  H    0.113527
   136  H    0.116653
   137  H    0.107019
 Sum of Mulliken charges =   0.00000

 Dipole moment (field-independent basis, Debye):
    X=              2.2587    Y=              6.0187    Z=              0.4184  Tot=              6.4422
 Quadrupole moment (field-independent basis, Debye-Ang):
   XX=           -351.4448   YY=           -397.3684   ZZ=           -404.1080
   XY=            -36.7152   XZ=             10.6154   YZ=             -1.7994

 Normal termination of Gaussian 09 at Mon Jul 29 15:46:01 2019.
