 Gaussian 09, Revision D.01,
 Gaussian 09:  ES64L-G09RevD.01 24-Apr-2013

 -----------------------------------------------
 #n wB97XD/ChkBasis Geom=AllCheck Td(NStates=10)
 -----------------------------------------------

 Structure from the checkpoint file:  "cla-td-wb97xd-tzvp.chk"
 ------------------
 cla-s0-wb97xd-tzvp
 ------------------
 Charge =  0 Multiplicity = 1

                         Standard orientation:
 ---------------------------------------------------------------------
 Center     Atomic      Atomic             Coordinates (Angstroms)
 Number     Number       Type             X           Y           Z
 ---------------------------------------------------------------------
      1         12           0       -6.975878    0.761838    0.109078
      2          6           0       -5.039915   -2.049098    0.434811
      3          6           0       -4.415329    2.617990    1.325971
      4          6           0       -8.865587    3.533308   -0.284349
      5          6           0       -9.606803   -1.203032   -0.972075
      6          7           0       -4.997608    0.326237    0.755543
      7          6           0       -4.391275   -0.909109    0.786666
      8          6           0       -2.955522   -0.800255    1.239751
      9          6           0       -2.886368    0.642353    1.772798
     10          6           0       -4.169248    1.256525    1.246466
     11          6           0       -2.820636    0.712292    3.297818
     12          6           0       -1.975969   -1.072979    0.094680
     13          6           0       -0.534550   -1.119595    0.573219
     14          6           0        0.452444   -1.332958   -0.547536
     15          8           0        0.163619   -1.546271   -1.694145
     16          8           0        1.710465   -1.251655   -0.102364
     17          7           0       -6.684140    2.725299    0.447606
     18          6           0       -5.574390    3.301759    0.944615
     19          6           0       -5.757713    4.743625    1.036098
     20          6           0       -7.007993    5.004732    0.566799
     21          6           0       -7.603059    3.721578    0.209448
     22          6           0       -4.750202    5.693211    1.586892
     23          6           0       -7.693105    6.286868    0.444642
     24          6           0       -7.123299    7.442604    0.119225
     25          7           0       -8.905434    1.102152   -0.520510
     26          6           0       -9.492716    2.308275   -0.625087
     27          6           0      -10.834295    2.175926   -1.119609
     28          6           0      -11.047489    0.836166   -1.304254
     29          6           0       -9.828730    0.170559   -0.929740
     30          6           0      -11.778622    3.305275   -1.370174
     31          6           0      -12.271726    0.173172   -1.850027
     32          6           0      -12.212967   -0.005055   -3.368617
     33          7           0       -7.302217   -1.183465   -0.221487
     34          6           0       -8.432826   -1.868300   -0.639159
     35          6           0       -8.176933   -3.280588   -0.660672
     36          6           0       -6.861780   -3.406457   -0.246626
     37          6           0       -6.384878   -2.105415    0.004108
     38          6           0       -9.136924   -4.357734   -1.029738
     39          6           0       -5.793661   -4.355755    0.030560
     40          8           0       -5.778860   -5.556935   -0.019642
     41          6           0       -4.535716   -3.478261    0.434051
     42          6           0       -3.994482   -3.960188    1.759694
     43          8           0       -4.393192   -3.609959    2.837452
     44          8           0       -3.015935   -4.851269    1.584403
     45          6           0       -2.512341   -5.459004    2.770234
     46          6           0        2.741861   -1.435557   -1.090919
     47          6           0        4.058564   -1.279931   -0.415003
     48          6           0        5.008213   -0.394329   -0.709275
     49          6           0        4.895845    0.647328   -1.787512
     50          6           0        6.310915   -0.399047    0.045856
     51          6           0        7.527894   -0.712993   -0.827204
     52          6           0        8.826854   -0.707471   -0.030075
     53          6           0       10.098392   -0.884380   -0.864862
     54          6           0       10.154513   -2.259533   -1.526053
     55          6           0       11.333980   -0.615648   -0.001149
     56          6           0       12.657882   -0.580493   -0.756290
     57          6           0       13.828700   -0.191841    0.139094
     58          6           0       15.173384   -0.027835   -0.574185
     59          6           0       15.659480   -1.340356   -1.184088
     60          6           0       16.203931    0.567499    0.388989
     61          6           0       17.557081    0.898222   -0.231781
     62          6           0       18.442977    1.710051    0.705959
     63          6           0       19.871345    1.947879    0.211494
     64          6           0       19.907399    2.724909   -1.101832
     65          6           0       20.687608    2.669082    1.280530
     66          1           0       -3.611459    3.218877    1.730714
     67          1           0       -9.463809    4.423506   -0.432129
     68          1           0      -10.435951   -1.818129   -1.302365
     69          1           0       -2.769758   -1.516878    2.044813
     70          1           0       -2.029003    1.176680    1.356373
     71          1           0       -1.900696    0.249415    3.659945
     72          1           0       -2.846722    1.744626    3.648947
     73          1           0       -3.665144    0.180499    3.740669
     74          1           0       -2.218391   -2.019368   -0.389114
     75          1           0       -2.090453   -0.303289   -0.672809
     76          1           0       -0.248807   -0.203509    1.096103
     77          1           0       -0.394236   -1.928716    1.296421
     78          1           0       -3.994596    5.954730    0.841265
     79          1           0       -5.226997    6.617098    1.913935
     80          1           0       -4.229486    5.259217    2.441769
     81          1           0       -8.763453    6.274640    0.628232
     82          1           0       -7.705773    8.352797    0.057610
     83          1           0       -6.069255    7.516480   -0.117112
     84          1           0      -11.371199    4.013490   -2.095695
     85          1           0      -12.728589    2.944984   -1.763950
     86          1           0      -11.989130    3.861387   -0.453302
     87          1           0      -12.411400   -0.800209   -1.373786
     88          1           0      -13.153211    0.762088   -1.587358
     89          1           0      -13.117186   -0.487595   -3.743594
     90          1           0      -12.109345    0.961349   -3.864995
     91          1           0      -11.354587   -0.615927   -3.653977
     92          1           0       -9.626006   -4.146719   -1.982742
     93          1           0       -8.624134   -5.314639   -1.108036
     94          1           0       -9.919568   -4.455373   -0.273363
     95          1           0       -3.781748   -3.665047   -0.333306
     96          1           0       -2.086927   -4.708796    3.437370
     97          1           0       -3.309479   -5.986584    3.293438
     98          1           0       -1.747066   -6.157121    2.442526
     99          1           0        2.631872   -2.436311   -1.516306
    100          1           0        2.586112   -0.723045   -1.899086
    101          1           0        4.243775   -1.987336    0.388331
    102          1           0        3.867905    0.843051   -2.085513
    103          1           0        5.333859    1.588054   -1.445906
    104          1           0        5.449096    0.345368   -2.680345
    105          1           0        6.454808    0.585788    0.506027
    106          1           0        6.258892   -1.124130    0.861694
    107          1           0        7.372527   -1.683922   -1.304785
    108          1           0        7.605046    0.023280   -1.633348
    109          1           0        8.895968    0.242859    0.510211
    110          1           0        8.789778   -1.491200    0.735982
    111          1           0       10.079917   -0.125884   -1.658133
    112          1           0        9.278920   -2.443249   -2.149620
    113          1           0       11.032447   -2.364194   -2.163971
    114          1           0       10.195741   -3.045409   -0.765909
    115          1           0       11.198600    0.344334    0.508402
    116          1           0       11.387440   -1.374514    0.789078
    117          1           0       12.848665   -1.555224   -1.209566
    118          1           0       12.582520    0.136552   -1.582225
    119          1           0       13.585838    0.751222    0.640655
    120          1           0       13.938341   -0.938746    0.935042
    121          1           0       15.031169    0.693333   -1.389512
    122          1           0       15.813387   -2.091131   -0.402923
    123          1           0       14.940923   -1.743006   -1.898849
    124          1           0       16.603892   -1.210442   -1.713484
    125          1           0       15.784555    1.483371    0.819397
    126          1           0       16.348889   -0.123236    1.228545
    127          1           0       18.080931   -0.022366   -0.506558
    128          1           0       17.394183    1.449613   -1.163138
    129          1           0       17.969859    2.680827    0.898917
    130          1           0       18.490691    1.199039    1.673866
    131          1           0       20.331189    0.967655    0.038181
    132          1           0       19.411748    3.693635   -0.986870
    133          1           0       20.936607    2.912977   -1.414177
    134          1           0       19.409483    2.187435   -1.909941
    135          1           0       20.695144    2.111293    2.219324
    136          1           0       21.722795    2.809672    0.962958
    137          1           0       20.264325    3.657191    1.482949
 ---------------------------------------------------------------------

 SCF Done:  E(RwB97XD) =  -2934.76193007     A.U. after   27 cycles

 Excitation energies and oscillator strengths:

 Excited State   1:      Singlet-A      2.1235 eV  583.88 nm  f=0.2159  <S**2>=0.000
     240 -> 242        0.10448
     240 -> 243        0.26486
     241 -> 242        0.63624
 This state for optimization and/or second-order correction.
 Total Energy, E(TD-HF/TD-KS) =  -2934.68389449
 Copying the excited state density for this state as the 1-particle RhoCI density.

 Excited State   2:      Singlet-A      2.5523 eV  485.78 nm  f=0.0388  <S**2>=0.000
     240 -> 242        0.56233
     241 -> 242       -0.13010
     241 -> 243       -0.39023

 Excited State   3:      Singlet-A      3.4505 eV  359.32 nm  f=0.9975  <S**2>=0.000
     238 -> 242       -0.13879
     240 -> 242        0.37273
     241 -> 243        0.56386

 Excited State   4:      Singlet-A      3.6996 eV  335.13 nm  f=0.3526  <S**2>=0.000
     238 -> 242       -0.37787
     238 -> 243       -0.17891
     239 -> 242        0.44549
     239 -> 243        0.10454
     240 -> 242       -0.10011
     240 -> 243       -0.23965

 Excited State   5:      Singlet-A      3.7379 eV  331.69 nm  f=0.7648  <S**2>=0.000
     238 -> 243       -0.11747
     239 -> 242        0.21831
     240 -> 243        0.57341
     241 -> 242       -0.25081

 Excited State   6:      Singlet-A      3.8361 eV  323.21 nm  f=0.0209  <S**2>=0.000
     237 -> 242       -0.16720
     238 -> 242        0.46506
     239 -> 242        0.41457
     239 -> 243       -0.21765

 Excited State   7:      Singlet-A      3.9190 eV  316.37 nm  f=0.0056  <S**2>=0.000
     236 -> 242        0.49872
     236 -> 243       -0.14423
     236 -> 244        0.38257
     236 -> 245       -0.16475

 Excited State   8:      Singlet-A      4.1555 eV  298.36 nm  f=0.1982  <S**2>=0.000
     236 -> 242       -0.10928
     237 -> 242        0.61074
     237 -> 243       -0.18513
     238 -> 242        0.10300
     239 -> 243       -0.10189

 Excited State   9:      Singlet-A      4.4819 eV  276.63 nm  f=0.0653  <S**2>=0.000
     238 -> 243       -0.16709
     239 -> 242       -0.12392
     239 -> 243       -0.32525
     240 -> 244       -0.18989
     241 -> 244        0.49868
     241 -> 245       -0.13263

 Excited State  10:      Singlet-A      4.5194 eV  274.33 nm  f=0.0970  <S**2>=0.000
     238 -> 242        0.14407
     238 -> 243        0.21112
     239 -> 242        0.11460
     239 -> 243        0.46945
     240 -> 243        0.11052
     241 -> 244        0.34369

 The electronic state is 1-A.
 Alpha  occ. eigenvalues --  -46.89889 -19.29659 -19.29515 -19.23445 -19.23155
 Alpha  occ. eigenvalues --  -19.22956 -14.44211 -14.42232 -14.41908 -14.41900
 Alpha  occ. eigenvalues --  -10.41275 -10.41166 -10.37559 -10.34152 -10.33762
 Alpha  occ. eigenvalues --  -10.33351 -10.33143 -10.32897 -10.32277 -10.31532
 Alpha  occ. eigenvalues --  -10.31210 -10.31036 -10.30905 -10.30874 -10.30871
 Alpha  occ. eigenvalues --  -10.30483 -10.30346 -10.30131 -10.30116 -10.30115
 Alpha  occ. eigenvalues --  -10.30067 -10.29990 -10.29898 -10.29480 -10.29113
 Alpha  occ. eigenvalues --  -10.29035 -10.28886 -10.28854 -10.28748 -10.28544
 Alpha  occ. eigenvalues --  -10.28530 -10.28480 -10.28406 -10.28311 -10.28291
 Alpha  occ. eigenvalues --  -10.28272 -10.28217 -10.28156 -10.28155 -10.28149
 Alpha  occ. eigenvalues --  -10.28092 -10.28035 -10.27717 -10.27484 -10.27402
 Alpha  occ. eigenvalues --  -10.27362 -10.27360 -10.27234 -10.27218 -10.27166
 Alpha  occ. eigenvalues --  -10.27148 -10.26860 -10.26615 -10.26599 -10.26591
 Alpha  occ. eigenvalues --   -3.16182  -1.89662  -1.89095  -1.89040  -1.21432
 Alpha  occ. eigenvalues --   -1.21363  -1.14099  -1.12222  -1.12065  -1.07332
 Alpha  occ. eigenvalues --   -1.06524  -1.06150  -1.05195  -0.94817  -0.93931
 Alpha  occ. eigenvalues --   -0.92986  -0.92695  -0.92069  -0.91975  -0.91442
 Alpha  occ. eigenvalues --   -0.90715  -0.90557  -0.89983  -0.89619  -0.88693
 Alpha  occ. eigenvalues --   -0.87673  -0.86870  -0.86128  -0.85755  -0.85368
 Alpha  occ. eigenvalues --   -0.84209  -0.83874  -0.83221  -0.82499  -0.80807
 Alpha  occ. eigenvalues --   -0.80617  -0.79698  -0.78883  -0.78672  -0.77929
 Alpha  occ. eigenvalues --   -0.77750  -0.77637  -0.77022  -0.75978  -0.75038
 Alpha  occ. eigenvalues --   -0.74239  -0.73054  -0.72250  -0.71580  -0.70772
 Alpha  occ. eigenvalues --   -0.69892  -0.69071  -0.67900  -0.67529  -0.66989
 Alpha  occ. eigenvalues --   -0.66643  -0.65823  -0.65715  -0.65166  -0.64892
 Alpha  occ. eigenvalues --   -0.64503  -0.63218  -0.62996  -0.62446  -0.61808
 Alpha  occ. eigenvalues --   -0.61373  -0.60993  -0.60482  -0.59954  -0.59679
 Alpha  occ. eigenvalues --   -0.58922  -0.58226  -0.57933  -0.57707  -0.57524
 Alpha  occ. eigenvalues --   -0.57143  -0.56961  -0.56683  -0.56370  -0.55897
 Alpha  occ. eigenvalues --   -0.55529  -0.55249  -0.54940  -0.54531  -0.54332
 Alpha  occ. eigenvalues --   -0.53813  -0.53598  -0.53577  -0.53290  -0.53149
 Alpha  occ. eigenvalues --   -0.52890  -0.52766  -0.52593  -0.52427  -0.52212
 Alpha  occ. eigenvalues --   -0.52182  -0.51637  -0.51439  -0.51346  -0.51125
 Alpha  occ. eigenvalues --   -0.50848  -0.50632  -0.50452  -0.50299  -0.49839
 Alpha  occ. eigenvalues --   -0.49642  -0.49464  -0.49089  -0.48802  -0.48621
 Alpha  occ. eigenvalues --   -0.48525  -0.48264  -0.47986  -0.47925  -0.47858
 Alpha  occ. eigenvalues --   -0.47791  -0.47629  -0.47322  -0.47002  -0.46749
 Alpha  occ. eigenvalues --   -0.46660  -0.46623  -0.46442  -0.46097  -0.45960
 Alpha  occ. eigenvalues --   -0.45898  -0.45729  -0.45659  -0.45495  -0.45402
 Alpha  occ. eigenvalues --   -0.45185  -0.44879  -0.44644  -0.44399  -0.44381
 Alpha  occ. eigenvalues --   -0.44127  -0.43880  -0.43777  -0.43513  -0.43417
 Alpha  occ. eigenvalues --   -0.43283  -0.42856  -0.42481  -0.42467  -0.42370
 Alpha  occ. eigenvalues --   -0.42189  -0.41731  -0.41582  -0.41209  -0.40705
 Alpha  occ. eigenvalues --   -0.40315  -0.40282  -0.40092  -0.39962  -0.39759
 Alpha  occ. eigenvalues --   -0.39728  -0.39629  -0.39396  -0.39167  -0.39003
 Alpha  occ. eigenvalues --   -0.38785  -0.38747  -0.38495  -0.36852  -0.36604
 Alpha  occ. eigenvalues --   -0.36397  -0.36142  -0.35288  -0.34054  -0.32910
 Alpha  occ. eigenvalues --   -0.32698  -0.32461  -0.31292  -0.30789  -0.25878
 Alpha  occ. eigenvalues --   -0.24031
 Alpha virt. eigenvalues --   -0.04967  -0.01725   0.03427   0.05474   0.06706
 Alpha virt. eigenvalues --    0.07345   0.07889   0.08072   0.08563   0.09154
 Alpha virt. eigenvalues --    0.09703   0.09974   0.10022   0.10183   0.10614

 Mulliken charges:
               1
     1  Mg   0.763208
     2  C   -0.191325
     3  C   -0.526944
     4  C   -0.353532
     5  C   -0.299553
     6  N   -0.403135
     7  C    0.276239
     8  C    0.012221
     9  C    0.057716
    10  C    0.216363
    11  C   -0.398569
    12  C   -0.318339
    13  C   -0.218972
    14  C    0.344044
    15  O   -0.364726
    16  O   -0.268121
    17  N   -0.384774
    18  C    0.315392
    19  C   -0.013858
    20  C    0.008809
    21  C    0.262164
    22  C   -0.425599
    23  C   -0.172749
    24  C   -0.285147
    25  N   -0.374672
    26  C    0.221107
    27  C   -0.027640
    28  C   -0.042281
    29  C    0.293662
    30  C   -0.392093
    31  C   -0.278690
    32  C   -0.328268
    33  N   -0.393395
    34  C    0.222865
    35  C   -0.080363
    36  C   -0.076195
    37  C    0.176968
    38  C   -0.411657
    39  C    0.137236
    40  O   -0.318407
    41  C    0.050593
    42  C    0.294006
    43  O   -0.355104
    44  O   -0.261117
    45  C   -0.199727
    46  C   -0.054821
    47  C   -0.160058
    48  C    0.060489
    49  C   -0.385248
    50  C   -0.192228
    51  C   -0.254308
    52  C   -0.193296
    53  C    0.048845
    54  C   -0.407283
    55  C   -0.200907
    56  C   -0.227490
    57  C   -0.204775
    58  C    0.052200
    59  C   -0.408792
    60  C   -0.197643
    61  C   -0.233568
    62  C   -0.205032
    63  C    0.013811
    64  C   -0.378158
    65  C   -0.341933
    66  H    0.125452
    67  H    0.135005
    68  H    0.141129
    69  H    0.127263
    70  H    0.088235
    71  H    0.122526
    72  H    0.120571
    73  H    0.144834
    74  H    0.134866
    75  H    0.133207
    76  H    0.131137
    77  H    0.130952
    78  H    0.150130
    79  H    0.154735
    80  H    0.128436
    81  H    0.124915
    82  H    0.131912
    83  H    0.147847
    84  H    0.139334
    85  H    0.121493
    86  H    0.136542
    87  H    0.109617
    88  H    0.113239
    89  H    0.116263
    90  H    0.116844
    91  H    0.119799
    92  H    0.129647
    93  H    0.163144
    94  H    0.143032
    95  H    0.115825
    96  H    0.124658
    97  H    0.140708
    98  H    0.134165
    99  H    0.124707
   100  H    0.105433
   101  H    0.114434
   102  H    0.125372
   103  H    0.126248
   104  H    0.144116
   105  H    0.112593
   106  H    0.105059
   107  H    0.111934
   108  H    0.102806
   109  H    0.093829
   110  H    0.098260
   111  H    0.060779
   112  H    0.123239
   113  H    0.124739
   114  H    0.107658
   115  H    0.093176
   116  H    0.095317
   117  H    0.099769
   118  H    0.091697
   119  H    0.093023
   120  H    0.094503
   121  H    0.061175
   122  H    0.107082
   123  H    0.122392
   124  H    0.126964
   125  H    0.093911
   126  H    0.095610
   127  H    0.099103
   128  H    0.100539
   129  H    0.094301
   130  H    0.093859
   131  H    0.063498
   132  H    0.105405
   133  H    0.116452
   134  H    0.122868
   135  H    0.112545
   136  H    0.116191
   137  H    0.104509
 Sum of Mulliken charges =   0.00000

 Dipole moment (field-independent basis, Debye):
    X=              2.7197    Y=              5.1310    Z=              0.4865  Tot=              5.8276
 Quadrupole moment (field-independent basis, Debye-Ang):
   XX=           -353.2990   YY=           -394.7437   ZZ=           -402.2991
   XY=            -31.7378   XZ=             11.3773   YZ=             -2.8215

 Normal termination of Gaussian 09 at Mon Aug 12 23:55:20 2019.
