 Gaussian 09, Revision D.01,
 Gaussian 09:  ES64L-G09RevD.01 24-Apr-2013

 ---------------
 #n B3LYP/SVP Td
 ---------------

 -----------------
 chla-TD-b3lyp-svp
 -----------------
 Symbolic Z-matrix:
 Charge =  0 Multiplicity = 1

                         Standard orientation:
 ---------------------------------------------------------------------
 Center     Atomic      Atomic             Coordinates (Angstroms)
 Number     Number       Type             X           Y           Z
 ---------------------------------------------------------------------
      1         12           0       -7.088600    0.689911    0.134580
      2          6           0       -4.972770   -2.033459    0.518240
      3          6           0       -4.630850    2.720901    1.337870
      4          6           0       -9.162470    3.348201   -0.316140
      5          6           0       -9.596780   -1.460659   -0.965220
      6          7           0       -5.067270    0.364971    0.808570
      7          6           0       -4.383730   -0.825579    0.852230
      8          6           0       -2.940980   -0.613720    1.287860
      9          6           0       -2.973260    0.836570    1.835520
     10          6           0       -4.295020    1.369651    1.288830
     11          6           0       -2.923770    0.903300    3.370660
     12          6           0       -1.953870   -0.815470    0.119320
     13          6           0       -0.489160   -0.765640    0.550110
     14          6           0        0.476390   -1.012470   -0.593290
     15          8           0        0.167230   -1.381590   -1.700740
     16          8           0        1.744730   -0.776910   -0.215390
     17          7           0       -6.918820    2.693671    0.442580
     18          6           0       -5.833180    3.347601    0.939260
     19          6           0       -6.097550    4.776891    1.010620
     20          6           0       -7.385310    4.960971    0.531340
     21          6           0       -7.893550    3.631111    0.189460
     22          6           0       -5.151040    5.806651    1.543520
     23          6           0       -8.159800    6.190721    0.394130
     24          6           0       -7.693740    7.444991    0.254620
     25          7           0       -9.042940    0.903151   -0.533410
     26          6           0       -9.707180    2.087031   -0.648710
     27          6           0      -11.051670    1.862251   -1.154120
     28          6           0      -11.177920    0.499031   -1.333530
     29          6           0       -9.904250   -0.087839   -0.940990
     30          6           0      -12.067480    2.933371   -1.414050
     31          6           0      -12.362020   -0.255359   -1.871990
     32          6           0      -12.305780   -0.502799   -3.389450
     33          7           0       -7.292400   -1.295909   -0.169110
     34          6           0       -8.376890   -2.048959   -0.605990
     35          6           0       -8.031160   -3.461879   -0.624520
     36          6           0       -6.709300   -3.505879   -0.188230
     37          6           0       -6.310220   -2.164809    0.073390
     38          6           0       -8.910930   -4.603049   -1.025400
     39          6           0       -5.589820   -4.399479    0.102440
     40          8           0       -5.512600   -5.605009    0.051200
     41          6           0       -4.381930   -3.440909    0.529610
     42          6           0       -3.803670   -3.900240    1.855980
     43          8           0       -4.049460   -3.420149    2.937410
     44          8           0       -2.981880   -4.946160    1.677970
     45          6           0       -2.468250   -5.560390    2.858890
     46          6           0        2.769310   -1.016780   -1.206300
     47          6           0        4.094380   -0.717600   -0.583840
     48          6           0        5.074050    0.065980   -1.071880
     49          6           0        4.988310    0.826970   -2.372360
     50          6           0        6.375190    0.214020   -0.309950
     51          6           0        7.605290   -0.386000   -1.016150
     52          6           0        8.887360   -0.251280   -0.187350
     53          6           0       10.180600   -0.740720   -0.869270
     54          6           0       10.140230   -2.246240   -1.167620
     55          6           0       11.406450   -0.349890   -0.019570
     56          6           0       12.773630   -0.574900   -0.675960
     57          6           0       13.940080   -0.081780    0.188320
     58          6           0       15.340920   -0.193020   -0.446210
     59          6           0       15.740670   -1.651520   -0.711240
     60          6           0       16.377570    0.541730    0.426990
     61          6           0       17.776490    0.694990   -0.181460
     62          6           0       18.722000    1.525180    0.694390
     63          6           0       20.172620    1.642160    0.188850
     64          6           0       20.273670    2.366760   -1.160350
     65          6           0       21.057280    2.327490    1.238570
     66          1           0       -3.859130    3.380170    1.739380
     67          1           0       -9.821010    4.203311   -0.474120
     68          1           0      -10.387350   -2.135079   -1.300580
     69          1           0       -2.691330   -1.325140    2.091280
     70          1           0       -2.139080    1.434320    1.431910
     71          1           0       -1.966960    0.505420    3.745750
     72          1           0       -3.027390    1.938260    3.731880
     73          1           0       -3.735080    0.304610    3.814480
     74          1           0       -2.140540   -1.783350   -0.369630
     75          1           0       -2.140980   -0.053820   -0.656370
     76          1           0       -0.219690    0.196420    1.016050
     77          1           0       -0.281470   -1.529050    1.321710
     78          1           0       -4.531020    6.254101    0.745870
     79          1           0       -5.696950    6.631011    2.027490
     80          1           0       -4.461220    5.378881    2.286340
     81          1           0       -9.248130    6.061311    0.399590
     82          1           0       -8.384830    8.287741    0.170510
     83          1           0       -6.628510    7.676071    0.194100
     84          1           0      -11.745970    3.615121   -2.220330
     85          1           0      -13.036030    2.507961   -1.713960
     86          1           0      -12.243330    3.555761   -0.520450
     87          1           0      -12.454990   -1.222809   -1.350120
     88          1           0      -13.285260    0.297571   -1.632000
     89          1           0      -13.191990   -1.061109   -3.732670
     90          1           0      -12.266850    0.447921   -3.944440
     91          1           0      -11.410720   -1.081869   -3.666790
     92          1           0       -9.249890   -4.506789   -2.070950
     93          1           0       -8.370350   -5.554399   -0.926810
     94          1           0       -9.816860   -4.656179   -0.398060
     95          1           0       -3.603490   -3.595190   -0.236880
     96          1           0       -1.881870   -4.842710    3.453030
     97          1           0       -3.287230   -5.943980    3.485930
     98          1           0       -1.831380   -6.387050    2.520970
     99          1           0        2.699000   -2.073870   -1.519190
    100          1           0        2.555390   -0.410880   -2.098190
    101          1           0        4.264090   -1.223620    0.374060
    102          1           0        3.975580    0.847390   -2.796740
    103          1           0        5.319560    1.869890   -2.229880
    104          1           0        5.655100    0.389540   -3.135300
    105          1           0        6.562840    1.290010   -0.129830
    106          1           0        6.270390   -0.253250    0.683310
    107          1           0        7.398370   -1.446770   -1.237070
    108          1           0        7.755770    0.107560   -1.992850
    109          1           0        9.017220    0.812350    0.083580
    110          1           0        8.761580   -0.789340    0.771630
    111          1           0       10.265930   -0.206040   -1.836030
    112          1           0        9.285530   -2.515400   -1.806790
    113          1           0       11.048940   -2.584820   -1.688000
    114          1           0       10.054540   -2.828140   -0.233090
    115          1           0       11.318590    0.719070    0.247250
    116          1           0       11.366740   -0.899660    0.940330
    117          1           0       12.905530   -1.645330   -0.902600
    118          1           0       12.798310   -0.052570   -1.651080
    119          1           0       13.759200    0.977050    0.448570
    120          1           0       13.938310   -0.628460    1.150830
    121          1           0       15.302730    0.329920   -1.422360
    122          1           0       15.795000   -2.220210    0.233780
    123          1           0       15.018290   -2.162460   -1.365920
    124          1           0       16.724000   -1.724370   -1.200250
    125          1           0       15.986040    1.549270    0.657600
    126          1           0       16.456460    0.023710    1.402060
    127          1           0       18.228940   -0.298280   -0.349550
    128          1           0       17.681420    1.158000   -1.179740
    129          1           0       18.305190    2.542780    0.822740
    130          1           0       18.740700    1.082320    1.707090
    131          1           0       20.557020    0.613360    0.047450
    132          1           0       19.877600    3.394770   -1.085130
    133          1           0       21.321890    2.439700   -1.493270
    134          1           0       19.712420    1.850300   -1.954330
    135          1           0       21.032740    1.790600    2.200960
    136          1           0       22.107860    2.378590    0.909070
    137          1           0       20.717990    3.361070    1.426460
 ---------------------------------------------------------------------

 SCF Done:  E(RB3LYP) =  -2932.59795296     A.U. after   15 cycles

 Excitation energies and oscillator strengths:

 Excited State   1:      Singlet-A      2.1369 eV  580.22 nm  f=0.2384  <S**2>=0.000
     240 -> 243       -0.27072
     241 -> 242        0.65131
 This state for optimization and/or second-order correction.
 Total Energy, E(TD-HF/TD-KS) =  -2932.51942487
 Copying the excited state density for this state as the 1-particle RhoCI density.

 Excited State   2:      Singlet-A      2.2980 eV  539.53 nm  f=0.0262  <S**2>=0.000
     240 -> 242        0.59696
     241 -> 243        0.36725

 Excited State   3:      Singlet-A      2.9732 eV  417.00 nm  f=0.0174  <S**2>=0.000
     239 -> 242        0.69531

 The electronic state is 1-A.
 Alpha  occ. eigenvalues --  -46.78241 -19.17485 -19.17452 -19.12202 -19.11914
 Alpha  occ. eigenvalues --  -19.11717 -14.33914 -14.31544 -14.31453 -14.31168
 Alpha  occ. eigenvalues --  -10.31237 -10.31070 -10.27351 -10.24671 -10.24212
 Alpha  occ. eigenvalues --  -10.23205 -10.23073 -10.22422 -10.22031 -10.21784
 Alpha  occ. eigenvalues --  -10.21507 -10.21450 -10.21216 -10.20887 -10.20625
 Alpha  occ. eigenvalues --  -10.20457 -10.20326 -10.20153 -10.20036 -10.19993
 Alpha  occ. eigenvalues --  -10.19992 -10.19579 -10.19546 -10.19441 -10.19396
 Alpha  occ. eigenvalues --  -10.19341 -10.19304 -10.19288 -10.19259 -10.19146
 Alpha  occ. eigenvalues --  -10.19055 -10.19052 -10.19038 -10.18914 -10.18876
 Alpha  occ. eigenvalues --  -10.18754 -10.18721 -10.18635 -10.18618 -10.18580
 Alpha  occ. eigenvalues --  -10.18568 -10.18466 -10.18360 -10.18298 -10.18000
 Alpha  occ. eigenvalues --  -10.17979 -10.17852 -10.17834 -10.17800 -10.17784
 Alpha  occ. eigenvalues --  -10.17766 -10.17599 -10.17576 -10.17552 -10.17544
 Alpha  occ. eigenvalues --   -3.07508  -1.82518  -1.81964  -1.81913  -1.09419
 Alpha  occ. eigenvalues --   -1.09415  -1.02325  -1.00529  -1.00297  -0.95725
 Alpha  occ. eigenvalues --   -0.94835  -0.94533  -0.93565  -0.83540  -0.82584
 Alpha  occ. eigenvalues --   -0.81699  -0.81295  -0.80745  -0.80278  -0.80051
 Alpha  occ. eigenvalues --   -0.79551  -0.79344  -0.78804  -0.78425  -0.77625
 Alpha  occ. eigenvalues --   -0.76588  -0.75780  -0.75147  -0.74738  -0.74230
 Alpha  occ. eigenvalues --   -0.73393  -0.73095  -0.72303  -0.71758  -0.70044
 Alpha  occ. eigenvalues --   -0.69707  -0.68910  -0.68225  -0.68054  -0.67295
 Alpha  occ. eigenvalues --   -0.67188  -0.67060  -0.66480  -0.65497  -0.64635
 Alpha  occ. eigenvalues --   -0.63796  -0.62658  -0.61889  -0.61287  -0.60600
 Alpha  occ. eigenvalues --   -0.59633  -0.58930  -0.57776  -0.57605  -0.56917
 Alpha  occ. eigenvalues --   -0.56816  -0.56034  -0.55736  -0.55236  -0.55147
 Alpha  occ. eigenvalues --   -0.54530  -0.53393  -0.53233  -0.52636  -0.52182
 Alpha  occ. eigenvalues --   -0.51854  -0.51301  -0.50977  -0.50325  -0.50082
 Alpha  occ. eigenvalues --   -0.49429  -0.48813  -0.48515  -0.48314  -0.48109
 Alpha  occ. eigenvalues --   -0.47754  -0.47512  -0.47078  -0.46998  -0.46493
 Alpha  occ. eigenvalues --   -0.46258  -0.45937  -0.45607  -0.45234  -0.45063
 Alpha  occ. eigenvalues --   -0.44771  -0.44323  -0.44227  -0.44166  -0.44080
 Alpha  occ. eigenvalues --   -0.43784  -0.43693  -0.43459  -0.43304  -0.43247
 Alpha  occ. eigenvalues --   -0.42989  -0.42691  -0.42428  -0.42391  -0.42250
 Alpha  occ. eigenvalues --   -0.42088  -0.41769  -0.41691  -0.41509  -0.41037
 Alpha  occ. eigenvalues --   -0.40792  -0.40506  -0.40185  -0.40104  -0.39918
 Alpha  occ. eigenvalues --   -0.39761  -0.39554  -0.39472  -0.39392  -0.39191
 Alpha  occ. eigenvalues --   -0.39096  -0.38984  -0.38531  -0.38335  -0.38307
 Alpha  occ. eigenvalues --   -0.38190  -0.38102  -0.37914  -0.37623  -0.37492
 Alpha  occ. eigenvalues --   -0.37416  -0.37338  -0.37187  -0.37123  -0.37087
 Alpha  occ. eigenvalues --   -0.36646  -0.36586  -0.36252  -0.36215  -0.35916
 Alpha  occ. eigenvalues --   -0.35665  -0.35553  -0.35338  -0.35154  -0.34988
 Alpha  occ. eigenvalues --   -0.34783  -0.34673  -0.34310  -0.34281  -0.34188
 Alpha  occ. eigenvalues --   -0.34120  -0.33703  -0.33545  -0.33048  -0.32750
 Alpha  occ. eigenvalues --   -0.32272  -0.32109  -0.32020  -0.31828  -0.31708
 Alpha  occ. eigenvalues --   -0.31674  -0.31442  -0.31421  -0.31056  -0.30784
 Alpha  occ. eigenvalues --   -0.30627  -0.30309  -0.30284  -0.29444  -0.28237
 Alpha  occ. eigenvalues --   -0.27892  -0.27764  -0.27197  -0.26209  -0.24999
 Alpha  occ. eigenvalues --   -0.24789  -0.24423  -0.23336  -0.22738  -0.19679
 Alpha  occ. eigenvalues --   -0.18591
 Alpha virt. eigenvalues --   -0.09847  -0.07061  -0.03458  -0.01227   0.00317
 Alpha virt. eigenvalues --    0.00643   0.00760   0.01685   0.01744   0.02594
 Alpha virt. eigenvalues --    0.04601   0.04641   0.04764   0.05133   0.05565

 Mulliken charges:
               1
     1  Mg   1.262876
     2  C    0.010457
     3  C   -0.106152
     4  C   -0.131359
     5  C   -0.131615
     6  N   -0.362205
     7  C   -0.025189
     8  C   -0.008542
     9  C   -0.038687
    10  C    0.044055
    11  C    0.076606
    12  C    0.064489
    13  C    0.043828
    14  C    0.164065
    15  O   -0.235438
    16  O   -0.317065
    17  N   -0.438614
    18  C    0.141861
    19  C   -0.150313
    20  C    0.045866
    21  C    0.140457
    22  C    0.097926
    23  C   -0.043822
    24  C   -0.027235
    25  N   -0.405445
    26  C    0.117970
    27  C   -0.146319
    28  C   -0.096559
    29  C    0.115824
    30  C    0.122650
    31  C    0.068796
    32  C    0.021350
    33  N   -0.406771
    34  C    0.118796
    35  C   -0.175708
    36  C    0.026476
    37  C    0.069106
    38  C    0.117244
    39  C    0.045586
    40  O   -0.158097
    41  C   -0.040759
    42  C    0.184700
    43  O   -0.230129
    44  O   -0.293234
    45  C    0.193266
    46  C    0.291454
    47  C   -0.094612
    48  C   -0.140192
    49  C    0.087992
    50  C    0.087164
    51  C    0.012889
    52  C    0.035566
    53  C   -0.055705
    54  C    0.035399
    55  C    0.029881
    56  C    0.048529
    57  C    0.030689
    58  C   -0.055148
    59  C    0.035413
    60  C    0.032023
    61  C    0.041071
    62  C    0.026179
    63  C   -0.087331
    64  C    0.029651
    65  C    0.045526
    66  H   -0.040163
    67  H   -0.039701
    68  H   -0.032055
    69  H    0.003920
    70  H   -0.004706
    71  H    0.012857
    72  H    0.008041
    73  H    0.025951
    74  H    0.013844
    75  H    0.003887
    76  H    0.023320
    77  H    0.026907
    78  H    0.028612
    79  H    0.023224
    80  H    0.012120
    81  H   -0.003776
    82  H    0.019994
    83  H    0.014633
    84  H    0.021050
    85  H    0.002323
    86  H    0.018744
    87  H   -0.000788
    88  H   -0.002827
    89  H    0.012168
    90  H    0.009671
    91  H    0.010141
    92  H    0.022983
    93  H    0.031979
    94  H    0.023392
    95  H    0.054484
    96  H    0.023056
    97  H    0.032773
    98  H    0.032640
    99  H    0.022066
   100  H    0.008492
   101  H   -0.013819
   102  H    0.004521
   103  H    0.013143
   104  H    0.029196
   105  H   -0.002338
   106  H   -0.011356
   107  H    0.000767
   108  H   -0.007354
   109  H   -0.015455
   110  H   -0.013370
   111  H   -0.019966
   112  H    0.006444
   113  H    0.008665
   114  H    0.000291
   115  H   -0.015936
   116  H   -0.015002
   117  H   -0.002547
   118  H   -0.016049
   119  H   -0.016150
   120  H   -0.015555
   121  H   -0.020625
   122  H   -0.000741
   123  H    0.006591
   124  H    0.006641
   125  H   -0.015898
   126  H   -0.015436
   127  H   -0.008194
   128  H   -0.009098
   129  H   -0.015286
   130  H   -0.014173
   131  H   -0.012382
   132  H    0.000252
   133  H    0.003501
   134  H    0.009632
   135  H    0.002982
   136  H    0.003292
   137  H    0.000126
 Sum of Mulliken charges =   0.00000

 Dipole moment (field-independent basis, Debye):
    X=              2.3873    Y=              3.8642    Z=              0.1996  Tot=              4.5466
 Quadrupole moment (field-independent basis, Debye-Ang):
   XX=           -355.5291   YY=           -399.8121   ZZ=           -401.1236
   XY=            -22.1001   XZ=              8.0208   YZ=             -3.8944

 Normal termination of Gaussian 09 at Thu Jul  4 20:23:42 2019.
