 Gaussian 09, Revision D.01,
 Gaussian 09:  ES64L-G09RevD.01 24-Apr-2013

 ---------------------------
 #n CAM-B3LYP/6-31G(d,p) Opt
 ---------------------------

 ------------------
 zeaxanthin-s0-geom
 ------------------
 Symbolic Z-matrix:
 Charge =  0 Multiplicity = 1

 SCF Done:  E(RCAM-B3LYP) =  -1707.34243138     A.U. after   13 cycles
 SCF Done:  E(RCAM-B3LYP) =  -1707.37127050     A.U. after   11 cycles
 SCF Done:  E(RCAM-B3LYP) =  -1707.37668816     A.U. after   12 cycles
 SCF Done:  E(RCAM-B3LYP) =  -1707.37885200     A.U. after   11 cycles
 SCF Done:  E(RCAM-B3LYP) =  -1707.38010167     A.U. after   11 cycles
 SCF Done:  E(RCAM-B3LYP) =  -1707.38075548     A.U. after   12 cycles
 SCF Done:  E(RCAM-B3LYP) =  -1707.38162044     A.U. after   14 cycles
 SCF Done:  E(RCAM-B3LYP) =  -1707.38330784     A.U. after   10 cycles
 SCF Done:  E(RCAM-B3LYP) =  -1707.38497139     A.U. after   12 cycles
 SCF Done:  E(RCAM-B3LYP) =  -1707.38459625     A.U. after   14 cycles
 SCF Done:  E(RCAM-B3LYP) =  -1707.38655302     A.U. after   13 cycles
 SCF Done:  E(RCAM-B3LYP) =  -1707.38671745     A.U. after   10 cycles
 SCF Done:  E(RCAM-B3LYP) =  -1707.38687065     A.U. after   10 cycles
 SCF Done:  E(RCAM-B3LYP) =  -1707.38690540     A.U. after   10 cycles
 SCF Done:  E(RCAM-B3LYP) =  -1707.38691092     A.U. after    8 cycles
 SCF Done:  E(RCAM-B3LYP) =  -1707.38691312     A.U. after    8 cycles
 SCF Done:  E(RCAM-B3LYP) =  -1707.38691436     A.U. after    7 cycles
 SCF Done:  E(RCAM-B3LYP) =  -1707.38691467     A.U. after    7 cycles
 SCF Done:  E(RCAM-B3LYP) =  -1707.38691483     A.U. after    6 cycles
 SCF Done:  E(RCAM-B3LYP) =  -1707.38691485     A.U. after    6 cycles
 Optimization completed.
    -- Stationary point found.

                         Standard orientation:
 ---------------------------------------------------------------------
 Center     Atomic      Atomic             Coordinates (Angstroms)
 Number     Number       Type             X           Y           Z
 ---------------------------------------------------------------------
      1          8           0       14.717808   -2.215285   -0.411469
      2          8           0      -14.784035    1.981442    0.709061
      3          6           0       11.467063   -1.083660    1.216394
      4          6           0      -12.323680   -0.924400    0.794785
      5          6           0       12.962684   -1.409618    1.074285
      6          6           0      -13.673907   -0.188404    0.761039
      7          6           0       13.330060   -1.934731   -0.301106
      8          6           0      -13.526599    1.322017    0.732155
      9          6           0       10.964737   -0.297842   -0.007543
     10          6           0      -11.328986   -0.289709   -0.192458
     11          6           0       13.007808   -0.882429   -1.341269
     12          6           0      -12.792399    1.720231   -0.529584
     13          6           0       11.652534   -0.236272   -1.164835
     14          6           0      -11.564104    0.886774   -0.804607
     15          6           0       11.292732   -0.248418    2.495585
     16          6           0       10.655591   -2.385193    1.368799
     17          6           0      -11.728064   -0.881722    2.214199
     18          6           0      -12.592979   -2.395570    0.430956
     19          6           0        9.651738    0.349627    0.183197
     20          6           0      -10.086327   -1.059153   -0.413193
     21          6           0       11.172347    0.465352   -2.407927
     22          6           0      -10.675610    1.496164   -1.856933
     23          6           0        9.350335    1.625623   -0.096261
     24          6           0       -8.845152   -0.564428   -0.289544
     25          6           0        8.040142    2.262603    0.093315
     26          6           0       -7.598581   -1.296669   -0.496677
     27          6           0        8.095190    3.727951    0.436342
     28          6           0       -7.688940   -2.742520   -0.898248
     29          6           0        6.895933    1.560059   -0.049939
     30          6           0       -6.431969   -0.635249   -0.319942
     31          6           0        5.544481    2.032930    0.150840
     32          6           0       -5.088779   -1.141238   -0.478261
     33          6           0        4.460690    1.255864   -0.043708
     34          6           0       -3.995801   -0.377937   -0.276697
     35          6           0        3.073953    1.654023    0.133349
     36          6           0       -2.612360   -0.796702   -0.423399
     37          6           0        2.797192    3.065508    0.572906
     38          6           0       -2.345056   -2.216977   -0.839597
     39          6           0        2.104251    0.738362   -0.108749
     40          6           0       -1.636765    0.112942   -0.181729
     41          6           0        0.678312    0.912319   -0.008803
     42          6           0       -0.211314   -0.068945   -0.273601
     43          1           0       13.557282   -0.505648    1.251617
     44          1           0       13.247640   -2.134188    1.848675
     45          1           0      -14.272228   -0.498431    1.627945
     46          1           0      -14.236326   -0.480773   -0.133798
     47          1           0       12.747981   -2.842570   -0.519351
     48          1           0      -12.945387    1.654824    1.605273
     49          1           0       13.790676   -0.112801   -1.291161
     50          1           0       13.085065   -1.317731   -2.343237
     51          1           0      -13.494556    1.636788   -1.370673
     52          1           0      -12.513928    2.779361   -0.481171
     53          1           0       11.713797   -0.782743    3.353393
     54          1           0       10.241348   -0.044901    2.711189
     55          1           0       11.807304    0.712673    2.408653
     56          1           0       10.759974   -3.034203    0.496141
     57          1           0       10.990830   -2.940826    2.250761
     58          1           0        9.589987   -2.180075    1.500569
     59          1           0      -11.581004    0.144289    2.561065
     60          1           0      -10.754908   -1.378446    2.239962
     61          1           0      -12.388411   -1.390948    2.924043
     62          1           0      -13.402188   -2.787483    1.054912
     63          1           0      -11.719517   -3.029717    0.599440
     64          1           0      -12.896421   -2.496920   -0.615262
     65          1           0        8.881759   -0.256796    0.658162
     66          1           0      -10.202680   -2.112757   -0.653672
     67          1           0       10.125806    0.759024   -2.352974
     68          1           0       11.765647    1.367095   -2.602864
     69          1           0       11.307649   -0.185135   -3.278700
     70          1           0      -11.289928    1.867709   -2.685071
     71          1           0       -9.944606    0.793631   -2.253939
     72          1           0      -10.132445    2.363868   -1.464044
     73          1           0       14.934467   -2.900948    0.231071
     74          1           0      -15.255650    1.750863    1.517953
     75          1           0       10.145184    2.276956   -0.456848
     76          1           0       -8.733031    0.479019   -0.001874
     77          1           0        8.721379    4.261474   -0.286966
     78          1           0        7.116105    4.205913    0.441674
     79          1           0        8.552898    3.881132    1.419819
     80          1           0       -8.229699   -3.320712   -0.141608
     81          1           0       -8.242444   -2.849858   -1.836697
     82          1           0       -6.711507   -3.203481   -1.032080
     83          1           0        6.983370    0.522568   -0.366077
     84          1           0       -6.497379    0.411599   -0.026228
     85          1           0        5.406156    3.058517    0.477453
     86          1           0       -4.961796   -2.176926   -0.775997
     87          1           0        4.619013    0.227537   -0.365888
     88          1           0       -4.144956    0.658831    0.022038
     89          1           0        3.272147    3.269580    1.537991
     90          1           0        1.733468    3.273292    0.675918
     91          1           0        3.209782    3.781657   -0.145038
     92          1           0       -2.778632   -2.918529   -0.119556
     93          1           0       -2.804924   -2.428799   -1.810330
     94          1           0       -1.282010   -2.438251   -0.919641
     95          1           0        2.428422   -0.253486   -0.420959
     96          1           0       -1.955994    1.110824    0.116132
     97          1           0        0.292535    1.882936    0.292054
     98          1           0        0.172295   -1.040501   -0.574164
 ---------------------------------------------------------------------

 The electronic state is 1-A.
 Alpha  occ. eigenvalues --  -19.20919 -19.20787 -10.29919 -10.29749 -10.27064
 Alpha  occ. eigenvalues --  -10.27001 -10.26999 -10.26945 -10.26766 -10.26755
 Alpha  occ. eigenvalues --  -10.26244 -10.26190 -10.26105 -10.25925 -10.25921
 Alpha  occ. eigenvalues --  -10.25896 -10.25846 -10.25828 -10.25809 -10.25707
 Alpha  occ. eigenvalues --  -10.25704 -10.25680 -10.25578 -10.25503 -10.25463
 Alpha  occ. eigenvalues --  -10.25438 -10.25412 -10.25378 -10.25351 -10.25334
 Alpha  occ. eigenvalues --  -10.25334 -10.25248 -10.24760 -10.24610 -10.24599
 Alpha  occ. eigenvalues --  -10.24567 -10.24474 -10.24398 -10.24377 -10.24236
 Alpha  occ. eigenvalues --  -10.24116 -10.24082  -1.09358  -1.09218  -0.93472
 Alpha  occ. eigenvalues --   -0.93324  -0.92052  -0.91502  -0.90507  -0.89896
 Alpha  occ. eigenvalues --   -0.87300  -0.86907  -0.86757  -0.85464  -0.84724
 Alpha  occ. eigenvalues --   -0.83165  -0.82099  -0.80200  -0.79818  -0.78320
 Alpha  occ. eigenvalues --   -0.76799  -0.76490  -0.76235  -0.76066  -0.75935
 Alpha  occ. eigenvalues --   -0.75561  -0.75417  -0.75295  -0.74242  -0.70505
 Alpha  occ. eigenvalues --   -0.68756  -0.67327  -0.65739  -0.64873  -0.63986
 Alpha  occ. eigenvalues --   -0.63639  -0.62634  -0.61922  -0.60748  -0.60247
 Alpha  occ. eigenvalues --   -0.59425  -0.58817  -0.58597  -0.57786  -0.56166
 Alpha  occ. eigenvalues --   -0.55559  -0.55150  -0.54883  -0.54520  -0.53823
 Alpha  occ. eigenvalues --   -0.53104  -0.52658  -0.51873  -0.51711  -0.50556
 Alpha  occ. eigenvalues --   -0.50361  -0.50151  -0.49522  -0.49022  -0.48735
 Alpha  occ. eigenvalues --   -0.48702  -0.48611  -0.48587  -0.48449  -0.48336
 Alpha  occ. eigenvalues --   -0.48190  -0.48035  -0.47831  -0.46363  -0.46161
 Alpha  occ. eigenvalues --   -0.46063  -0.45875  -0.45636  -0.45471  -0.45220
 Alpha  occ. eigenvalues --   -0.44847  -0.44735  -0.44444  -0.44304  -0.43941
 Alpha  occ. eigenvalues --   -0.43500  -0.43249  -0.42545  -0.42372  -0.42287
 Alpha  occ. eigenvalues --   -0.42158  -0.42013  -0.41932  -0.41914  -0.41180
 Alpha  occ. eigenvalues --   -0.41005  -0.40678  -0.40274  -0.40175  -0.39765
 Alpha  occ. eigenvalues --   -0.39635  -0.39345  -0.39151  -0.39063  -0.38891
 Alpha  occ. eigenvalues --   -0.38857  -0.38234  -0.36839  -0.36688  -0.36462
 Alpha  occ. eigenvalues --   -0.36108  -0.35079  -0.34041  -0.32419  -0.32151
 Alpha  occ. eigenvalues --   -0.31993  -0.29787  -0.28305  -0.26645  -0.24079
 Alpha  occ. eigenvalues --   -0.20961
 Alpha virt. eigenvalues --   -0.03661   0.00253   0.03535   0.06692   0.08754
 Alpha virt. eigenvalues --    0.10427   0.12088   0.12820   0.12878   0.13455
 Alpha virt. eigenvalues --    0.13680   0.13912   0.14043   0.14377   0.15025

 Mulliken charges:
               1
     1  O   -0.561751
     2  O   -0.562238
     3  C   -0.024902
     4  C   -0.017863
     5  C   -0.186767
     6  C   -0.187410
     7  C    0.167205
     8  C    0.166627
     9  C    0.062789
    10  C    0.059490
    11  C   -0.217648
    12  C   -0.221139
    13  C    0.045456
    14  C    0.050328
    15  C   -0.300096
    16  C   -0.303228
    17  C   -0.299825
    18  C   -0.310244
    19  C   -0.121469
    20  C   -0.159146
    21  C   -0.366401
    22  C   -0.365216
    23  C   -0.105347
    24  C   -0.080130
    25  C    0.078524
    26  C    0.118605
    27  C   -0.372926
    28  C   -0.378889
    29  C   -0.114510
    30  C   -0.133098
    31  C   -0.085155
    32  C   -0.087691
    33  C   -0.111784
    34  C   -0.108744
    35  C    0.123449
    36  C    0.121982
    37  C   -0.380231
    38  C   -0.379903
    39  C   -0.139190
    40  C   -0.138057
    41  C   -0.078295
    42  C   -0.079101
    43  H    0.101044
    44  H    0.072390
    45  H    0.072533
    46  H    0.100068
    47  H    0.075482
    48  H    0.075309
    49  H    0.121435
    50  H    0.104758
    51  H    0.119701
    52  H    0.107055
    53  H    0.094260
    54  H    0.103144
    55  H    0.104350
    56  H    0.104316
    57  H    0.097793
    58  H    0.102130
    59  H    0.100624
    60  H    0.108547
    61  H    0.093499
    62  H    0.098478
    63  H    0.099195
    64  H    0.105155
    65  H    0.088722
    66  H    0.086175
    67  H    0.121803
    68  H    0.113340
    69  H    0.105247
    70  H    0.105747
    71  H    0.120354
    72  H    0.111825
    73  H    0.302426
    74  H    0.302240
    75  H    0.085776
    76  H    0.082690
    77  H    0.117140
    78  H    0.109951
    79  H    0.125195
    80  H    0.120990
    81  H    0.123453
    82  H    0.107076
    83  H    0.078329
    84  H    0.076007
    85  H    0.077918
    86  H    0.078930
    87  H    0.077223
    88  H    0.078162
    89  H    0.123924
    90  H    0.108349
    91  H    0.123648
    92  H    0.123543
    93  H    0.123957
    94  H    0.108569
    95  H    0.076807
    96  H    0.077203
    97  H    0.079983
    98  H    0.079970
 Sum of Mulliken charges =   0.00000

 Dipole moment (field-independent basis, Debye):
    X=              0.2406    Y=             -1.3715    Z=              1.8906  Tot=              2.3480
 Quadrupole moment (field-independent basis, Debye-Ang):
   XX=           -277.3162   YY=           -242.7428   ZZ=           -259.0705
   XY=             10.7844   XZ=             -1.0877   YZ=              1.7664

 Normal termination of Gaussian 09 at Thu Mar 28 18:24:55 2019.
