 Gaussian 16, Revision A.03,
 Gaussian 16:  ES64L-G16RevA.03 25-Dec-2016

 -------------------------------------
 # td=(NStates=1) CAM-B3LYP/6-31G(d,p)
 -------------------------------------

 --
 TD
 --
 Symbolic Z-matrix:
 Charge =  0 Multiplicity = 1

                         Standard orientation:
 ---------------------------------------------------------------------
 Center     Atomic      Atomic             Coordinates (Angstroms)
 Number     Number       Type             X           Y           Z
 ---------------------------------------------------------------------
      1          8           0       14.749488   -2.154319   -0.198574
      2          8           0      -14.718788    1.854747    1.332617
      3          6           0       11.207908   -1.450490    1.048286
      4          6           0      -12.261718   -1.027863    0.680040
      5          6           0       12.664496   -1.896781    1.175005
      6          6           0      -13.598856   -0.255954    0.755406
      7          6           0       13.390184   -1.769729   -0.265425
      8          6           0      -13.534730    1.164608    1.059705
      9          6           0       11.006557   -0.209410    0.056622
     10          6           0      -11.306413   -0.221517   -0.173396
     11          6           0       13.290771   -0.331928   -0.789011
     12          6           0      -12.807980    1.856054   -0.024472
     13          6           0       11.959759    0.293521   -0.723782
     14          6           0      -11.561473    1.085515   -0.531251
     15          6           0       10.790424   -1.194042    2.496628
     16          6           0       10.433194   -2.577410    0.410295
     17          6           0      -11.598694   -1.222005    2.030151
     18          6           0      -12.625657   -2.411932    0.109710
     19          6           0        9.648029    0.305346    0.224262
     20          6           0      -10.073626   -0.968414   -0.565951
     21          6           0       11.827497    1.403333   -1.753278
     22          6           0      -10.677539    1.812451   -1.436902
     23          6           0        9.284838    1.611494    0.247963
     24          6           0       -8.798474   -0.522427   -0.371719
     25          6           0        7.997932    2.183391    0.157189
     26          6           0       -7.537219   -1.145993   -0.713961
     27          6           0        7.906667    3.738372    0.184919
     28          6           0       -7.568914   -2.523832   -1.425204
     29          6           0        6.835650    1.508076    0.094410
     30          6           0       -6.362743   -0.535109   -0.466091
     31          6           0        5.528801    1.968033    0.281007
     32          6           0       -5.088120   -1.008749   -0.707958
     33          6           0        4.389450    1.132824   -0.053153
     34          6           0       -3.918678   -0.316192   -0.394166
     35          6           0        3.109932    1.565823    0.107037
     36          6           0       -2.615211   -0.822651   -0.540720
     37          6           0        2.736758    3.012147    0.391448
     38          6           0       -2.394425   -2.226915   -1.065556
     39          6           0        1.990225    0.596161   -0.089167
     40          6           0       -1.651332    0.134835   -0.366477
     41          6           0        0.652005    0.831248   -0.135846
     42          6           0       -0.258738   -0.076931   -0.459689
     43          1           0       13.186406   -1.312244    1.717340
     44          1           0       12.532399   -2.807866    1.568756
     45          1           0      -14.357536   -0.729010    1.410880
     46          1           0      -14.100873   -0.281006   -0.221611
     47          1           0       12.797084   -2.340369   -1.078547
     48          1           0      -12.808240    1.219250    1.875127
     49          1           0       14.103210    0.286941    0.005464
     50          1           0       13.592503   -0.487829   -2.136443
     51          1           0      -13.443438    1.961790   -0.899159
     52          1           0      -12.410283    2.830386    0.170916
     53          1           0       10.868218   -2.297973    2.694598
     54          1           0        9.807387   -0.654728    2.585589
     55          1           0       11.559457   -0.452701    3.196819
     56          1           0       10.730727   -2.974995   -0.682606
     57          1           0       10.451400   -3.401209    1.091419
     58          1           0        9.238108   -2.254852    0.241031
     59          1           0      -11.249528   -0.218302    2.621943
     60          1           0      -10.578636   -1.620302    1.990824
     61          1           0      -12.344730   -1.924816    2.615182
     62          1           0      -13.484727   -2.770504    0.655192
     63          1           0      -11.840210   -3.290586    0.185423
     64          1           0      -12.805944   -2.439057   -1.086781
     65          1           0        8.654265   -0.328245    0.336031
     66          1           0      -10.227055   -2.042954   -0.937192
     67          1           0       10.855359    1.508372   -1.926539
     68          1           0       12.203793    2.339542   -1.432367
     69          1           0       12.298009    1.134554   -2.737921
     70          1           0      -11.019472    2.369054   -2.067718
     71          1           0       -9.899534    1.102835   -1.953520
     72          1           0      -10.172067    2.693915   -0.998819
     73          1           0       14.815670   -3.139490   -0.076593
     74          1           0      -15.156818    1.203782    2.018416
     75          1           0       10.115389    2.341193    0.054564
     76          1           0       -8.882136    0.530732   -0.005621
     77          1           0        8.947757    4.238003   -0.208861
     78          1           0        6.897210    4.136114   -0.474345
     79          1           0        7.669427    3.986322    1.279145
     80          1           0       -7.805754   -3.235651   -0.630932
     81          1           0       -8.217145   -2.509206   -2.411959
     82          1           0       -6.585901   -2.817175   -1.737112
     83          1           0        6.897100    0.415653   -0.281658
     84          1           0       -6.324064    0.467617    0.097031
     85          1           0        5.442332    3.073257    0.290688
     86          1           0       -5.051486   -2.155733   -1.105872
     87          1           0        4.305068   -0.095305   -0.239614
     88          1           0       -4.112008    0.851103   -0.462812
     89          1           0        3.167279    3.140442    1.376748
     90          1           0        1.718033    3.345718    0.412249
     91          1           0        3.424899    3.576103   -0.343287
     92          1           0       -2.947879   -3.152218   -0.447356
     93          1           0       -2.619927   -2.076127   -2.190366
     94          1           0       -1.314640   -2.628140   -0.909007
     95          1           0        2.424951   -0.497827   -0.247838
     96          1           0       -1.888270    0.991334    0.182609
     97          1           0        0.254844    1.865017    0.147076
     98          1           0       -0.018817   -1.197773   -0.702398
 ---------------------------------------------------------------------

 SCF Done:  E(RCAM-B3LYP) =  -1706.88070738     A.U. after   15 cycles

 Excitation energies and oscillator strengths:

 Excited State   1:      Singlet-A      1.9512 eV  635.43 nm  f=3.6859  <S**2>=0.000
     155 ->158        -0.13619
     156 ->157         0.69807
     156 <-157        -0.10832
 This state for optimization and/or second-order correction.
 Total Energy, E(TD-HF/TD-DFT) =  -1706.80900294
 Copying the excited state density for this state as the 1-particle RhoCI density.

 The electronic state is 1-A.
 Alpha  occ. eigenvalues --  -19.22412 -19.21522 -10.31120 -10.29025 -10.28993
 Alpha  occ. eigenvalues --  -10.28912 -10.28666 -10.28024 -10.27909 -10.27738
 Alpha  occ. eigenvalues --  -10.27659 -10.27585 -10.27532 -10.27278 -10.27101
 Alpha  occ. eigenvalues --  -10.27009 -10.26936 -10.26797 -10.26763 -10.26760
 Alpha  occ. eigenvalues --  -10.26758 -10.26616 -10.26574 -10.26498 -10.26495
 Alpha  occ. eigenvalues --  -10.26449 -10.26381 -10.26380 -10.26316 -10.26205
 Alpha  occ. eigenvalues --  -10.26065 -10.25939 -10.25886 -10.25863 -10.25552
 Alpha  occ. eigenvalues --  -10.25427 -10.25411 -10.24961 -10.24594 -10.23680
 Alpha  occ. eigenvalues --  -10.23289 -10.22754  -1.09800  -1.08859  -0.93998
 Alpha  occ. eigenvalues --   -0.93730  -0.92658  -0.91600  -0.90842  -0.89987
 Alpha  occ. eigenvalues --   -0.88183  -0.87645  -0.87376  -0.85864  -0.84577
 Alpha  occ. eigenvalues --   -0.83189  -0.81539  -0.80428  -0.79446  -0.78294
 Alpha  occ. eigenvalues --   -0.77076  -0.76945  -0.76058  -0.75814  -0.75555
 Alpha  occ. eigenvalues --   -0.75059  -0.74959  -0.74297  -0.73026  -0.70640
 Alpha  occ. eigenvalues --   -0.68918  -0.67399  -0.65851  -0.64867  -0.64138
 Alpha  occ. eigenvalues --   -0.62743  -0.62321  -0.61043  -0.59634  -0.58585
 Alpha  occ. eigenvalues --   -0.58428  -0.58418  -0.58168  -0.57158  -0.56365
 Alpha  occ. eigenvalues --   -0.56169  -0.55767  -0.54546  -0.54170  -0.53448
 Alpha  occ. eigenvalues --   -0.53095  -0.52273  -0.51756  -0.51464  -0.50768
 Alpha  occ. eigenvalues --   -0.50242  -0.49939  -0.49762  -0.49377  -0.49182
 Alpha  occ. eigenvalues --   -0.49068  -0.48668  -0.48466  -0.48218  -0.47799
 Alpha  occ. eigenvalues --   -0.47541  -0.47283  -0.47211  -0.46818  -0.46459
 Alpha  occ. eigenvalues --   -0.45779  -0.45478  -0.45187  -0.45119  -0.44734
 Alpha  occ. eigenvalues --   -0.44523  -0.44330  -0.44180  -0.43237  -0.43060
 Alpha  occ. eigenvalues --   -0.42595  -0.42546  -0.42363  -0.42087  -0.41457
 Alpha  occ. eigenvalues --   -0.41159  -0.41097  -0.40698  -0.40639  -0.40522
 Alpha  occ. eigenvalues --   -0.40426  -0.40070  -0.39617  -0.39274  -0.39229
 Alpha  occ. eigenvalues --   -0.38923  -0.38586  -0.38221  -0.38111  -0.37881
 Alpha  occ. eigenvalues --   -0.37235  -0.37079  -0.37051  -0.36597  -0.36292
 Alpha  occ. eigenvalues --   -0.35885  -0.35146  -0.34222  -0.32212  -0.32013
 Alpha  occ. eigenvalues --   -0.30913  -0.29960  -0.28207  -0.26568  -0.23314
 Alpha  occ. eigenvalues --   -0.18679
 Alpha virt. eigenvalues --   -0.06771  -0.01318   0.02710   0.05677   0.07934
 Alpha virt. eigenvalues --    0.09027   0.09530   0.10791   0.11067   0.11557
 Alpha virt. eigenvalues --    0.11608   0.12315   0.12698   0.12703   0.12825

 Mulliken charges:
               1
     1  O   -0.555853
     2  O   -0.554739
     3  C   -0.051528
     4  C    0.008476
     5  C   -0.144278
     6  C   -0.196959
     7  C    0.159578
     8  C    0.185337
     9  C    0.070999
    10  C    0.029439
    11  C   -0.195890
    12  C   -0.219508
    13  C    0.055832
    14  C    0.062893
    15  C   -0.264098
    16  C   -0.286211
    17  C   -0.285523
    18  C   -0.305944
    19  C   -0.128121
    20  C   -0.149808
    21  C   -0.351126
    22  C   -0.358229
    23  C   -0.096198
    24  C   -0.094327
    25  C    0.096032
    26  C    0.081723
    27  C   -0.353233
    28  C   -0.362945
    29  C   -0.111429
    30  C   -0.098314
    31  C   -0.129253
    32  C   -0.093824
    33  C   -0.114713
    34  C   -0.140139
    35  C    0.115880
    36  C    0.113130
    37  C   -0.366386
    38  C   -0.359408
    39  C   -0.138074
    40  C   -0.127406
    41  C   -0.078247
    42  C   -0.063421
    43  H    0.105369
    44  H    0.081020
    45  H    0.064252
    46  H    0.102930
    47  H    0.063570
    48  H    0.070572
    49  H    0.086408
    50  H    0.057321
    51  H    0.114210
    52  H    0.108580
    53  H    0.092297
    54  H    0.112784
    55  H    0.078628
    56  H    0.102561
    57  H    0.098836
    58  H    0.079750
    59  H    0.087321
    60  H    0.121001
    61  H    0.080174
    62  H    0.108693
    63  H    0.090932
    64  H    0.093600
    65  H    0.085746
    66  H    0.082603
    67  H    0.126595
    68  H    0.123052
    69  H    0.101096
    70  H    0.110164
    71  H    0.116352
    72  H    0.093568
    73  H    0.311702
    74  H    0.305809
    75  H    0.068225
    76  H    0.092412
    77  H    0.098346
    78  H    0.087180
    79  H    0.126565
    80  H    0.128757
    81  H    0.113396
    82  H    0.110362
    83  H    0.075662
    84  H    0.079099
    85  H    0.089528
    86  H    0.073741
    87  H    0.080822
    88  H    0.091140
    89  H    0.132471
    90  H    0.115795
    91  H    0.111261
    92  H    0.107593
    93  H    0.136762
    94  H    0.105708
    95  H    0.067557
    96  H    0.088788
    97  H    0.084225
    98  H    0.072919
 Sum of Mulliken charges =  -0.00000

 Dipole moment (field-independent basis, Debye):
    X=             -1.1359    Y=             -2.5458    Z=              0.1544  Tot=              2.7920
 Quadrupole moment (field-independent basis, Debye-Ang):
   XX=           -293.9673   YY=           -243.0413   ZZ=           -262.9434
   XY=              7.7403   XZ=             -3.1527   YZ=              0.8778

 Normal termination of Gaussian 16 at Thu Jul 18 07:31:11 2019.
