 Gaussian 16, Revision A.03,
 Gaussian 16:  ES64L-G16RevA.03 25-Dec-2016

 -------------------------------------
 # td=(NStates=1) CAM-B3LYP/6-31G(d,p)
 -------------------------------------

 --
 TD
 --
 Symbolic Z-matrix:
 Charge =  0 Multiplicity = 1

                         Standard orientation:
 ---------------------------------------------------------------------
 Center     Atomic      Atomic             Coordinates (Angstroms)
 Number     Number       Type             X           Y           Z
 ---------------------------------------------------------------------
      1          8           0       14.705772   -2.233683   -0.156795
      2          8           0      -14.701125    1.976845    0.954798
      3          6           0       11.204932   -1.271321    1.090188
      4          6           0      -12.307542   -0.979048    0.732372
      5          6           0       12.696584   -1.627239    1.119961
      6          6           0      -13.706333   -0.145559    0.686122
      7          6           0       13.285400   -1.917025   -0.241384
      8          6           0      -13.465336    1.358506    0.961444
      9          6           0       10.950079   -0.195337    0.097860
     10          6           0      -11.251033   -0.193683   -0.077944
     11          6           0       13.163121   -0.618703   -1.004069
     12          6           0      -12.715822    1.853863   -0.229467
     13          6           0       11.820205    0.094909   -0.877757
     14          6           0      -11.462291    1.096415   -0.546439
     15          6           0       10.751918   -0.802974    2.535964
     16          6           0       10.561469   -2.601805    0.793421
     17          6           0      -11.925510   -1.275715    2.147933
     18          6           0      -12.566583   -2.306687    0.054011
     19          6           0        9.663315    0.369223    0.140154
     20          6           0       -9.995373   -0.940138   -0.301335
     21          6           0       11.561116    1.064028   -2.039197
     22          6           0      -10.518010    1.946980   -1.434906
     23          6           0        9.346898    1.749843   -0.062317
     24          6           0       -8.741142   -0.468212   -0.329910
     25          6           0        8.073356    2.362220    0.123783
     26          6           0       -7.614648   -1.302963   -0.608682
     27          6           0        8.015722    3.862546    0.406692
     28          6           0       -7.771336   -2.717793   -0.993475
     29          6           0        6.874708    1.677542    0.049274
     30          6           0       -6.336322   -0.629738   -0.453487
     31          6           0        5.578528    2.084110    0.286040
     32          6           0       -5.042422   -1.221409   -0.628508
     33          6           0        4.504616    1.208421    0.073184
     34          6           0       -3.901153   -0.542429   -0.525643
     35          6           0        3.082534    1.626473    0.175960
     36          6           0       -2.627176   -1.027446   -0.735362
     37          6           0        2.689142    2.949945    0.565905
     38          6           0       -2.331101   -2.401278   -1.142284
     39          6           0        2.081644    0.586909   -0.243682
     40          6           0       -1.560607   -0.073835   -0.436603
     41          6           0        0.733125    0.795292   -0.225423
     42          6           0       -0.225297   -0.216328   -0.519553
     43          1           0       13.329292   -0.850018    1.512100
     44          1           0       12.708478   -2.487641    1.899326
     45          1           0      -14.243680   -0.568544    1.630100
     46          1           0      -14.057931   -0.402913   -0.343736
     47          1           0       12.761898   -2.543300   -0.852301
     48          1           0      -13.129378    1.183071    1.835011
     49          1           0       13.771890    0.077939   -0.737240
     50          1           0       13.373457   -0.709796   -2.001012
     51          1           0      -13.343454    1.855870   -1.092447
     52          1           0      -12.465890    2.927880   -0.127276
     53          1           0       10.901370   -1.634690    3.206112
     54          1           0        9.810177   -0.671223    2.688365
     55          1           0       11.357244    0.205690    2.804528
     56          1           0       10.860176   -3.095275   -0.150126
     57          1           0       10.653786   -3.476872    1.144548
     58          1           0        9.584281   -2.492027    0.668186
     59          1           0      -11.871147   -0.410471    2.766943
     60          1           0      -10.898245   -1.589580    2.200061
     61          1           0      -12.517205   -2.024416    2.717661
     62          1           0      -13.746442   -2.542178    0.123091
     63          1           0      -11.989069   -3.149110    0.511036
     64          1           0      -12.560864   -1.992180   -0.978850
     65          1           0        8.991641   -0.131263    0.681167
     66          1           0      -10.100474   -2.064346   -0.350633
     67          1           0       10.493808    1.081098   -2.402131
     68          1           0       12.027859    1.857837   -1.916724
     69          1           0       11.991747    0.634627   -3.061483
     70          1           0      -11.349317    2.427334   -2.126790
     71          1           0       -9.882705    1.418615   -2.035413
     72          1           0       -9.918126    2.738961   -0.978711
     73          1           0       14.762369   -2.901824    0.571233
     74          1           0      -15.059505    1.415368    1.734163
     75          1           0       10.025143    2.413332   -0.307765
     76          1           0       -8.588322    0.662146   -0.045912
     77          1           0        9.146156    4.175847    0.511310
     78          1           0        7.487062    4.487999   -0.351456
     79          1           0        7.589985    3.904519    1.409802
     80          1           0       -8.332165   -3.039363   -0.123522
     81          1           0       -8.372913   -2.865808   -1.863798
     82          1           0       -6.787149   -3.261123   -1.110574
     83          1           0        6.902928    0.774409   -0.306621
     84          1           0       -6.043839    0.441481    0.030808
     85          1           0        5.254633    3.038440    0.436273
     86          1           0       -4.826765   -2.081394   -1.184433
     87          1           0        4.762687    0.184001   -0.198797
     88          1           0       -3.922330    0.534868   -0.320214
     89          1           0        3.056802    3.275521    1.497931
     90          1           0        1.637166    3.069875    0.732656
     91          1           0        3.012298    3.619613   -0.328673
     92          1           0       -2.943441   -3.097637   -0.387385
     93          1           0       -2.575629   -2.461492   -2.232940
     94          1           0       -1.310589   -2.357232   -0.920405
     95          1           0        2.492705   -0.348003   -0.654453
     96          1           0       -2.166320    0.897558   -0.108239
     97          1           0        0.446882    1.837516    0.241946
     98          1           0        0.331536   -1.100342   -0.635355
 ---------------------------------------------------------------------

 SCF Done:  E(RCAM-B3LYP) =  -1706.89760996     A.U. after   16 cycles

 Excitation energies and oscillator strengths:

 Excited State   1:      Singlet-A      1.7495 eV  708.68 nm  f=3.7027  <S**2>=0.000
     155 ->158         0.13326
     156 ->157         0.70150
     156 <-157        -0.12627
 This state for optimization and/or second-order correction.
 Total Energy, E(TD-HF/TD-DFT) =  -1706.83331664
 Copying the excited state density for this state as the 1-particle RhoCI density.

 The electronic state is 1-A.
 Alpha  occ. eigenvalues --  -19.21439 -19.21309 -10.29570 -10.28799 -10.28414
 Alpha  occ. eigenvalues --  -10.27867 -10.27691 -10.27531 -10.27176 -10.26931
 Alpha  occ. eigenvalues --  -10.26902 -10.26857 -10.26805 -10.26702 -10.26659
 Alpha  occ. eigenvalues --  -10.26635 -10.26484 -10.26302 -10.26152 -10.26022
 Alpha  occ. eigenvalues --  -10.26011 -10.25839 -10.25802 -10.25762 -10.25597
 Alpha  occ. eigenvalues --  -10.25524 -10.25368 -10.25332 -10.25331 -10.25319
 Alpha  occ. eigenvalues --  -10.25285 -10.25220 -10.24955 -10.24854 -10.24826
 Alpha  occ. eigenvalues --  -10.24544 -10.24508 -10.24397 -10.23903 -10.23693
 Alpha  occ. eigenvalues --  -10.22757 -10.22246  -1.10760  -1.08075  -0.94872
 Alpha  occ. eigenvalues --   -0.93132  -0.92425  -0.91622  -0.90443  -0.89951
 Alpha  occ. eigenvalues --   -0.87936  -0.87608  -0.87139  -0.86197  -0.84757
 Alpha  occ. eigenvalues --   -0.83639  -0.82804  -0.80654  -0.80009  -0.79146
 Alpha  occ. eigenvalues --   -0.78819  -0.76980  -0.76915  -0.76696  -0.76585
 Alpha  occ. eigenvalues --   -0.76066  -0.75664  -0.75237  -0.72673  -0.71108
 Alpha  occ. eigenvalues --   -0.69577  -0.67715  -0.67501  -0.66141  -0.65599
 Alpha  occ. eigenvalues --   -0.64042  -0.62559  -0.61684  -0.61038  -0.60233
 Alpha  occ. eigenvalues --   -0.59883  -0.59173  -0.59082  -0.57600  -0.56485
 Alpha  occ. eigenvalues --   -0.55572  -0.55090  -0.54523  -0.54152  -0.53750
 Alpha  occ. eigenvalues --   -0.53493  -0.52789  -0.52627  -0.52212  -0.51946
 Alpha  occ. eigenvalues --   -0.51233  -0.50831  -0.50363  -0.50005  -0.49966
 Alpha  occ. eigenvalues --   -0.49692  -0.49631  -0.49198  -0.49034  -0.48707
 Alpha  occ. eigenvalues --   -0.48350  -0.48193  -0.47937  -0.47686  -0.46574
 Alpha  occ. eigenvalues --   -0.46416  -0.45795  -0.45513  -0.45409  -0.45037
 Alpha  occ. eigenvalues --   -0.44698  -0.44346  -0.44289  -0.44126  -0.43524
 Alpha  occ. eigenvalues --   -0.43080  -0.42988  -0.42904  -0.42597  -0.42475
 Alpha  occ. eigenvalues --   -0.42156  -0.42074  -0.41251  -0.41067  -0.40776
 Alpha  occ. eigenvalues --   -0.40512  -0.40391  -0.39922  -0.39676  -0.39498
 Alpha  occ. eigenvalues --   -0.39028  -0.38871  -0.38487  -0.38443  -0.38287
 Alpha  occ. eigenvalues --   -0.37829  -0.37617  -0.37331  -0.36837  -0.36159
 Alpha  occ. eigenvalues --   -0.36010  -0.35165  -0.34215  -0.32870  -0.32408
 Alpha  occ. eigenvalues --   -0.30341  -0.30027  -0.28520  -0.25310  -0.22615
 Alpha  occ. eigenvalues --   -0.17555
 Alpha virt. eigenvalues --   -0.06955  -0.01222   0.01903   0.06011   0.08289
 Alpha virt. eigenvalues --    0.10075   0.11001   0.11742   0.12568   0.12824
 Alpha virt. eigenvalues --    0.12996   0.13382   0.13733   0.14143   0.14334

 Mulliken charges:
               1
     1  O   -0.572252
     2  O   -0.540594
     3  C   -0.052993
     4  C   -0.003572
     5  C   -0.201497
     6  C   -0.230700
     7  C    0.175396
     8  C    0.206251
     9  C    0.129132
    10  C    0.051030
    11  C   -0.202682
    12  C   -0.237083
    13  C   -0.006671
    14  C    0.038287
    15  C   -0.290248
    16  C   -0.301075
    17  C   -0.325320
    18  C   -0.310128
    19  C   -0.117221
    20  C   -0.148071
    21  C   -0.355704
    22  C   -0.355065
    23  C   -0.088010
    24  C   -0.067396
    25  C    0.052809
    26  C    0.066063
    27  C   -0.365876
    28  C   -0.365535
    29  C   -0.088832
    30  C   -0.132569
    31  C   -0.065313
    32  C   -0.095550
    33  C   -0.122900
    34  C   -0.099511
    35  C    0.078066
    36  C    0.086589
    37  C   -0.378551
    38  C   -0.355731
    39  C   -0.118130
    40  C   -0.107774
    41  C   -0.074383
    42  C   -0.119785
    43  H    0.102519
    44  H    0.067180
    45  H    0.063600
    46  H    0.096758
    47  H    0.095871
    48  H    0.081218
    49  H    0.127953
    50  H    0.106999
    51  H    0.131603
    52  H    0.108359
    53  H    0.095286
    54  H    0.114785
    55  H    0.088982
    56  H    0.084671
    57  H    0.112819
    58  H    0.102806
    59  H    0.101056
    60  H    0.108328
    61  H    0.101809
    62  H    0.080772
    63  H    0.106639
    64  H    0.116227
    65  H    0.081743
    66  H    0.077437
    67  H    0.127954
    68  H    0.134142
    69  H    0.080406
    70  H    0.086916
    71  H    0.130930
    72  H    0.122104
    73  H    0.306093
    74  H    0.297282
    75  H    0.070231
    76  H    0.089366
    77  H    0.088275
    78  H    0.125372
    79  H    0.132665
    80  H    0.130978
    81  H    0.133181
    82  H    0.114415
    83  H    0.061047
    84  H    0.077402
    85  H    0.073301
    86  H    0.075718
    87  H    0.081472
    88  H    0.066211
    89  H    0.132582
    90  H    0.115440
    91  H    0.124717
    92  H    0.109774
    93  H    0.128889
    94  H    0.117970
    95  H    0.082139
    96  H    0.073189
    97  H    0.072890
    98  H    0.094631
 Sum of Mulliken charges =  -0.00000

 Dipole moment (field-independent basis, Debye):
    X=              1.1831    Y=             -1.4381    Z=              1.5026  Tot=              2.3928
 Quadrupole moment (field-independent basis, Debye-Ang):
   XX=           -295.7116   YY=           -244.8130   ZZ=           -257.1017
   XY=             15.3347   XZ=             -3.4130   YZ=             -1.1443

 Normal termination of Gaussian 16 at Sat Jul 13 10:56:50 2019.
