 Gaussian 16, Revision A.03,
 Gaussian 16:  ES64L-G16RevA.03 25-Dec-2016

 -------------------------------------
 # td=(NStates=1) CAM-B3LYP/6-31G(d,p)
 -------------------------------------

 --
 TD
 --
 Symbolic Z-matrix:
 Charge =  0 Multiplicity = 1

                         Standard orientation:
 ---------------------------------------------------------------------
 Center     Atomic      Atomic             Coordinates (Angstroms)
 Number     Number       Type             X           Y           Z
 ---------------------------------------------------------------------
      1          8           0       14.741051   -2.247050   -0.499327
      2          8           0      -14.764929    2.021147    1.065076
      3          6           0       11.304526   -1.461891    0.997885
      4          6           0      -12.357838   -1.038811    0.643353
      5          6           0       12.736303   -1.901003    0.943433
      6          6           0      -13.815123   -0.304838    0.785579
      7          6           0       13.330645   -1.921017   -0.463469
      8          6           0      -13.553559    1.219693    1.076833
      9          6           0       11.121298   -0.180369    0.129616
     10          6           0      -11.288730   -0.230286   -0.101436
     11          6           0       13.216125   -0.487006   -0.976669
     12          6           0      -12.798673    1.757103   -0.213878
     13          6           0       11.903633    0.209515   -0.823678
     14          6           0      -11.491891    0.991658   -0.577146
     15          6           0       11.055455   -1.153893    2.465086
     16          6           0       10.277688   -2.613259    0.549090
     17          6           0      -11.721098   -1.303654    2.118392
     18          6           0      -12.664670   -2.389438   -0.044109
     19          6           0        9.760122    0.363372    0.332407
     20          6           0      -10.017440   -0.937334   -0.461201
     21          6           0       11.773318    1.463357   -1.731247
     22          6           0      -10.696345    1.724360   -1.677948
     23          6           0        9.414177    1.754496    0.113217
     24          6           0       -8.760782   -0.423188   -0.442290
     25          6           0        8.033705    2.261603    0.148108
     26          6           0       -7.579847   -1.190412   -0.698723
     27          6           0        7.913587    3.762327    0.276644
     28          6           0       -7.725765   -2.669525   -1.061126
     29          6           0        6.842215    1.424560    0.282589
     30          6           0       -6.403245   -0.454422   -0.610330
     31          6           0        5.609728    1.942917    0.303909
     32          6           0       -5.087621   -1.042222   -0.621229
     33          6           0        4.461369    1.179703    0.181665
     34          6           0       -3.979874   -0.353197   -0.467398
     35          6           0        3.060658    1.541649    0.272004
     36          6           0       -2.601797   -0.749768   -0.505622
     37          6           0        2.726059    3.033333    0.473645
     38          6           0       -2.402772   -2.237845   -0.893316
     39          6           0        2.054081    0.718575   -0.151658
     40          6           0       -1.568104    0.207289   -0.325469
     41          6           0        0.667376    0.888864   -0.117016
     42          6           0       -0.186158   -0.147332   -0.346052
     43          1           0       13.370388   -1.260047    1.582983
     44          1           0       12.722624   -2.856197    1.323519
     45          1           0      -14.190160   -0.686732    1.811263
     46          1           0      -14.509037   -0.493155   -0.070933
     47          1           0       12.658744   -2.445360   -1.260072
     48          1           0      -12.995901    1.368182    1.966069
     49          1           0       14.027884   -0.010327   -0.394484
     50          1           0       13.545150   -0.372183   -2.044358
     51          1           0      -13.520540    1.911251   -1.045556
     52          1           0      -12.363157    2.741094   -0.002214
     53          1           0       11.300592   -1.972067    3.219389
     54          1           0       10.035920   -0.755797    2.747894
     55          1           0       11.454751   -0.080349    2.756739
     56          1           0       10.649035   -2.972307   -0.501943
     57          1           0       10.554096   -3.324024    1.478814
     58          1           0        9.368696   -2.312873    0.572165
     59          1           0      -11.750378   -0.386140    2.827310
     60          1           0      -10.741938   -1.742947    2.183963
     61          1           0      -12.429555   -2.103184    2.575562
     62          1           0      -13.535366   -2.836617    0.544900
     63          1           0      -11.825043   -3.070431   -0.221980
     64          1           0      -12.845944   -2.198602   -1.026515
     65          1           0        8.837278   -0.127975    0.780041
     66          1           0      -10.057061   -1.872718   -0.724296
     67          1           0       10.899138    1.476817   -2.068973
     68          1           0       12.135029    2.376674   -1.226926
     69          1           0       12.465253    1.131747   -2.552938
     70          1           0      -11.390964    2.328495   -2.391333
     71          1           0      -10.138772    1.015701   -2.204114
     72          1           0      -10.079876    2.509612   -1.373958
     73          1           0       14.832675   -3.319770   -0.408754
     74          1           0      -15.377814    1.441323    1.659088
     75          1           0       10.151892    2.410162   -0.281898
     76          1           0       -8.687949    0.585732   -0.195775
     77          1           0        8.974435    4.133145    0.079530
     78          1           0        7.374159    4.105787   -0.556193
     79          1           0        7.561883    4.230251    1.277004
     80          1           0       -8.398134   -3.121493   -0.343553
     81          1           0       -7.974697   -3.142840   -2.095084
     82          1           0       -6.647178   -3.087179   -0.894937
     83          1           0        6.744169    0.282484    0.477106
     84          1           0       -6.260611    0.574576   -0.215673
     85          1           0        5.444847    3.073889    0.466271
     86          1           0       -4.936979   -2.045632   -1.084342
     87          1           0        4.689009    0.111752    0.110322
     88          1           0       -3.970465    0.730333   -0.257731
     89          1           0        3.399197    3.463693    1.383145
     90          1           0        1.734318    3.102617    0.811560
     91          1           0        2.882275    3.817271   -0.427158
     92          1           0       -2.763571   -3.035355   -0.270581
     93          1           0       -3.107313   -2.331346   -1.698762
     94          1           0       -1.263795   -2.231945   -1.134309
     95          1           0        2.361864   -0.243954   -0.397187
     96          1           0       -2.032045    1.223092   -0.175881
     97          1           0        0.299208    1.742102   -0.003952
     98          1           0        0.146342   -1.163001   -0.302924
 ---------------------------------------------------------------------

 SCF Done:  E(RCAM-B3LYP) =  -1706.98981045     A.U. after   15 cycles

 Excitation energies and oscillator strengths:

 Excited State   1:      Singlet-A      2.2051 eV  562.27 nm  f=3.5232  <S**2>=0.000
     155 ->158        -0.16720
     156 ->157         0.68529
 This state for optimization and/or second-order correction.
 Total Energy, E(TD-HF/TD-DFT) =  -1706.90877613
 Copying the excited state density for this state as the 1-particle RhoCI density.

 The electronic state is 1-A.
 Alpha  occ. eigenvalues --  -19.22814 -19.21468 -10.31054 -10.30415 -10.28926
 Alpha  occ. eigenvalues --  -10.28459 -10.27916 -10.27519 -10.27432 -10.27412
 Alpha  occ. eigenvalues --  -10.27330 -10.27276 -10.27244 -10.27180 -10.26802
 Alpha  occ. eigenvalues --  -10.26663 -10.26659 -10.26576 -10.26304 -10.26201
 Alpha  occ. eigenvalues --  -10.26076 -10.26048 -10.25996 -10.25910 -10.25896
 Alpha  occ. eigenvalues --  -10.25883 -10.25785 -10.25740 -10.25667 -10.25659
 Alpha  occ. eigenvalues --  -10.25395 -10.25377 -10.25073 -10.24818 -10.24802
 Alpha  occ. eigenvalues --  -10.24758 -10.24707 -10.24698 -10.24532 -10.24393
 Alpha  occ. eigenvalues --  -10.24256 -10.24087  -1.07367  -1.07324  -0.94049
 Alpha  occ. eigenvalues --   -0.92541  -0.92227  -0.91319  -0.90437  -0.89372
 Alpha  occ. eigenvalues --   -0.87851  -0.87280  -0.85700  -0.85190  -0.84088
 Alpha  occ. eigenvalues --   -0.83089  -0.81792  -0.79760  -0.79232  -0.77965
 Alpha  occ. eigenvalues --   -0.77250  -0.76489  -0.76158  -0.76097  -0.75613
 Alpha  occ. eigenvalues --   -0.75224  -0.75015  -0.74230  -0.73571  -0.70403
 Alpha  occ. eigenvalues --   -0.68909  -0.67236  -0.65435  -0.65008  -0.64443
 Alpha  occ. eigenvalues --   -0.64109  -0.63523  -0.62554  -0.60643  -0.59965
 Alpha  occ. eigenvalues --   -0.59638  -0.58580  -0.58258  -0.57406  -0.56347
 Alpha  occ. eigenvalues --   -0.55755  -0.54882  -0.54492  -0.54137  -0.53392
 Alpha  occ. eigenvalues --   -0.52992  -0.51975  -0.51789  -0.50969  -0.50442
 Alpha  occ. eigenvalues --   -0.49943  -0.49895  -0.49646  -0.49373  -0.49273
 Alpha  occ. eigenvalues --   -0.48806  -0.48688  -0.48450  -0.48083  -0.47675
 Alpha  occ. eigenvalues --   -0.47258  -0.46913  -0.46680  -0.46466  -0.46378
 Alpha  occ. eigenvalues --   -0.46312  -0.46009  -0.45325  -0.44956  -0.44929
 Alpha  occ. eigenvalues --   -0.44634  -0.44574  -0.43988  -0.43719  -0.43561
 Alpha  occ. eigenvalues --   -0.43347  -0.43120  -0.43028  -0.42672  -0.42277
 Alpha  occ. eigenvalues --   -0.42223  -0.42056  -0.41456  -0.41346  -0.40899
 Alpha  occ. eigenvalues --   -0.40704  -0.40391  -0.39817  -0.39621  -0.39411
 Alpha  occ. eigenvalues --   -0.38965  -0.38753  -0.38457  -0.38331  -0.38113
 Alpha  occ. eigenvalues --   -0.37434  -0.36945  -0.36573  -0.36505  -0.35599
 Alpha  occ. eigenvalues --   -0.35248  -0.34531  -0.33695  -0.32811  -0.32532
 Alpha  occ. eigenvalues --   -0.32205  -0.30130  -0.28791  -0.26176  -0.22901
 Alpha  occ. eigenvalues --   -0.19423
 Alpha virt. eigenvalues --   -0.05662  -0.01521   0.02329   0.06106   0.08235
 Alpha virt. eigenvalues --    0.09872   0.10248   0.11734   0.11805   0.11946
 Alpha virt. eigenvalues --    0.12285   0.12542   0.12685   0.13217   0.13696

 Mulliken charges:
               1
     1  O   -0.564771
     2  O   -0.559477
     3  C   -0.029815
     4  C   -0.013636
     5  C   -0.158535
     6  C   -0.214313
     7  C    0.145966
     8  C    0.156786
     9  C    0.085025
    10  C    0.076750
    11  C   -0.221971
    12  C   -0.220583
    13  C    0.015757
    14  C    0.028262
    15  C   -0.319139
    16  C   -0.264297
    17  C   -0.308948
    18  C   -0.308601
    19  C   -0.125841
    20  C   -0.133025
    21  C   -0.330922
    22  C   -0.361779
    23  C   -0.123156
    24  C   -0.065313
    25  C    0.043310
    26  C    0.098357
    27  C   -0.365434
    28  C   -0.374512
    29  C   -0.114877
    30  C   -0.128769
    31  C   -0.048081
    32  C   -0.090817
    33  C   -0.135284
    34  C   -0.101856
    35  C    0.087460
    36  C    0.089392
    37  C   -0.359149
    38  C   -0.369017
    39  C   -0.108996
    40  C   -0.134451
    41  C   -0.027553
    42  C   -0.093511
    43  H    0.110869
    44  H    0.079107
    45  H    0.078953
    46  H    0.114654
    47  H    0.071934
    48  H    0.096195
    49  H    0.119450
    50  H    0.090661
    51  H    0.116944
    52  H    0.103786
    53  H    0.101794
    54  H    0.097883
    55  H    0.095804
    56  H    0.092754
    57  H    0.081283
    58  H    0.118770
    59  H    0.093910
    60  H    0.120621
    61  H    0.077810
    62  H    0.101052
    63  H    0.098564
    64  H    0.119108
    65  H    0.096923
    66  H    0.057822
    67  H    0.135760
    68  H    0.128837
    69  H    0.093310
    70  H    0.094584
    71  H    0.128211
    72  H    0.121296
    73  H    0.311191
    74  H    0.299214
    75  H    0.081804
    76  H    0.078642
    77  H    0.097440
    78  H    0.134648
    79  H    0.123480
    80  H    0.127060
    81  H    0.121350
    82  H    0.099968
    83  H    0.084315
    84  H    0.092133
    85  H    0.080892
    86  H    0.070023
    87  H    0.065672
    88  H    0.058423
    89  H    0.086493
    90  H    0.117585
    91  H    0.109229
    92  H    0.127050
    93  H    0.124255
    94  H    0.095383
    95  H    0.067791
    96  H    0.091284
    97  H    0.060065
    98  H    0.105324
 Sum of Mulliken charges =  -0.00000

 Dipole moment (field-independent basis, Debye):
    X=              0.4854    Y=             -2.4270    Z=              0.5266  Tot=              2.5304
 Quadrupole moment (field-independent basis, Debye-Ang):
   XX=           -271.8617   YY=           -243.5032   ZZ=           -262.0051
   XY=             14.5463   XZ=             -4.7328   YZ=              0.8037

 Normal termination of Gaussian 16 at Fri Jul 19 16:56:02 2019.
