 Gaussian 16, Revision A.03,
 Gaussian 16:  ES64L-G16RevA.03 25-Dec-2016

 -------------------------------------
 # td=(NStates=1) CAM-B3LYP/6-31G(d,p)
 -------------------------------------

 --
 TD
 --
 Symbolic Z-matrix:
 Charge =  0 Multiplicity = 1

                         Standard orientation:
 ---------------------------------------------------------------------
 Center     Atomic      Atomic             Coordinates (Angstroms)
 Number     Number       Type             X           Y           Z
 ---------------------------------------------------------------------
      1          8           0       14.726556   -2.274191   -0.119193
      2          8           0      -14.729180    1.937446    0.892079
      3          6           0       11.152956   -1.485145    0.929880
      4          6           0      -12.321656   -1.018792    0.568186
      5          6           0       12.602800   -1.821414    1.104287
      6          6           0      -13.583921   -0.248448    0.574443
      7          6           0       13.271847   -1.938828   -0.271536
      8          6           0      -13.447866    1.202509    0.801433
      9          6           0       10.873988   -0.291404   -0.170535
     10          6           0      -11.299315   -0.257724   -0.159779
     11          6           0       13.334487   -0.566639   -1.021345
     12          6           0      -12.732617    1.737500   -0.315427
     13          6           0       11.926136    0.044894   -1.021296
     14          6           0      -11.414979    0.993507   -0.715746
     15          6           0       10.709807   -0.959208    2.299573
     16          6           0       10.400261   -2.680797    0.489201
     17          6           0      -11.798689   -1.203081    2.013288
     18          6           0      -12.649727   -2.387125   -0.061888
     19          6           0        9.647233    0.374337   -0.057609
     20          6           0      -10.107866   -1.013144   -0.416966
     21          6           0       11.692375    1.106370   -2.074244
     22          6           0      -10.543512    1.714240   -1.590355
     23          6           0        9.347322    1.698955   -0.086103
     24          6           0       -8.802527   -0.548498   -0.299673
     25          6           0        8.089091    2.291853    0.036724
     26          6           0       -7.622981   -1.236754   -0.576569
     27          6           0        8.082757    3.805739    0.541444
     28          6           0       -7.598874   -2.664540   -1.112312
     29          6           0        6.908352    1.545986   -0.004219
     30          6           0       -6.459649   -0.581982   -0.303494
     31          6           0        5.551888    1.988367    0.260169
     32          6           0       -5.080851   -0.991984   -0.556106
     33          6           0        4.475724    1.228414    0.072849
     34          6           0       -4.005452   -0.290734   -0.218939
     35          6           0        3.110696    1.662128    0.188537
     36          6           0       -2.618796   -0.767416   -0.375035
     37          6           0        2.941618    3.128885    0.668235
     38          6           0       -2.338402   -2.267970   -0.665157
     39          6           0        2.031465    0.867104   -0.025666
     40          6           0       -1.616055    0.221326   -0.173226
     41          6           0        0.706513    1.036864    0.144800
     42          6           0       -0.230178    0.011078   -0.158899
     43          1           0       13.275301   -1.047434    1.756693
     44          1           0       12.658301   -2.778734    1.649722
     45          1           0      -14.093887   -0.629512    1.360721
     46          1           0      -14.116578   -0.331433   -0.344987
     47          1           0       12.771421   -2.561492   -0.819481
     48          1           0      -12.733098    1.334398    1.619803
     49          1           0       13.998524   -0.009241   -0.436752
     50          1           0       13.789366   -0.619546   -2.052492
     51          1           0      -13.550317    2.063876   -1.123374
     52          1           0      -12.366086    2.644337    0.216108
     53          1           0       10.675492   -1.756989    3.056204
     54          1           0        9.617474   -0.768292    2.346658
     55          1           0       11.137245    0.065324    2.624543
     56          1           0       10.625413   -3.276323   -0.545804
     57          1           0       10.496156   -3.503847    1.301381
     58          1           0        9.262402   -2.340211    0.335084
     59          1           0      -11.622179   -0.225918    2.623325
     60          1           0      -11.076798   -1.967779    1.998530
     61          1           0      -12.619289   -1.787469    2.682424
     62          1           0      -13.598585   -2.787827    0.495903
     63          1           0      -12.068667   -3.202801    0.103019
     64          1           0      -12.772616   -2.328717   -1.324441
     65          1           0        8.762534   -0.440795   -0.005678
     66          1           0      -10.367915   -2.103603   -0.500440
     67          1           0       10.582259    1.173963   -2.136486
     68          1           0       12.191573    2.201359   -1.725749
     69          1           0       12.171961    0.901976   -3.058912
     70          1           0      -11.046666    2.033954   -2.575525
     71          1           0       -9.723932    1.305206   -1.974491
     72          1           0      -10.104158    2.628384   -0.980074
     73          1           0       14.656600   -2.991930    0.582205
     74          1           0      -15.339390    1.437500    1.541137
     75          1           0       10.207453    2.368355   -0.242129
     76          1           0       -8.664698    0.509911   -0.091957
     77          1           0        9.140973    4.291160    0.497630
     78          1           0        7.135050    4.248104   -0.124436
     79          1           0        7.673022    3.868466    1.627301
     80          1           0       -7.786852   -3.217371   -0.252338
     81          1           0       -8.384333   -2.820327   -1.797906
     82          1           0       -6.451215   -2.847097   -1.638262
     83          1           0        7.261606    0.624834   -0.344260
     84          1           0       -6.493103    0.472880    0.078854
     85          1           0        5.612624    2.970137    0.477097
     86          1           0       -5.176506   -1.943488   -0.787588
     87          1           0        4.555626    0.141015   -0.066267
     88          1           0       -4.095322    0.685608    0.250034
     89          1           0        3.606054    3.419722    1.546428
     90          1           0        1.902002    3.287144    1.136887
     91          1           0        3.142864    3.845299   -0.030438
     92          1           0       -2.577158   -3.088710    0.026669
     93          1           0       -2.931640   -2.623701   -1.580493
     94          1           0       -1.412410   -2.499993   -0.965387
     95          1           0        2.420066   -0.239749   -0.140061
     96          1           0       -2.019697    1.308082   -0.208347
     97          1           0        0.290241    2.070757    0.322968
     98          1           0        0.094056   -1.098038   -0.131405
 ---------------------------------------------------------------------

 SCF Done:  E(RCAM-B3LYP) =  -1706.97057558     A.U. after   15 cycles

 Excitation energies and oscillator strengths:

 Excited State   1:      Singlet-A      2.2259 eV  556.99 nm  f=3.7517  <S**2>=0.000
     155 ->158         0.16790
     156 ->157         0.68355
 This state for optimization and/or second-order correction.
 Total Energy, E(TD-HF/TD-DFT) =  -1706.88877343
 Copying the excited state density for this state as the 1-particle RhoCI density.

 The electronic state is 1-A.
 Alpha  occ. eigenvalues --  -19.21931 -19.20897 -10.29201 -10.29025 -10.29001
 Alpha  occ. eigenvalues --  -10.28402 -10.28035 -10.27717 -10.27693 -10.27479
 Alpha  occ. eigenvalues --  -10.27270 -10.27256 -10.27184 -10.27143 -10.27134
 Alpha  occ. eigenvalues --  -10.27082 -10.27003 -10.26859 -10.26814 -10.26623
 Alpha  occ. eigenvalues --  -10.26514 -10.26467 -10.26407 -10.26402 -10.26252
 Alpha  occ. eigenvalues --  -10.26235 -10.26110 -10.26105 -10.25952 -10.25906
 Alpha  occ. eigenvalues --  -10.25748 -10.25716 -10.25668 -10.25420 -10.25410
 Alpha  occ. eigenvalues --  -10.25276 -10.25243 -10.25223 -10.25142 -10.24872
 Alpha  occ. eigenvalues --  -10.24855 -10.22651  -1.07094  -1.06377  -0.95524
 Alpha  occ. eigenvalues --   -0.93496  -0.92087  -0.91813  -0.90688  -0.89843
 Alpha  occ. eigenvalues --   -0.87973  -0.87702  -0.86902  -0.86268  -0.84954
 Alpha  occ. eigenvalues --   -0.83733  -0.81942  -0.80505  -0.79348  -0.78384
 Alpha  occ. eigenvalues --   -0.77493  -0.76758  -0.76329  -0.76119  -0.75747
 Alpha  occ. eigenvalues --   -0.75553  -0.75257  -0.74812  -0.73692  -0.71296
 Alpha  occ. eigenvalues --   -0.68992  -0.67895  -0.66275  -0.65584  -0.64784
 Alpha  occ. eigenvalues --   -0.63513  -0.62444  -0.62273  -0.60855  -0.60003
 Alpha  occ. eigenvalues --   -0.59062  -0.58689  -0.58135  -0.57294  -0.56606
 Alpha  occ. eigenvalues --   -0.55885  -0.55190  -0.54900  -0.54311  -0.53933
 Alpha  occ. eigenvalues --   -0.53344  -0.52481  -0.52108  -0.51144  -0.50999
 Alpha  occ. eigenvalues --   -0.50513  -0.50321  -0.50183  -0.49723  -0.49529
 Alpha  occ. eigenvalues --   -0.48824  -0.48596  -0.47953  -0.47917  -0.47756
 Alpha  occ. eigenvalues --   -0.47573  -0.47274  -0.46927  -0.46844  -0.46316
 Alpha  occ. eigenvalues --   -0.45711  -0.45610  -0.45237  -0.45013  -0.44919
 Alpha  occ. eigenvalues --   -0.44716  -0.44167  -0.43844  -0.43602  -0.43315
 Alpha  occ. eigenvalues --   -0.43000  -0.42680  -0.42297  -0.42066  -0.41781
 Alpha  occ. eigenvalues --   -0.41581  -0.41464  -0.41267  -0.40992  -0.40973
 Alpha  occ. eigenvalues --   -0.40607  -0.40561  -0.40088  -0.39419  -0.39280
 Alpha  occ. eigenvalues --   -0.39022  -0.38896  -0.38476  -0.38333  -0.38178
 Alpha  occ. eigenvalues --   -0.38100  -0.37437  -0.37005  -0.36767  -0.36243
 Alpha  occ. eigenvalues --   -0.36113  -0.35513  -0.33837  -0.32760  -0.32516
 Alpha  occ. eigenvalues --   -0.32162  -0.29954  -0.28686  -0.25600  -0.23174
 Alpha  occ. eigenvalues --   -0.19708
 Alpha virt. eigenvalues --   -0.05884  -0.01384   0.01445   0.05742   0.07497
 Alpha virt. eigenvalues --    0.09510   0.11000   0.11425   0.11757   0.12173
 Alpha virt. eigenvalues --    0.12279   0.12655   0.12932   0.13116   0.13230

 Mulliken charges:
               1
     1  O   -0.574120
     2  O   -0.578267
     3  C    0.008877
     4  C   -0.036210
     5  C   -0.192783
     6  C   -0.158977
     7  C    0.158979
     8  C    0.157722
     9  C    0.041065
    10  C    0.084465
    11  C   -0.209020
    12  C   -0.221027
    13  C    0.041074
    14  C    0.070990
    15  C   -0.307777
    16  C   -0.293112
    17  C   -0.295694
    18  C   -0.303152
    19  C   -0.121114
    20  C   -0.154479
    21  C   -0.357187
    22  C   -0.358573
    23  C   -0.104217
    24  C   -0.099095
    25  C    0.059741
    26  C    0.112295
    27  C   -0.358670
    28  C   -0.356408
    29  C   -0.089342
    30  C   -0.150413
    31  C   -0.064385
    32  C   -0.041126
    33  C   -0.097260
    34  C   -0.116653
    35  C    0.108081
    36  C    0.099437
    37  C   -0.380379
    38  C   -0.378883
    39  C   -0.108003
    40  C   -0.129787
    41  C   -0.095985
    42  C   -0.087859
    43  H    0.089988
    44  H    0.083595
    45  H    0.073892
    46  H    0.102752
    47  H    0.097532
    48  H    0.074484
    49  H    0.134267
    50  H    0.107609
    51  H    0.104560
    52  H    0.102345
    53  H    0.095731
    54  H    0.099097
    55  H    0.112502
    56  H    0.099900
    57  H    0.090178
    58  H    0.090135
    59  H    0.113261
    60  H    0.120475
    61  H    0.066738
    62  H    0.091595
    63  H    0.116736
    64  H    0.087975
    65  H    0.075827
    66  H    0.073475
    67  H    0.123818
    68  H    0.078894
    69  H    0.104522
    70  H    0.107875
    71  H    0.131302
    72  H    0.100122
    73  H    0.298792
    74  H    0.308138
    75  H    0.093984
    76  H    0.085254
    77  H    0.108559
    78  H    0.098329
    79  H    0.121170
    80  H    0.140217
    81  H    0.125573
    82  H    0.088252
    83  H    0.063765
    84  H    0.063989
    85  H    0.071937
    86  H    0.060276
    87  H    0.082872
    88  H    0.090272
    89  H    0.109358
    90  H    0.096134
    91  H    0.133893
    92  H    0.125388
    93  H    0.107742
    94  H    0.123015
    95  H    0.063810
    96  H    0.084899
    97  H    0.090163
    98  H    0.090265
 Sum of Mulliken charges =  -0.00000

 Dipole moment (field-independent basis, Debye):
    X=             -2.1257    Y=             -2.6410    Z=              1.7996  Tot=              3.8382
 Quadrupole moment (field-independent basis, Debye-Ang):
   XX=           -294.0658   YY=           -246.0293   ZZ=           -260.9289
   XY=             23.9935   XZ=              1.3230   YZ=              0.2241

 Normal termination of Gaussian 16 at Mon Jul  8 20:06:42 2019.
