 Gaussian 16, Revision A.03,
 Gaussian 16:  ES64L-G16RevA.03 25-Dec-2016

 -------------------------------------
 # td=(NStates=1) CAM-B3LYP/6-31G(d,p)
 -------------------------------------

 --
 TD
 --
 Symbolic Z-matrix:
 Charge =  0 Multiplicity = 1

                         Standard orientation:
 ---------------------------------------------------------------------
 Center     Atomic      Atomic             Coordinates (Angstroms)
 Number     Number       Type             X           Y           Z
 ---------------------------------------------------------------------
      1          8           0       14.628429   -2.392356   -0.265328
      2          8           0      -14.773618    1.840817    0.862247
      3          6           0       11.088477   -1.513779    0.915659
      4          6           0      -12.360151   -1.052194    0.536023
      5          6           0       12.490080   -2.099077    1.036425
      6          6           0      -13.685428   -0.246934    0.612803
      7          6           0       13.291640   -1.994252   -0.321063
      8          6           0      -13.503865    1.152303    0.859170
      9          6           0       10.894387   -0.331141   -0.065481
     10          6           0      -11.310357   -0.319516   -0.278980
     11          6           0       13.211045   -0.536718   -0.888176
     12          6           0      -12.721524    1.751796   -0.369624
     13          6           0       11.867377    0.097220   -0.909505
     14          6           0      -11.390677    0.987720   -0.685377
     15          6           0       10.613798   -1.157075    2.377602
     16          6           0       10.315080   -2.693240    0.233476
     17          6           0      -11.900570   -1.249608    1.932378
     18          6           0      -12.605312   -2.409199   -0.135762
     19          6           0        9.582005    0.353652    0.144742
     20          6           0      -10.073771   -1.077640   -0.427583
     21          6           0       11.810893    1.204546   -1.967049
     22          6           0      -10.516662    1.790964   -1.574430
     23          6           0        9.341255    1.751854    0.036625
     24          6           0       -8.774931   -0.512082   -0.240376
     25          6           0        8.093416    2.365913    0.237001
     26          6           0       -7.518239   -1.220101   -0.460706
     27          6           0        7.982331    3.872957    0.625016
     28          6           0       -7.583334   -2.570185   -0.901034
     29          6           0        6.909372    1.602046    0.122106
     30          6           0       -6.328754   -0.573251   -0.238308
     31          6           0        5.627300    2.103907    0.250009
     32          6           0       -5.048718   -1.036411   -0.463446
     33          6           0        4.561884    1.381164    0.038938
     34          6           0       -3.842855   -0.343863   -0.197371
     35          6           0        3.131396    1.890357    0.129099
     36          6           0       -2.560004   -0.705221   -0.414263
     37          6           0        2.746798    3.191709    0.571396
     38          6           0       -2.258665   -2.195794   -0.798511
     39          6           0        2.208124    0.958863   -0.001565
     40          6           0       -1.513992    0.181382   -0.222492
     41          6           0        0.761468    1.071118    0.034281
     42          6           0       -0.133755   -0.030840   -0.266767
     43          1           0       13.024821   -1.662269    1.729944
     44          1           0       12.386740   -3.108577    1.295666
     45          1           0      -14.256213   -0.953957    1.435470
     46          1           0      -14.412421   -0.408585   -0.237245
     47          1           0       12.883644   -2.446397   -1.272606
     48          1           0      -13.188011    1.286118    1.905880
     49          1           0       13.851483    0.250265   -0.437035
     50          1           0       13.630791   -0.576886   -1.919971
     51          1           0      -13.337899    1.627756   -1.209761
     52          1           0      -12.447689    2.767192   -0.075402
     53          1           0       10.882691   -2.107088    2.924031
     54          1           0        9.438746   -1.186248    2.503214
     55          1           0       11.097919   -0.173656    2.541165
     56          1           0       10.672752   -2.842238   -0.775528
     57          1           0       10.531955   -3.669942    0.834064
     58          1           0        9.118246   -2.499545    0.412612
     59          1           0      -11.567342   -0.297210    2.469131
     60          1           0      -10.896503   -1.865472    2.038020
     61          1           0      -12.591628   -1.809288    2.506729
     62          1           0      -13.494740   -2.851368    0.291100
     63          1           0      -11.694852   -3.085494   -0.077968
     64          1           0      -12.862208   -2.392345   -1.166818
     65          1           0        8.809097   -0.480620    0.426544
     66          1           0       -9.901856   -2.122541   -0.421612
     67          1           0       10.667988    1.501258   -2.136748
     68          1           0       12.334270    2.270598   -1.706726
     69          1           0       12.029117    0.870578   -3.084602
     70          1           0      -11.114698    2.257756   -2.420691
     71          1           0       -9.880027    1.246576   -2.048687
     72          1           0      -10.252091    2.680145   -0.868137
     73          1           0       14.435532   -3.255873    0.155615
     74          1           0      -15.237279    1.210419    1.306285
     75          1           0       10.121311    2.565147    0.110038
     76          1           0       -8.569035    0.642288   -0.073026
     77          1           0        8.956921    4.373087    0.456345
     78          1           0        7.392833    4.273551   -0.258293
     79          1           0        7.809736    4.171046    1.546763
     80          1           0       -8.181665   -3.076026   -0.194831
     81          1           0       -8.323919   -2.682821   -1.739911
     82          1           0       -6.701102   -3.146492   -1.263862
     83          1           0        6.954348    0.536024   -0.412341
     84          1           0       -6.328547    0.410256    0.167643
     85          1           0        5.437984    3.063127    0.738385
     86          1           0       -5.141858   -2.109488   -0.744171
     87          1           0        4.833203    0.414588   -0.213111
     88          1           0       -3.969287    0.743509    0.038389
     89          1           0        2.997552    3.127428    1.596917
     90          1           0        1.725951    3.490054    0.489347
     91          1           0        3.500648    3.796051    0.013333
     92          1           0       -2.877931   -2.929947   -0.185347
     93          1           0       -2.530590   -2.149041   -1.729488
     94          1           0       -1.182201   -2.466428   -0.747183
     95          1           0        2.444942    0.047205   -0.265421
     96          1           0       -1.885736    1.073229    0.204934
     97          1           0        0.240890    1.962556    0.262293
     98          1           0        0.397380   -0.937732   -0.677933
 ---------------------------------------------------------------------

 SCF Done:  E(RCAM-B3LYP) =  -1706.98049077     A.U. after   15 cycles

 Excitation energies and oscillator strengths:

 Excited State   1:      Singlet-A      2.1622 eV  573.41 nm  f=3.8275  <S**2>=0.000
     155 ->158        -0.17829
     156 ->157         0.68140
 This state for optimization and/or second-order correction.
 Total Energy, E(TD-HF/TD-DFT) =  -1706.90103017
 Copying the excited state density for this state as the 1-particle RhoCI density.

 The electronic state is 1-A.
 Alpha  occ. eigenvalues --  -19.21898 -19.19738 -10.31069 -10.30030 -10.27855
 Alpha  occ. eigenvalues --  -10.27818 -10.27682 -10.27552 -10.27329 -10.27216
 Alpha  occ. eigenvalues --  -10.27097 -10.26929 -10.26816 -10.26807 -10.26764
 Alpha  occ. eigenvalues --  -10.26753 -10.26735 -10.26657 -10.26643 -10.26469
 Alpha  occ. eigenvalues --  -10.26327 -10.26266 -10.26217 -10.26210 -10.26198
 Alpha  occ. eigenvalues --  -10.26131 -10.26090 -10.25548 -10.25498 -10.25390
 Alpha  occ. eigenvalues --  -10.25336 -10.25198 -10.25173 -10.25064 -10.24908
 Alpha  occ. eigenvalues --  -10.24875 -10.24824 -10.24790 -10.24672 -10.24454
 Alpha  occ. eigenvalues --  -10.24437 -10.23775  -1.11086  -1.10586  -0.94137
 Alpha  occ. eigenvalues --   -0.93277  -0.92818  -0.92218  -0.90926  -0.90204
 Alpha  occ. eigenvalues --   -0.87561  -0.87149  -0.86679  -0.85768  -0.84717
 Alpha  occ. eigenvalues --   -0.83205  -0.82759  -0.80273  -0.79100  -0.79012
 Alpha  occ. eigenvalues --   -0.77153  -0.76791  -0.76492  -0.76257  -0.75941
 Alpha  occ. eigenvalues --   -0.75520  -0.75266  -0.74866  -0.73503  -0.70835
 Alpha  occ. eigenvalues --   -0.69117  -0.67238  -0.65926  -0.65221  -0.64552
 Alpha  occ. eigenvalues --   -0.63286  -0.62399  -0.61903  -0.61384  -0.60306
 Alpha  occ. eigenvalues --   -0.59462  -0.58462  -0.57851  -0.57355  -0.56546
 Alpha  occ. eigenvalues --   -0.56202  -0.55665  -0.54948  -0.54082  -0.53787
 Alpha  occ. eigenvalues --   -0.53193  -0.52773  -0.52296  -0.51729  -0.51565
 Alpha  occ. eigenvalues --   -0.51096  -0.50681  -0.50543  -0.50296  -0.50017
 Alpha  occ. eigenvalues --   -0.49658  -0.49636  -0.49171  -0.48826  -0.48680
 Alpha  occ. eigenvalues --   -0.48187  -0.47851  -0.47590  -0.47440  -0.46637
 Alpha  occ. eigenvalues --   -0.46468  -0.46136  -0.45938  -0.45628  -0.45217
 Alpha  occ. eigenvalues --   -0.44488  -0.44191  -0.43944  -0.43795  -0.43370
 Alpha  occ. eigenvalues --   -0.43082  -0.42757  -0.42670  -0.42037  -0.41729
 Alpha  occ. eigenvalues --   -0.41520  -0.41465  -0.40995  -0.40760  -0.40660
 Alpha  occ. eigenvalues --   -0.40332  -0.40295  -0.40128  -0.39945  -0.39620
 Alpha  occ. eigenvalues --   -0.39234  -0.38861  -0.38688  -0.38662  -0.38184
 Alpha  occ. eigenvalues --   -0.37780  -0.37699  -0.37004  -0.36548  -0.36141
 Alpha  occ. eigenvalues --   -0.35553  -0.34666  -0.33805  -0.32596  -0.32158
 Alpha  occ. eigenvalues --   -0.32088  -0.29794  -0.28418  -0.25714  -0.22582
 Alpha  occ. eigenvalues --   -0.18980
 Alpha virt. eigenvalues --   -0.05685  -0.01912   0.02222   0.06140   0.07980
 Alpha virt. eigenvalues --    0.10353   0.10925   0.11650   0.11859   0.12613
 Alpha virt. eigenvalues --    0.13082   0.13162   0.13788   0.14298   0.14414

 Mulliken charges:
               1
     1  O   -0.535838
     2  O   -0.546476
     3  C   -0.037827
     4  C   -0.014648
     5  C   -0.188965
     6  C   -0.218334
     7  C    0.145087
     8  C    0.149074
     9  C    0.066910
    10  C    0.099007
    11  C   -0.235883
    12  C   -0.203908
    13  C    0.054662
    14  C    0.003672
    15  C   -0.296472
    16  C   -0.288122
    17  C   -0.288996
    18  C   -0.306846
    19  C   -0.106041
    20  C   -0.147954
    21  C   -0.361266
    22  C   -0.326387
    23  C   -0.115024
    24  C   -0.116197
    25  C    0.054142
    26  C    0.142777
    27  C   -0.367948
    28  C   -0.419941
    29  C   -0.128783
    30  C   -0.116814
    31  C   -0.059444
    32  C   -0.080342
    33  C   -0.100079
    34  C   -0.145099
    35  C    0.087336
    36  C    0.112420
    37  C   -0.369438
    38  C   -0.357099
    39  C   -0.090693
    40  C   -0.132043
    41  C   -0.100363
    42  C   -0.092413
    43  H    0.114181
    44  H    0.088014
    45  H    0.054819
    46  H    0.100537
    47  H    0.077448
    48  H    0.093240
    49  H    0.110210
    50  H    0.102698
    51  H    0.132709
    52  H    0.109034
    53  H    0.098843
    54  H    0.092128
    55  H    0.126476
    56  H    0.125867
    57  H    0.079727
    58  H    0.074765
    59  H    0.105950
    60  H    0.087220
    61  H    0.106502
    62  H    0.095855
    63  H    0.098787
    64  H    0.114680
    65  H    0.088446
    66  H    0.070429
    67  H    0.105614
    68  H    0.102224
    69  H    0.102373
    70  H    0.102912
    71  H    0.126296
    72  H    0.110027
    73  H    0.306351
    74  H    0.290425
    75  H    0.089197
    76  H    0.080020
    77  H    0.096896
    78  H    0.127671
    79  H    0.139665
    80  H    0.135941
    81  H    0.118898
    82  H    0.120006
    83  H    0.078286
    84  H    0.068387
    85  H    0.082056
    86  H    0.066130
    87  H    0.074525
    88  H    0.075687
    89  H    0.140348
    90  H    0.123828
    91  H    0.112780
    92  H    0.111289
    93  H    0.142629
    94  H    0.101724
    95  H    0.058429
    96  H    0.078606
    97  H    0.074353
    98  H    0.088458
 Sum of Mulliken charges =  -0.00000

 Dipole moment (field-independent basis, Debye):
    X=              0.1312    Y=             -1.8213    Z=              1.0537  Tot=              2.1082
 Quadrupole moment (field-independent basis, Debye-Ang):
   XX=           -289.4887   YY=           -242.5602   ZZ=           -260.9807
   XY=             21.9527   XZ=              7.5543   YZ=              1.1397

 Normal termination of Gaussian 16 at Sun Jul 14 02:00:20 2019.
