 Gaussian 16, Revision A.03,
 Gaussian 16:  ES64L-G16RevA.03 25-Dec-2016

 -------------------------------------
 # td=(NStates=1) CAM-B3LYP/6-31G(d,p)
 -------------------------------------

 --
 TD
 --
 Symbolic Z-matrix:
 Charge =  0 Multiplicity = 1

                         Standard orientation:
 ---------------------------------------------------------------------
 Center     Atomic      Atomic             Coordinates (Angstroms)
 Number     Number       Type             X           Y           Z
 ---------------------------------------------------------------------
      1          8           0       14.645067   -2.240867   -0.244552
      2          8           0      -14.653694    1.888811    1.126530
      3          6           0       11.062047   -1.577687    0.909673
      4          6           0      -12.232338   -1.011222    0.485643
      5          6           0       12.492440   -1.967271    0.944624
      6          6           0      -13.644849   -0.256839    0.546825
      7          6           0       13.169373   -1.938940   -0.359435
      8          6           0      -13.432854    1.194494    0.919978
      9          6           0       10.857063   -0.316159   -0.011537
     10          6           0      -11.262844   -0.208447   -0.303554
     11          6           0       13.308609   -0.576305   -0.919758
     12          6           0      -12.683709    1.912538   -0.047742
     13          6           0       11.891292    0.162272   -0.903065
     14          6           0      -11.417063    1.120621   -0.667013
     15          6           0       10.618169   -1.204279    2.417076
     16          6           0       10.192722   -2.735247    0.400327
     17          6           0      -11.814318   -1.430064    1.922379
     18          6           0      -12.588976   -2.330326   -0.270589
     19          6           0        9.662002    0.383639    0.178456
     20          6           0       -9.983984   -0.988475   -0.523406
     21          6           0       11.906625    1.374565   -1.645512
     22          6           0      -10.482888    1.906383   -1.430015
     23          6           0        9.298740    1.738014    0.162812
     24          6           0       -8.715190   -0.555675   -0.387322
     25          6           0        8.029932    2.341673    0.199723
     26          6           0       -7.522779   -1.275877   -0.491456
     27          6           0        7.975728    3.803975    0.439090
     28          6           0       -7.528851   -2.698314   -1.029469
     29          6           0        6.803533    1.516107    0.194001
     30          6           0       -6.346677   -0.650162   -0.295661
     31          6           0        5.557872    2.155467    0.160201
     32          6           0       -4.989873   -1.164156   -0.466720
     33          6           0        4.410789    1.324015   -0.026747
     34          6           0       -3.956740   -0.338759   -0.202572
     35          6           0        3.092495    1.785345    0.003321
     36          6           0       -2.571564   -0.787905   -0.376701
     37          6           0        2.750109    3.122474    0.317671
     38          6           0       -2.375494   -2.313363   -0.610790
     39          6           0        2.110698    0.802391   -0.105983
     40          6           0       -1.565650    0.158075   -0.181994
     41          6           0        0.717810    1.030313   -0.148111
     42          6           0       -0.155084   -0.052786   -0.350588
     43          1           0       13.069742   -0.970288    1.370609
     44          1           0       12.518710   -2.859308    1.738797
     45          1           0      -14.483156   -0.700349    1.174275
     46          1           0      -13.903271   -0.234505   -0.606881
     47          1           0       12.685120   -2.627309   -1.189360
     48          1           0      -12.720341    1.120363    1.698880
     49          1           0       14.062074    0.186870   -0.601409
     50          1           0       13.664105   -0.685153   -2.019163
     51          1           0      -13.228830    2.088046   -0.935621
     52          1           0      -12.309740    2.836207    0.586881
     53          1           0       10.815775   -1.996844    3.277589
     54          1           0        9.642709   -1.018813    2.351046
     55          1           0       10.985904   -0.319128    2.647380
     56          1           0       10.718536   -3.148007   -0.479924
     57          1           0       10.079475   -3.541443    1.194804
     58          1           0        9.072944   -2.463356    0.165119
     59          1           0      -11.538930   -0.616628    2.492398
     60          1           0      -10.926627   -1.853070    1.852088
     61          1           0      -12.573790   -2.093756    2.327892
     62          1           0      -13.442101   -2.738254    0.268143
     63          1           0      -11.668954   -3.089637   -0.354653
     64          1           0      -12.816390   -2.106209   -1.314286
     65          1           0        8.839920   -0.236623    0.471468
     66          1           0      -10.316035   -1.984198   -0.870289
     67          1           0       10.852907    1.721314   -1.775895
     68          1           0       12.358152    2.131073   -1.062601
     69          1           0       12.514082    1.332512   -2.618141
     70          1           0      -10.985301    2.504030   -2.089094
     71          1           0       -9.648915    1.280541   -1.900430
     72          1           0      -10.095674    2.671614   -0.757196
     73          1           0       14.528563   -3.520581   -0.510046
     74          1           0      -14.966694    1.359982    1.994789
     75          1           0       10.258486    2.438905    0.205817
     76          1           0       -8.486938    0.561061   -0.041468
     77          1           0        8.996788    4.334967    0.794133
     78          1           0        7.704726    4.169470   -0.468356
     79          1           0        7.302472    3.983476    1.224442
     80          1           0       -8.457297   -3.257533   -0.367795
     81          1           0       -8.171339   -2.663631   -1.999527
     82          1           0       -6.637323   -3.207812   -0.805664
     83          1           0        7.012960    0.427659   -0.047274
     84          1           0       -6.365002    0.494303   -0.216493
     85          1           0        5.341735    3.221868    0.395428
     86          1           0       -5.041605   -2.187783   -0.786414
     87          1           0        4.477588    0.220975   -0.153665
     88          1           0       -4.213381    0.688446   -0.302897
     89          1           0        2.922695    3.545331    1.492414
     90          1           0        1.727889    3.323263    0.149183
     91          1           0        3.327895    3.786824   -0.254601
     92          1           0       -2.914918   -3.022063   -0.018693
     93          1           0       -3.220415   -2.469722   -1.539186
     94          1           0       -1.271107   -2.478261   -0.722552
     95          1           0        2.498840   -0.201212   -0.395986
     96          1           0       -1.834758    1.028437    0.289845
     97          1           0        0.371132    2.045844    0.055037
     98          1           0        0.137980   -1.120086   -0.745092
 ---------------------------------------------------------------------

 SCF Done:  E(RCAM-B3LYP) =  -1706.89337709     A.U. after   15 cycles

 Excitation energies and oscillator strengths:

 Excited State   1:      Singlet-A      1.9599 eV  632.61 nm  f=3.3638  <S**2>=0.000
     155 ->158         0.14843
     156 ->157         0.69324
 This state for optimization and/or second-order correction.
 Total Energy, E(TD-HF/TD-DFT) =  -1706.82135312
 Copying the excited state density for this state as the 1-particle RhoCI density.

 The electronic state is 1-A.
 Alpha  occ. eigenvalues --  -19.23257 -19.22360 -10.31552 -10.28445 -10.28048
 Alpha  occ. eigenvalues --  -10.27949 -10.27930 -10.27835 -10.27732 -10.27570
 Alpha  occ. eigenvalues --  -10.27516 -10.27299 -10.27055 -10.27026 -10.26982
 Alpha  occ. eigenvalues --  -10.26942 -10.26830 -10.26773 -10.26628 -10.26618
 Alpha  occ. eigenvalues --  -10.26531 -10.26518 -10.26320 -10.26242 -10.26173
 Alpha  occ. eigenvalues --  -10.26124 -10.26113 -10.26066 -10.26059 -10.26059
 Alpha  occ. eigenvalues --  -10.25819 -10.25795 -10.25739 -10.25731 -10.25627
 Alpha  occ. eigenvalues --  -10.25447 -10.25178 -10.25164 -10.25064 -10.24305
 Alpha  occ. eigenvalues --  -10.23401 -10.22765  -1.08788  -1.03988  -0.93347
 Alpha  occ. eigenvalues --   -0.93311  -0.92566  -0.91953  -0.90445  -0.90015
 Alpha  occ. eigenvalues --   -0.87442  -0.87121  -0.87050  -0.85420  -0.84850
 Alpha  occ. eigenvalues --   -0.83513  -0.82289  -0.80708  -0.80398  -0.78284
 Alpha  occ. eigenvalues --   -0.77323  -0.76793  -0.76663  -0.76210  -0.76115
 Alpha  occ. eigenvalues --   -0.75429  -0.75191  -0.74721  -0.73009  -0.70249
 Alpha  occ. eigenvalues --   -0.68626  -0.66733  -0.65117  -0.64742  -0.63924
 Alpha  occ. eigenvalues --   -0.62874  -0.62213  -0.61877  -0.60908  -0.59775
 Alpha  occ. eigenvalues --   -0.58951  -0.58304  -0.58055  -0.57451  -0.56622
 Alpha  occ. eigenvalues --   -0.55482  -0.55093  -0.54930  -0.53857  -0.53191
 Alpha  occ. eigenvalues --   -0.52809  -0.52254  -0.52030  -0.51406  -0.51244
 Alpha  occ. eigenvalues --   -0.50552  -0.50418  -0.49806  -0.49313  -0.49037
 Alpha  occ. eigenvalues --   -0.48951  -0.48718  -0.48668  -0.48363  -0.48163
 Alpha  occ. eigenvalues --   -0.47804  -0.47685  -0.47216  -0.47000  -0.46784
 Alpha  occ. eigenvalues --   -0.46545  -0.46321  -0.45826  -0.45383  -0.45155
 Alpha  occ. eigenvalues --   -0.44722  -0.44471  -0.44110  -0.43891  -0.43716
 Alpha  occ. eigenvalues --   -0.43182  -0.42843  -0.42428  -0.42361  -0.41907
 Alpha  occ. eigenvalues --   -0.41772  -0.41727  -0.41621  -0.41036  -0.40897
 Alpha  occ. eigenvalues --   -0.40497  -0.40246  -0.39978  -0.39625  -0.39357
 Alpha  occ. eigenvalues --   -0.39264  -0.38926  -0.38643  -0.38583  -0.37968
 Alpha  occ. eigenvalues --   -0.37109  -0.36923  -0.36800  -0.36743  -0.35504
 Alpha  occ. eigenvalues --   -0.34661  -0.34442  -0.33862  -0.32233  -0.32075
 Alpha  occ. eigenvalues --   -0.31637  -0.29406  -0.27977  -0.25694  -0.22934
 Alpha  occ. eigenvalues --   -0.18521
 Alpha virt. eigenvalues --   -0.06211  -0.01721   0.01738   0.03571   0.05447
 Alpha virt. eigenvalues --    0.07522   0.09072   0.10414   0.11188   0.11554
 Alpha virt. eigenvalues --    0.11778   0.11875   0.12521   0.12861   0.13236

 Mulliken charges:
               1
     1  O   -0.525651
     2  O   -0.551713
     3  C   -0.016142
     4  C   -0.048784
     5  C   -0.148963
     6  C   -0.181944
     7  C    0.136135
     8  C    0.171332
     9  C    0.053282
    10  C    0.045855
    11  C   -0.216094
    12  C   -0.210621
    13  C    0.055755
    14  C    0.033220
    15  C   -0.292864
    16  C   -0.291689
    17  C   -0.282523
    18  C   -0.297685
    19  C   -0.120659
    20  C   -0.146499
    21  C   -0.383109
    22  C   -0.363591
    23  C   -0.131103
    24  C   -0.102475
    25  C    0.061251
    26  C    0.144247
    27  C   -0.363306
    28  C   -0.363307
    29  C   -0.114618
    30  C   -0.152221
    31  C   -0.107908
    32  C   -0.067967
    33  C   -0.119496
    34  C   -0.114553
    35  C    0.152367
    36  C    0.079388
    37  C   -0.375473
    38  C   -0.346903
    39  C   -0.129361
    40  C   -0.113235
    41  C   -0.099597
    42  C   -0.091760
    43  H    0.088106
    44  H    0.088654
    45  H    0.068782
    46  H    0.080051
    47  H    0.079560
    48  H    0.082071
    49  H    0.130247
    50  H    0.101123
    51  H    0.118467
    52  H    0.096009
    53  H    0.084091
    54  H    0.108821
    55  H    0.118293
    56  H    0.098246
    57  H    0.094325
    58  H    0.094267
    59  H    0.103593
    60  H    0.114714
    61  H    0.098499
    62  H    0.104364
    63  H    0.079275
    64  H    0.109968
    65  H    0.074450
    66  H    0.081860
    67  H    0.123026
    68  H    0.135114
    69  H    0.101327
    70  H    0.117117
    71  H    0.119413
    72  H    0.115158
    73  H    0.255224
    74  H    0.305393
    75  H    0.073022
    76  H    0.083954
    77  H    0.094204
    78  H    0.141702
    79  H    0.132088
    80  H    0.073251
    81  H    0.135217
    82  H    0.120671
    83  H    0.094876
    84  H    0.067138
    85  H    0.100473
    86  H    0.072944
    87  H    0.079320
    88  H    0.096457
    89  H    0.090067
    90  H    0.110613
    91  H    0.124048
    92  H    0.142400
    93  H    0.086697
    94  H    0.105520
    95  H    0.077395
    96  H    0.086274
    97  H    0.094898
    98  H    0.086143
 Sum of Mulliken charges =  -0.00000

 Dipole moment (field-independent basis, Debye):
    X=              0.3351    Y=             -1.0627    Z=              0.3613  Tot=              1.1714
 Quadrupole moment (field-independent basis, Debye-Ang):
   XX=           -305.2337   YY=           -241.7611   ZZ=           -262.5406
   XY=             15.1626   XZ=            -19.0710   YZ=              2.8565

 Normal termination of Gaussian 16 at Thu Jul 11 23:38:55 2019.
