 Gaussian 16, Revision A.03,
 Gaussian 16:  ES64L-G16RevA.03 25-Dec-2016

 -------------------------------------
 # td=(NStates=1) CAM-B3LYP/6-31G(d,p)
 -------------------------------------

 --
 TD
 --
 Symbolic Z-matrix:
 Charge =  0 Multiplicity = 1

                         Standard orientation:
 ---------------------------------------------------------------------
 Center     Atomic      Atomic             Coordinates (Angstroms)
 Number     Number       Type             X           Y           Z
 ---------------------------------------------------------------------
      1          8           0       14.397235   -2.667248   -0.391470
      2          8           0      -14.802982    1.610582    0.832364
      3          6           0       11.072867   -1.507435    0.905884
      4          6           0      -12.416311   -1.223901    0.513701
      5          6           0       12.500695   -1.871288    1.048220
      6          6           0      -13.695125   -0.440839    0.531843
      7          6           0       13.149067   -2.098045   -0.385443
      8          6           0      -13.541337    1.030001    0.844357
      9          6           0       10.914442   -0.323349   -0.053974
     10          6           0      -11.249715   -0.331187   -0.279184
     11          6           0       13.155317   -0.940067   -1.207255
     12          6           0      -12.674647    1.730643   -0.165002
     13          6           0       11.778001   -0.139345   -1.068235
     14          6           0      -11.461169    0.958162   -0.618590
     15          6           0       10.786264   -1.077415    2.383495
     16          6           0       10.169487   -2.720861    0.653376
     17          6           0      -11.776797   -1.547687    1.951514
     18          6           0      -12.781853   -2.442147   -0.170850
     19          6           0        9.642019    0.391155    0.176168
     20          6           0      -10.043790   -0.924849   -0.562899
     21          6           0       11.444943    0.892638   -2.093139
     22          6           0      -10.659493    1.811215   -1.516945
     23          6           0        9.395527    1.608567    0.155500
     24          6           0       -8.777963   -0.514396   -0.237813
     25          6           0        8.164006    2.431935    0.270959
     26          6           0       -7.478674   -1.146070   -0.344601
     27          6           0        8.195891    3.949219    0.856679
     28          6           0       -7.552251   -2.651464   -0.874399
     29          6           0        7.005347    1.697643    0.103819
     30          6           0       -6.378133   -0.428538   -0.314318
     31          6           0        5.659964    2.191610    0.204652
     32          6           0       -5.025637   -0.986354   -0.292662
     33          6           0        4.551856    1.480840   -0.023874
     34          6           0       -3.942768   -0.060619   -0.219383
     35          6           0        3.254833    1.933362    0.029780
     36          6           0       -2.502250   -0.531900   -0.332104
     37          6           0        2.919622    3.350778    0.379238
     38          6           0       -2.253859   -1.979306   -0.652036
     39          6           0        2.186847    0.914113   -0.264713
     40          6           0       -1.488389    0.383287   -0.076953
     41          6           0        0.894751    1.182466   -0.193322
     42          6           0       -0.069446    0.150459   -0.208908
     43          1           0       13.102517   -0.925160    1.382693
     44          1           0       12.695974   -2.786057    1.520747
     45          1           0      -14.436599   -0.898054    1.265185
     46          1           0      -14.222566   -0.445900   -0.468580
     47          1           0       12.282486   -2.900285   -0.658696
     48          1           0      -13.002908    1.183605    1.913582
     49          1           0       14.104177   -0.195416   -0.999025
     50          1           0       13.229408   -1.061634   -2.215959
     51          1           0      -13.297394    1.997698   -1.214584
     52          1           0      -12.322410    2.768455    0.321765
     53          1           0       11.228905   -1.874535    3.205072
     54          1           0        9.644388   -0.999358    2.681176
     55          1           0       11.081629    0.056338    2.711801
     56          1           0       10.565176   -3.188799   -0.263913
     57          1           0       10.353503   -3.471334    1.427810
     58          1           0        9.151017   -2.496925    0.400738
     59          1           0      -11.853273   -0.521351    2.663094
     60          1           0      -10.766270   -1.734449    1.714934
     61          1           0      -12.389349   -2.534437    2.417152
     62          1           0      -13.527057   -2.660319    0.487331
     63          1           0      -11.949335   -3.270533   -0.169350
     64          1           0      -13.294122   -2.150203   -1.262219
     65          1           0        8.790990   -0.326326    0.475794
     66          1           0      -10.120625   -2.059330   -0.931327
     67          1           0       10.406089    1.190509   -2.055288
     68          1           0       12.062318    1.731383   -1.960670
     69          1           0       11.609217    0.600258   -3.086037
     70          1           0      -11.436855    2.370053   -2.177445
     71          1           0       -9.581318    1.491910   -2.146518
     72          1           0      -10.050406    2.414158   -0.843118
     73          1           0       14.619719   -3.314685    0.463561
     74          1           0      -15.580824    1.285431    1.326425
     75          1           0       10.257242    2.418892   -0.049987
     76          1           0       -8.748130    0.545293    0.256059
     77          1           0        9.393398    4.196867    1.319669
     78          1           0        7.863677    4.712897    0.144197
     79          1           0        7.545718    3.968917    1.672589
     80          1           0       -8.037074   -3.175451   -0.257400
     81          1           0       -8.128058   -2.728628   -1.834628
     82          1           0       -6.414985   -3.090530   -1.024806
     83          1           0        7.182527    0.687277   -0.277677
     84          1           0       -6.264742    0.504181    0.013123
     85          1           0        5.509661    3.250453    0.671449
     86          1           0       -4.886650   -1.934069   -0.735263
     87          1           0        4.666037    0.459425   -0.403565
     88          1           0       -4.102260    0.846468   -0.081987
     89          1           0        2.731513    3.603854    1.544341
     90          1           0        1.854384    3.711596   -0.261095
     91          1           0        3.819595    4.150408    0.114881
     92          1           0       -2.979967   -2.757689   -0.190424
     93          1           0       -2.497977   -2.045913   -1.793024
     94          1           0       -1.119502   -2.215819   -0.648447
     95          1           0        2.620246   -0.103534   -0.402128
     96          1           0       -1.645495    1.458422   -0.071123
     97          1           0        0.631856    2.292769   -0.018962
     98          1           0        0.465939   -0.783667   -0.254590
 ---------------------------------------------------------------------

 SCF Done:  E(RCAM-B3LYP) =  -1706.84455023     A.U. after   15 cycles

 Excitation energies and oscillator strengths:

 Excited State   1:      Singlet-A      2.1957 eV  564.68 nm  f=3.4516  <S**2>=0.000
     155 ->158         0.12761
     156 ->157         0.69731
     156 <-157        -0.10143
 This state for optimization and/or second-order correction.
 Total Energy, E(TD-HF/TD-DFT) =  -1706.76386141
 Copying the excited state density for this state as the 1-particle RhoCI density.

 The electronic state is 1-A.
 Alpha  occ. eigenvalues --  -19.21938 -19.20592 -10.31392 -10.30012 -10.29866
 Alpha  occ. eigenvalues --  -10.28683 -10.28104 -10.28086 -10.27980 -10.27788
 Alpha  occ. eigenvalues --  -10.27763 -10.27511 -10.27380 -10.27375 -10.27072
 Alpha  occ. eigenvalues --  -10.27012 -10.26904 -10.26848 -10.26836 -10.26803
 Alpha  occ. eigenvalues --  -10.26790 -10.26777 -10.26565 -10.26502 -10.26469
 Alpha  occ. eigenvalues --  -10.26419 -10.26354 -10.26295 -10.25986 -10.25926
 Alpha  occ. eigenvalues --  -10.25775 -10.25677 -10.25662 -10.25557 -10.25513
 Alpha  occ. eigenvalues --  -10.25370 -10.25323 -10.25172 -10.24946 -10.24906
 Alpha  occ. eigenvalues --  -10.24693 -10.23161  -1.09393  -1.08831  -0.93822
 Alpha  occ. eigenvalues --   -0.93736  -0.92147  -0.91435  -0.90369  -0.89567
 Alpha  occ. eigenvalues --   -0.88550  -0.87634  -0.86831  -0.85651  -0.84646
 Alpha  occ. eigenvalues --   -0.82956  -0.81548  -0.80297  -0.79786  -0.77991
 Alpha  occ. eigenvalues --   -0.76905  -0.76639  -0.76328  -0.75812  -0.75177
 Alpha  occ. eigenvalues --   -0.74929  -0.74270  -0.73792  -0.72961  -0.70773
 Alpha  occ. eigenvalues --   -0.68781  -0.67066  -0.65897  -0.64393  -0.63765
 Alpha  occ. eigenvalues --   -0.63593  -0.62323  -0.61722  -0.61205  -0.59690
 Alpha  occ. eigenvalues --   -0.59090  -0.57758  -0.57668  -0.57193  -0.56229
 Alpha  occ. eigenvalues --   -0.55982  -0.55463  -0.55378  -0.54739  -0.53918
 Alpha  occ. eigenvalues --   -0.53029  -0.52543  -0.52377  -0.51071  -0.50277
 Alpha  occ. eigenvalues --   -0.50138  -0.50032  -0.49446  -0.49160  -0.48793
 Alpha  occ. eigenvalues --   -0.48557  -0.48335  -0.47942  -0.47766  -0.47264
 Alpha  occ. eigenvalues --   -0.47100  -0.46967  -0.46722  -0.46352  -0.46275
 Alpha  occ. eigenvalues --   -0.45958  -0.45786  -0.45477  -0.45457  -0.44976
 Alpha  occ. eigenvalues --   -0.44547  -0.44165  -0.43716  -0.43249  -0.43070
 Alpha  occ. eigenvalues --   -0.42643  -0.42428  -0.42171  -0.41826  -0.41345
 Alpha  occ. eigenvalues --   -0.41181  -0.40756  -0.40680  -0.40548  -0.40313
 Alpha  occ. eigenvalues --   -0.40090  -0.39941  -0.39633  -0.39587  -0.39237
 Alpha  occ. eigenvalues --   -0.39018  -0.38841  -0.38457  -0.38126  -0.37874
 Alpha  occ. eigenvalues --   -0.37629  -0.36793  -0.36356  -0.35910  -0.35587
 Alpha  occ. eigenvalues --   -0.35290  -0.35220  -0.34352  -0.32467  -0.31632
 Alpha  occ. eigenvalues --   -0.30033  -0.28836  -0.28320  -0.26499  -0.23983
 Alpha  occ. eigenvalues --   -0.19336
 Alpha virt. eigenvalues --   -0.06123  -0.00630   0.02821   0.05539   0.07885
 Alpha virt. eigenvalues --    0.09339   0.09531   0.10831   0.11215   0.11503
 Alpha virt. eigenvalues --    0.11972   0.12122   0.12579   0.12767   0.13120

 Mulliken charges:
               1
     1  O   -0.576400
     2  O   -0.578551
     3  C   -0.004339
     4  C    0.010792
     5  C   -0.194645
     6  C   -0.202019
     7  C    0.220930
     8  C    0.212978
     9  C    0.050674
    10  C    0.047800
    11  C   -0.185879
    12  C   -0.209972
    13  C    0.035071
    14  C    0.062412
    15  C   -0.283153
    16  C   -0.303909
    17  C   -0.284449
    18  C   -0.269425
    19  C   -0.114983
    20  C   -0.147008
    21  C   -0.376729
    22  C   -0.338786
    23  C   -0.087000
    24  C   -0.096007
    25  C    0.057648
    26  C    0.094584
    27  C   -0.353388
    28  C   -0.350176
    29  C   -0.110584
    30  C   -0.097787
    31  C   -0.106151
    32  C   -0.098080
    33  C   -0.085301
    34  C   -0.076964
    35  C    0.116243
    36  C    0.109931
    37  C   -0.363345
    38  C   -0.377175
    39  C   -0.115537
    40  C   -0.134897
    41  C   -0.070632
    42  C   -0.098713
    43  H    0.094650
    44  H    0.076141
    45  H    0.076524
    46  H    0.101527
    47  H    0.031304
    48  H    0.050078
    49  H    0.092833
    50  H    0.121601
    51  H    0.089885
    52  H    0.101148
    53  H    0.074126
    54  H    0.076926
    55  H    0.089398
    56  H    0.104175
    57  H    0.106977
    58  H    0.112038
    59  H    0.085041
    60  H    0.129222
    61  H    0.071124
    62  H    0.113006
    63  H    0.083788
    64  H    0.084791
    65  H    0.082525
    66  H    0.060005
    67  H    0.126075
    68  H    0.120109
    69  H    0.106348
    70  H    0.103462
    71  H    0.087507
    72  H    0.126370
    73  H    0.309354
    74  H    0.312979
    75  H    0.065265
    76  H    0.066128
    77  H    0.080513
    78  H    0.129840
    79  H    0.141616
    80  H    0.135919
    81  H    0.123514
    82  H    0.078847
    83  H    0.085375
    84  H    0.077308
    85  H    0.070157
    86  H    0.083589
    87  H    0.077874
    88  H    0.061936
    89  H    0.116972
    90  H    0.087786
    91  H    0.098622
    92  H    0.121863
    93  H    0.119222
    94  H    0.111382
    95  H    0.085646
    96  H    0.088994
    97  H    0.079179
    98  H    0.084333
 Sum of Mulliken charges =  -0.00000

 Dipole moment (field-independent basis, Debye):
    X=             -1.5928    Y=             -0.8807    Z=              1.4035  Tot=              2.2983
 Quadrupole moment (field-independent basis, Debye-Ang):
   XX=           -259.6964   YY=           -246.9048   ZZ=           -265.7848
   XY=             11.7074   XZ=              1.0936   YZ=             -0.9122

 Normal termination of Gaussian 16 at Fri Jul 12 20:00:56 2019.
