 Gaussian 16, Revision A.03,
 Gaussian 16:  ES64L-G16RevA.03 25-Dec-2016

 -------------------------------------
 # td=(NStates=1) CAM-B3LYP/6-31G(d,p)
 -------------------------------------

 --
 TD
 --
 Symbolic Z-matrix:
 Charge =  0 Multiplicity = 1

                         Standard orientation:
 ---------------------------------------------------------------------
 Center     Atomic      Atomic             Coordinates (Angstroms)
 Number     Number       Type             X           Y           Z
 ---------------------------------------------------------------------
      1          8           0       14.798168   -2.134879    0.069014
      2          8           0      -14.669103    1.940832    1.196422
      3          6           0       11.144293   -1.519152    1.070359
      4          6           0      -12.319162   -0.962367    0.775552
      5          6           0       12.698674   -1.951361    1.205512
      6          6           0      -13.637571   -0.213774    0.829471
      7          6           0       13.473418   -1.873274   -0.143076
      8          6           0      -13.451179    1.306447    1.243355
      9          6           0       10.978295   -0.259007    0.178233
     10          6           0      -11.319658   -0.151468   -0.028638
     11          6           0       13.291040   -0.452257   -0.682865
     12          6           0      -12.687081    1.888938    0.059770
     13          6           0       12.023065    0.273804   -0.622379
     14          6           0      -11.486164    1.114050   -0.405610
     15          6           0       10.655917   -1.168892    2.471928
     16          6           0       10.377058   -2.702446    0.352101
     17          6           0      -11.768912   -1.225716    2.088299
     18          6           0      -12.706624   -2.414909   -0.027378
     19          6           0        9.684976    0.367707    0.089677
     20          6           0      -10.082896   -0.985850   -0.440990
     21          6           0       11.836945    1.361682   -1.626291
     22          6           0      -10.552159    1.885624   -1.284729
     23          6           0        9.361595    1.709701    0.211422
     24          6           0       -8.833705   -0.561384   -0.325624
     25          6           0        8.105679    2.354090    0.120972
     26          6           0       -7.616828   -1.389779   -0.579498
     27          6           0        7.906909    3.674281    0.804112
     28          6           0       -7.654966   -2.796864   -1.025431
     29          6           0        6.858622    1.614992   -0.242036
     30          6           0       -6.431180   -0.629153   -0.526059
     31          6           0        5.577370    2.025687   -0.110360
     32          6           0       -5.072321   -1.197076   -0.741399
     33          6           0        4.438022    1.228166   -0.384537
     34          6           0       -4.003668   -0.429673   -0.527206
     35          6           0        3.121605    1.644805   -0.109426
     36          6           0       -2.685351   -0.759137   -0.820920
     37          6           0        2.805770    3.084177    0.329493
     38          6           0       -2.431219   -2.289528   -1.159710
     39          6           0        2.027265    0.728153   -0.477045
     40          6           0       -1.671644    0.110748   -0.635829
     41          6           0        0.705332    0.931960   -0.463774
     42          6           0       -0.253298   -0.018729   -0.810874
     43          1           0       13.129764   -1.301207    2.017674
     44          1           0       12.734373   -2.909381    1.690017
     45          1           0      -14.214861   -0.767459    1.550557
     46          1           0      -14.095239   -0.416733   -0.204464
     47          1           0       12.894577   -2.721945   -0.619539
     48          1           0      -12.935389    1.443857    2.064314
     49          1           0       14.120245    0.217378   -0.071168
     50          1           0       13.596344   -0.612830   -1.742686
     51          1           0      -13.514383    2.087142   -0.868564
     52          1           0      -12.510879    3.002278    0.236729
     53          1           0       10.918603   -2.018756    3.244645
     54          1           0        9.590232   -0.972868    2.542956
     55          1           0       11.026516   -0.136198    2.743731
     56          1           0       10.670950   -2.714801   -0.802860
     57          1           0       10.717398   -3.568924    0.803465
     58          1           0        9.330971   -2.493097    0.726846
     59          1           0      -11.447294   -0.326232    2.564100
     60          1           0      -10.803150   -1.881268    2.183234
     61          1           0      -12.426735   -1.693194    2.806548
     62          1           0      -13.680361   -2.699470    0.434808
     63          1           0      -11.874684   -3.191004    0.100827
     64          1           0      -12.930634   -2.052107   -1.132768
     65          1           0        8.834838   -0.434514    0.147795
     66          1           0      -10.263865   -2.155203   -0.368216
     67          1           0       10.907982    1.653894   -1.908300
     68          1           0       12.343475    2.202886   -1.271249
     69          1           0       12.205868    1.015639   -2.594677
     70          1           0      -11.108234    2.489105   -1.998155
     71          1           0      -10.022194    1.119406   -1.957145
     72          1           0       -9.763134    2.498612   -0.791509
     73          1           0       14.854352   -2.991678    0.509161
     74          1           0      -15.090972    1.629102    1.970942
     75          1           0       10.245316    2.406436    0.333982
     76          1           0       -8.786765    0.357484    0.029562
     77          1           0        8.785788    4.049519    0.799388
     78          1           0        7.263837    4.434270    0.237784
     79          1           0        7.698285    3.631549    1.847755
     80          1           0       -8.621056   -3.491365   -0.550231
     81          1           0       -8.000893   -2.931792   -2.196731
     82          1           0       -6.676027   -3.437182   -0.695041
     83          1           0        6.982445    0.612426   -0.585141
     84          1           0       -6.308888    0.600891   -0.363837
     85          1           0        5.392503    3.088648    0.138471
     86          1           0       -5.189740   -2.218421   -1.085081
     87          1           0        4.546067    0.318910   -0.789904
     88          1           0       -4.224647    0.625487   -0.149244
     89          1           0        3.105388    3.322778    1.313804
     90          1           0        1.766988    3.333978    0.276267
     91          1           0        3.407557    3.817030   -0.306498
     92          1           0       -2.710877   -2.947693   -0.226990
     93          1           0       -3.008633   -2.674945   -2.071192
     94          1           0       -1.382065   -2.520754   -1.444114
     95          1           0        2.498836   -0.227654   -0.877624
     96          1           0       -2.088514    1.080072   -0.206803
     97          1           0        0.336653    1.845675   -0.357802
     98          1           0        0.303863   -0.942722   -0.972756
 ---------------------------------------------------------------------

 SCF Done:  E(RCAM-B3LYP) =  -1706.99799652     A.U. after   16 cycles

 Excitation energies and oscillator strengths:

 Excited State   1:      Singlet-A      1.8648 eV  664.88 nm  f=3.4104  <S**2>=0.000
     155 ->158        -0.12717
     156 ->157         0.70213
     156 <-157        -0.12586
 This state for optimization and/or second-order correction.
 Total Energy, E(TD-HF/TD-DFT) =  -1706.92946814
 Copying the excited state density for this state as the 1-particle RhoCI density.

 The electronic state is 1-A.
 Alpha  occ. eigenvalues --  -19.22075 -19.21102 -10.31247 -10.29930 -10.29353
 Alpha  occ. eigenvalues --  -10.28182 -10.28133 -10.28132 -10.27987 -10.27872
 Alpha  occ. eigenvalues --  -10.27304 -10.27138 -10.26914 -10.26789 -10.26777
 Alpha  occ. eigenvalues --  -10.26760 -10.26751 -10.26685 -10.26664 -10.26547
 Alpha  occ. eigenvalues --  -10.26471 -10.26417 -10.26100 -10.26010 -10.25923
 Alpha  occ. eigenvalues --  -10.25870 -10.25775 -10.25741 -10.25685 -10.25613
 Alpha  occ. eigenvalues --  -10.25512 -10.25507 -10.25495 -10.25246 -10.24856
 Alpha  occ. eigenvalues --  -10.24838 -10.24708 -10.24681 -10.24463 -10.24091
 Alpha  occ. eigenvalues --  -10.24055 -10.23712  -1.12043  -1.12022  -0.93177
 Alpha  occ. eigenvalues --   -0.92948  -0.91839  -0.91156  -0.89992  -0.89256
 Alpha  occ. eigenvalues --   -0.87502  -0.87111  -0.86366  -0.84955  -0.84261
 Alpha  occ. eigenvalues --   -0.82940  -0.81774  -0.80537  -0.79554  -0.77349
 Alpha  occ. eigenvalues --   -0.77076  -0.76545  -0.76233  -0.76021  -0.75255
 Alpha  occ. eigenvalues --   -0.75036  -0.74547  -0.73479  -0.72781  -0.70575
 Alpha  occ. eigenvalues --   -0.69053  -0.67593  -0.66038  -0.64683  -0.63863
 Alpha  occ. eigenvalues --   -0.63464  -0.62657  -0.61601  -0.60970  -0.60195
 Alpha  occ. eigenvalues --   -0.59977  -0.59597  -0.59181  -0.57795  -0.55636
 Alpha  occ. eigenvalues --   -0.55273  -0.54662  -0.54555  -0.54482  -0.53821
 Alpha  occ. eigenvalues --   -0.53176  -0.52377  -0.51739  -0.51424  -0.50349
 Alpha  occ. eigenvalues --   -0.50247  -0.50231  -0.49426  -0.49087  -0.48937
 Alpha  occ. eigenvalues --   -0.48503  -0.48043  -0.47887  -0.47812  -0.47413
 Alpha  occ. eigenvalues --   -0.47315  -0.47153  -0.47047  -0.46598  -0.46245
 Alpha  occ. eigenvalues --   -0.46045  -0.45592  -0.45560  -0.45302  -0.45082
 Alpha  occ. eigenvalues --   -0.45048  -0.44949  -0.44223  -0.44034  -0.43970
 Alpha  occ. eigenvalues --   -0.42939  -0.42660  -0.42376  -0.42227  -0.42031
 Alpha  occ. eigenvalues --   -0.41834  -0.41289  -0.41176  -0.40816  -0.40618
 Alpha  occ. eigenvalues --   -0.40345  -0.39943  -0.39921  -0.39322  -0.39083
 Alpha  occ. eigenvalues --   -0.38799  -0.38756  -0.38487  -0.37929  -0.37865
 Alpha  occ. eigenvalues --   -0.37587  -0.37421  -0.37176  -0.36929  -0.35889
 Alpha  occ. eigenvalues --   -0.35572  -0.34737  -0.34143  -0.32296  -0.31268
 Alpha  occ. eigenvalues --   -0.31150  -0.29466  -0.28000  -0.25896  -0.23135
 Alpha  occ. eigenvalues --   -0.18177
 Alpha virt. eigenvalues --   -0.06841  -0.01075   0.02442   0.05856   0.07557
 Alpha virt. eigenvalues --    0.09728   0.10857   0.11568   0.11852   0.12293
 Alpha virt. eigenvalues --    0.12684   0.12922   0.13245   0.13455   0.13831

 Mulliken charges:
               1
     1  O   -0.532607
     2  O   -0.529116
     3  C   -0.023093
     4  C   -0.021021
     5  C   -0.218836
     6  C   -0.199865
     7  C    0.183172
     8  C    0.174690
     9  C    0.049124
    10  C    0.053447
    11  C   -0.220704
    12  C   -0.232677
    13  C    0.054869
    14  C    0.079498
    15  C   -0.308292
    16  C   -0.296001
    17  C   -0.297354
    18  C   -0.312914
    19  C   -0.122125
    20  C   -0.136927
    21  C   -0.356718
    22  C   -0.377874
    23  C   -0.107609
    24  C   -0.049110
    25  C    0.049483
    26  C    0.091959
    27  C   -0.358586
    28  C   -0.361881
    29  C   -0.103363
    30  C   -0.117878
    31  C   -0.071790
    32  C   -0.064003
    33  C   -0.109890
    34  C   -0.127405
    35  C    0.105670
    36  C    0.137711
    37  C   -0.379881
    38  C   -0.367195
    39  C   -0.139189
    40  C   -0.141285
    41  C   -0.046020
    42  C   -0.101938
    43  H    0.089673
    44  H    0.073939
    45  H    0.072954
    46  H    0.100440
    47  H    0.067514
    48  H    0.092879
    49  H    0.104567
    50  H    0.108467
    51  H    0.088116
    52  H    0.094846
    53  H    0.086868
    54  H    0.106203
    55  H    0.113506
    56  H    0.105199
    57  H    0.109187
    58  H    0.103082
    59  H    0.105717
    60  H    0.091828
    61  H    0.095093
    62  H    0.102751
    63  H    0.100483
    64  H    0.102812
    65  H    0.080613
    66  H    0.059780
    67  H    0.132972
    68  H    0.123992
    69  H    0.105307
    70  H    0.109345
    71  H    0.114770
    72  H    0.114548
    73  H    0.310167
    74  H    0.296547
    75  H    0.080490
    76  H    0.082280
    77  H    0.114685
    78  H    0.105799
    79  H    0.132611
    80  H    0.081694
    81  H    0.121283
    82  H    0.111858
    83  H    0.072840
    84  H    0.074456
    85  H    0.078257
    86  H    0.086545
    87  H    0.075077
    88  H    0.078024
    89  H    0.130037
    90  H    0.115245
    91  H    0.113432
    92  H    0.111884
    93  H    0.109044
    94  H    0.108454
    95  H    0.074106
    96  H    0.076177
    97  H    0.074455
    98  H    0.080622
 Sum of Mulliken charges =  -0.00000

 Dipole moment (field-independent basis, Debye):
    X=              1.6701    Y=             -1.5823    Z=              2.1954  Tot=              3.1801
 Quadrupole moment (field-independent basis, Debye-Ang):
   XX=           -266.3415   YY=           -241.4088   ZZ=           -258.7759
   XY=              2.1568   XZ=            -13.1930   YZ=              2.9647

 Normal termination of Gaussian 16 at Thu Jul 11 12:59:41 2019.
