 Gaussian 16, Revision A.03,
 Gaussian 16:  ES64L-G16RevA.03 25-Dec-2016

 -------------------------------------
 # td=(NStates=1) CAM-B3LYP/6-31G(d,p)
 -------------------------------------

 --
 TD
 --
 Symbolic Z-matrix:
 Charge =  0 Multiplicity = 1

                         Standard orientation:
 ---------------------------------------------------------------------
 Center     Atomic      Atomic             Coordinates (Angstroms)
 Number     Number       Type             X           Y           Z
 ---------------------------------------------------------------------
      1          8           0       14.703810   -2.108907   -0.135400
      2          8           0      -14.622527    1.917417    0.989299
      3          6           0       11.120829   -1.562513    0.912287
      4          6           0      -12.348448   -0.980283    0.580053
      5          6           0       12.612826   -1.758808    1.115907
      6          6           0      -13.636435   -0.254066    0.618815
      7          6           0       13.330043   -1.845091   -0.192393
      8          6           0      -13.405017    1.275368    0.887232
      9          6           0       10.913491   -0.306708    0.001830
     10          6           0      -11.335140   -0.239036   -0.208999
     11          6           0       13.190119   -0.534415   -0.879045
     12          6           0      -12.653742    1.810021   -0.302357
     13          6           0       11.868207    0.118799   -0.873326
     14          6           0      -11.404118    1.032731   -0.572019
     15          6           0       10.583135   -1.288240    2.264221
     16          6           0       10.368486   -2.753002    0.227392
     17          6           0      -11.893903   -1.444507    2.066796
     18          6           0      -12.690822   -2.471874   -0.264236
     19          6           0        9.603378    0.277222    0.027461
     20          6           0      -10.006217   -0.987859   -0.256007
     21          6           0       11.626526    1.086543   -1.874425
     22          6           0      -10.361681    1.716036   -1.466917
     23          6           0        9.348040    1.673112    0.003250
     24          6           0       -8.737007   -0.492971   -0.139890
     25          6           0        7.993576    2.293121    0.143886
     26          6           0       -7.576930   -1.226259   -0.518707
     27          6           0        8.014922    3.800372    0.368680
     28          6           0       -7.617389   -2.576749   -0.984649
     29          6           0        6.849928    1.586448    0.107954
     30          6           0       -6.301637   -0.540642   -0.395452
     31          6           0        5.511353    2.075874    0.192344
     32          6           0       -4.993537   -0.974301   -0.634502
     33          6           0        4.355353    1.343325    0.084955
     34          6           0       -3.844480   -0.284293   -0.460440
     35          6           0        3.025217    1.719013    0.212796
     36          6           0       -2.518214   -0.836419   -0.420910
     37          6           0        2.649571    3.202866    0.554390
     38          6           0       -2.209921   -2.215685   -0.885638
     39          6           0        2.062239    0.791533   -0.039094
     40          6           0       -1.495605    0.147910   -0.207810
     41          6           0        0.716776    1.022539    0.023242
     42          6           0       -0.168241   -0.072432   -0.316332
     43          1           0       13.185753   -1.157805    1.706334
     44          1           0       12.642885   -2.731510    1.685369
     45          1           0      -14.309987   -0.665303    1.370570
     46          1           0      -14.104326   -0.317290   -0.430511
     47          1           0       12.591100   -2.741347   -0.657205
     48          1           0      -12.654833    1.247801    1.735483
     49          1           0       13.751388    0.273590   -0.294555
     50          1           0       13.753016   -0.648939   -1.900970
     51          1           0      -13.474530    1.802605   -1.102067
     52          1           0      -12.492705    2.969065   -0.217478
     53          1           0       10.724067   -2.056565    2.942398
     54          1           0        9.576576   -0.789829    2.460450
     55          1           0       11.236829   -0.377701    2.473113
     56          1           0       10.626008   -3.021578   -0.789327
     57          1           0       10.283618   -3.460759    0.982492
     58          1           0        9.316840   -2.498202    0.189372
     59          1           0      -11.599066   -0.572645    2.682432
     60          1           0      -10.974937   -1.916321    1.970496
     61          1           0      -12.640841   -1.952542    2.512517
     62          1           0      -13.578935   -3.119609    0.014623
     63          1           0      -11.767102   -3.062208   -0.013541
     64          1           0      -12.584386   -2.290338   -1.357662
     65          1           0        8.705648   -0.409436    0.300566
     66          1           0      -10.263713   -1.953233   -0.510031
     67          1           0       10.585856    1.255705   -1.889779
     68          1           0       11.866237    2.281502   -1.667886
     69          1           0       12.157199    0.774813   -2.766870
     70          1           0      -11.070239    2.218214   -2.365560
     71          1           0       -9.645894    1.114085   -1.877595
     72          1           0      -10.019232    2.497053   -1.053098
     73          1           0       14.850189   -3.058369    0.110019
     74          1           0      -15.048418    1.636570    1.760532
     75          1           0       10.068556    2.491891    0.036822
     76          1           0       -8.548107    0.585425    0.124887
     77          1           0        8.921336    4.385113    0.240086
     78          1           0        7.143076    4.361588   -0.325905
     79          1           0        7.440064    4.113586    1.407233
     80          1           0       -8.058776   -3.405274   -0.320829
     81          1           0       -8.284409   -2.738912   -1.855377
     82          1           0       -6.756793   -3.172910   -1.280554
     83          1           0        6.710701    0.452771    0.034978
     84          1           0       -6.319340    0.497538    0.077805
     85          1           0        5.560196    3.270782    0.250335
     86          1           0       -4.908200   -2.043850   -0.881227
     87          1           0        4.409225    0.294251   -0.138082
     88          1           0       -3.898789    0.627771    0.019200
     89          1           0        3.397192    3.402063    1.503714
     90          1           0        1.658833    3.327859    0.829627
     91          1           0        3.036117    3.851807   -0.277375
     92          1           0       -2.996021   -2.989763   -0.424211
     93          1           0       -2.481912   -2.276748   -1.911921
     94          1           0       -1.086687   -2.457962   -0.595841
     95          1           0        2.620971   -0.181778   -0.309443
     96          1           0       -1.696362    1.062428    0.002811
     97          1           0        0.242216    1.843663    0.722907
     98          1           0        0.279391   -0.998978   -0.765509
 ---------------------------------------------------------------------

 SCF Done:  E(RCAM-B3LYP) =  -1706.97270733     A.U. after   15 cycles

 Excitation energies and oscillator strengths:

 Excited State   1:      Singlet-A      1.9539 eV  634.54 nm  f=3.7783  <S**2>=0.000
     155 ->158         0.14685
     156 ->157         0.69396
 This state for optimization and/or second-order correction.
 Total Energy, E(TD-HF/TD-DFT) =  -1706.90090149
 Copying the excited state density for this state as the 1-particle RhoCI density.

 The electronic state is 1-A.
 Alpha  occ. eigenvalues --  -19.22189 -19.21477 -10.30928 -10.30067 -10.28307
 Alpha  occ. eigenvalues --  -10.27978 -10.27934 -10.27718 -10.27621 -10.27495
 Alpha  occ. eigenvalues --  -10.27493 -10.27244 -10.27243 -10.26921 -10.26917
 Alpha  occ. eigenvalues --  -10.26834 -10.26697 -10.26521 -10.26489 -10.26460
 Alpha  occ. eigenvalues --  -10.26370 -10.26029 -10.25950 -10.25895 -10.25735
 Alpha  occ. eigenvalues --  -10.25729 -10.25697 -10.25672 -10.25662 -10.25647
 Alpha  occ. eigenvalues --  -10.25453 -10.25286 -10.25286 -10.25125 -10.24681
 Alpha  occ. eigenvalues --  -10.24422 -10.24262 -10.24218 -10.24212 -10.24191
 Alpha  occ. eigenvalues --  -10.23800 -10.23668  -1.11741  -1.10123  -0.94565
 Alpha  occ. eigenvalues --   -0.93571  -0.92569  -0.91663  -0.90550  -0.89827
 Alpha  occ. eigenvalues --   -0.88558  -0.87388  -0.85900  -0.85517  -0.84579
 Alpha  occ. eigenvalues --   -0.83398  -0.81956  -0.80075  -0.79640  -0.78321
 Alpha  occ. eigenvalues --   -0.77669  -0.77182  -0.76304  -0.76142  -0.75921
 Alpha  occ. eigenvalues --   -0.75869  -0.75066  -0.74369  -0.73063  -0.71094
 Alpha  occ. eigenvalues --   -0.68962  -0.67589  -0.65540  -0.64842  -0.64380
 Alpha  occ. eigenvalues --   -0.63741  -0.62597  -0.62409  -0.60598  -0.60335
 Alpha  occ. eigenvalues --   -0.59900  -0.59510  -0.59174  -0.57280  -0.56331
 Alpha  occ. eigenvalues --   -0.56245  -0.55197  -0.54697  -0.54482  -0.53958
 Alpha  occ. eigenvalues --   -0.53442  -0.53046  -0.52131  -0.51835  -0.51549
 Alpha  occ. eigenvalues --   -0.50598  -0.49941  -0.49649  -0.49478  -0.49074
 Alpha  occ. eigenvalues --   -0.48478  -0.48437  -0.48096  -0.47996  -0.47800
 Alpha  occ. eigenvalues --   -0.47419  -0.47327  -0.47203  -0.46955  -0.46561
 Alpha  occ. eigenvalues --   -0.46242  -0.45629  -0.45549  -0.45371  -0.45210
 Alpha  occ. eigenvalues --   -0.44719  -0.44370  -0.44044  -0.43801  -0.43469
 Alpha  occ. eigenvalues --   -0.43311  -0.43241  -0.42616  -0.42374  -0.42072
 Alpha  occ. eigenvalues --   -0.41931  -0.41613  -0.41567  -0.41501  -0.40520
 Alpha  occ. eigenvalues --   -0.40433  -0.40184  -0.39978  -0.39641  -0.39336
 Alpha  occ. eigenvalues --   -0.39105  -0.38778  -0.38241  -0.38170  -0.37675
 Alpha  occ. eigenvalues --   -0.37537  -0.37237  -0.37088  -0.36731  -0.36223
 Alpha  occ. eigenvalues --   -0.36041  -0.34804  -0.33761  -0.32205  -0.31400
 Alpha  occ. eigenvalues --   -0.30901  -0.29233  -0.28105  -0.25640  -0.23012
 Alpha  occ. eigenvalues --   -0.18511
 Alpha virt. eigenvalues --   -0.06503  -0.01366   0.01782   0.05665   0.07162
 Alpha virt. eigenvalues --    0.09593   0.10942   0.11629   0.11815   0.12405
 Alpha virt. eigenvalues --    0.12598   0.13124   0.13296   0.13372   0.14183

 Mulliken charges:
               1
     1  O   -0.556651
     2  O   -0.540784
     3  C   -0.028529
     4  C   -0.016895
     5  C   -0.173639
     6  C   -0.174858
     7  C    0.178057
     8  C    0.161034
     9  C    0.068582
    10  C    0.057769
    11  C   -0.221258
    12  C   -0.226331
    13  C    0.094331
    14  C    0.053720
    15  C   -0.308960
    16  C   -0.309617
    17  C   -0.305537
    18  C   -0.343762
    19  C   -0.141204
    20  C   -0.127564
    21  C   -0.365759
    22  C   -0.335177
    23  C   -0.111729
    24  C   -0.112354
    25  C    0.102515
    26  C    0.155772
    27  C   -0.383837
    28  C   -0.407678
    29  C   -0.104871
    30  C   -0.149971
    31  C   -0.090692
    32  C   -0.074299
    33  C   -0.134295
    34  C   -0.098744
    35  C    0.129673
    36  C    0.084253
    37  C   -0.346893
    38  C   -0.368090
    39  C   -0.107724
    40  C   -0.073910
    41  C   -0.144421
    42  C   -0.079271
    43  H    0.107556
    44  H    0.065321
    45  H    0.069933
    46  H    0.090535
    47  H    0.040266
    48  H    0.073078
    49  H    0.118816
    50  H    0.100335
    51  H    0.112671
    52  H    0.090065
    53  H    0.103582
    54  H    0.101704
    55  H    0.103319
    56  H    0.120511
    57  H    0.104523
    58  H    0.103321
    59  H    0.096036
    60  H    0.115677
    61  H    0.112665
    62  H    0.103468
    63  H    0.096198
    64  H    0.109436
    65  H    0.096357
    66  H    0.079417
    67  H    0.132762
    68  H    0.079153
    69  H    0.108230
    70  H    0.071532
    71  H    0.131841
    72  H    0.127633
    73  H    0.312013
    74  H    0.302928
    75  H    0.087357
    76  H    0.094346
    77  H    0.122153
    78  H    0.095426
    79  H    0.110107
    80  H    0.110512
    81  H    0.119550
    82  H    0.119528
    83  H    0.073231
    84  H    0.069517
    85  H    0.061481
    86  H    0.066506
    87  H    0.072140
    88  H    0.079162
    89  H    0.093506
    90  H    0.111343
    91  H    0.126645
    92  H    0.101613
    93  H    0.144401
    94  H    0.105542
    95  H    0.077411
    96  H    0.065794
    97  H    0.102043
    98  H    0.089400
 Sum of Mulliken charges =  -0.00000

 Dipole moment (field-independent basis, Debye):
    X=             -0.0196    Y=             -2.2068    Z=              1.6031  Tot=              2.7277
 Quadrupole moment (field-independent basis, Debye-Ang):
   XX=           -273.1353   YY=           -241.8801   ZZ=           -262.3530
   XY=              1.9630   XZ=             -9.5246   YZ=              3.0148

 Normal termination of Gaussian 16 at Thu Jul 18 14:55:53 2019.
