 Gaussian 16, Revision A.03,
 Gaussian 16:  ES64L-G16RevA.03 25-Dec-2016

 -------------------------------------
 # td=(NStates=1) CAM-B3LYP/6-31G(d,p)
 -------------------------------------

 --
 TD
 --
 Symbolic Z-matrix:
 Charge =  0 Multiplicity = 1

                         Standard orientation:
 ---------------------------------------------------------------------
 Center     Atomic      Atomic             Coordinates (Angstroms)
 Number     Number       Type             X           Y           Z
 ---------------------------------------------------------------------
      1          8           0       14.892688   -2.195186   -0.158930
      2          8           0      -14.727990    1.886617    1.035883
      3          6           0       11.196316   -1.429976    0.991964
      4          6           0      -12.401479   -0.946656    0.642355
      5          6           0       12.694399   -1.882533    1.039286
      6          6           0      -13.661306   -0.264543    0.586338
      7          6           0       13.514326   -1.925313   -0.342971
      8          6           0      -13.530353    1.231464    0.911418
      9          6           0       11.087646   -0.225720    0.045334
     10          6           0      -11.244950   -0.172418   -0.226828
     11          6           0       13.272645   -0.503057   -0.883464
     12          6           0      -12.686008    1.791105   -0.211651
     13          6           0       11.927720    0.172622   -0.803254
     14          6           0      -11.457308    1.067716   -0.622758
     15          6           0       10.731406   -1.149188    2.438431
     16          6           0       10.347185   -2.678495    0.472672
     17          6           0      -11.940353   -1.339703    2.085342
     18          6           0      -12.549486   -2.352276   -0.125260
     19          6           0        9.636605    0.372189    0.092965
     20          6           0      -10.057866   -0.947463   -0.432818
     21          6           0       11.727790    1.176392   -1.942487
     22          6           0      -10.477469    1.846415   -1.418295
     23          6           0        9.372472    1.712087    0.119496
     24          6           0       -8.837078   -0.546960   -0.287336
     25          6           0        8.053872    2.261744    0.176152
     26          6           0       -7.580424   -1.304203   -0.549083
     27          6           0        8.060087    3.651189    0.543089
     28          6           0       -7.703008   -2.768811   -0.826028
     29          6           0        6.869486    1.570468   -0.001359
     30          6           0       -6.410720   -0.605801   -0.383033
     31          6           0        5.550849    2.044293    0.213850
     32          6           0       -5.112994   -1.202699   -0.544498
     33          6           0        4.379070    1.273914   -0.007227
     34          6           0       -4.014901   -0.337156   -0.437660
     35          6           0        3.111838    1.720543    0.093426
     36          6           0       -2.673933   -0.705542   -0.614787
     37          6           0        2.808462    3.145282    0.601080
     38          6           0       -2.432685   -2.148484   -1.029825
     39          6           0        2.060197    0.768764   -0.085114
     40          6           0       -1.583937    0.151219   -0.358150
     41          6           0        0.748820    0.948456   -0.012357
     42          6           0       -0.264893   -0.048078   -0.390252
     43          1           0       13.099504   -1.053360    1.680607
     44          1           0       12.750338   -2.830136    1.482421
     45          1           0      -14.314608   -0.774562    1.356089
     46          1           0      -14.276139   -0.297445   -0.359367
     47          1           0       12.927780   -2.665999   -1.076446
     48          1           0      -12.936478    1.519958    1.735865
     49          1           0       14.059716    0.199369   -0.364541
     50          1           0       13.715030   -0.345720   -2.078067
     51          1           0      -13.411447    1.835818   -1.057070
     52          1           0      -12.281804    2.865187   -0.246462
     53          1           0       10.761061   -2.117004    3.006019
     54          1           0        9.710173   -0.723951    2.438185
     55          1           0       11.556783   -0.441956    2.916279
     56          1           0       10.466474   -2.716349   -0.601997
     57          1           0       10.736956   -3.540294    0.989215
     58          1           0        9.330131   -2.169825    0.637217
     59          1           0      -11.869040   -0.379702    2.803576
     60          1           0      -11.041294   -2.022270    2.051648
     61          1           0      -12.808415   -1.942748    2.571585
     62          1           0      -13.569776   -2.709534    0.295987
     63          1           0      -11.852862   -3.004704    0.228636
     64          1           0      -12.721373   -2.455288   -1.221537
     65          1           0        8.774787   -0.181153   -0.016440
     66          1           0      -10.382940   -2.013406   -0.442032
     67          1           0       10.578248    1.376837   -2.185718
     68          1           0       12.112571    2.120802   -1.638369
     69          1           0       12.242811    0.755182   -2.839479
     70          1           0      -11.070862    2.773886   -1.989373
     71          1           0      -10.069430    1.232792   -2.129341
     72          1           0       -9.984832    2.579596   -0.779268
     73          1           0       14.797481   -3.240434   -0.175376
     74          1           0      -15.162464    1.394892    1.719019
     75          1           0       10.040199    2.426509    0.179127
     76          1           0       -8.609233    0.547289   -0.176221
     77          1           0        9.098059    4.026260    0.776957
     78          1           0        7.554834    4.464183   -0.239238
     79          1           0        7.480604    3.752652    1.501791
     80          1           0       -8.147589   -3.468604   -0.084610
     81          1           0       -8.316246   -2.901099   -1.714283
     82          1           0       -6.704625   -3.087575   -1.185373
     83          1           0        6.839910    0.408214   -0.151455
     84          1           0       -6.619707    0.508262   -0.310670
     85          1           0        5.560513    2.994161    0.339156
     86          1           0       -5.024457   -2.211658   -0.679972
     87          1           0        4.477766    0.241834   -0.371238
     88          1           0       -4.179187    0.763284   -0.455289
     89          1           0        3.481285    3.320393    1.426606
     90          1           0        1.766689    3.405127    1.012465
     91          1           0        2.998998    3.747648   -0.298913
     92          1           0       -3.001389   -2.893853   -0.360381
     93          1           0       -2.877884   -2.390834   -1.978921
     94          1           0       -1.356396   -2.532341   -0.936634
     95          1           0        2.513024   -0.157405   -0.456110
     96          1           0       -1.848736    1.062654    0.187252
     97          1           0        0.425973    1.987181   -0.056498
     98          1           0        0.083691   -1.096953   -0.794859
 ---------------------------------------------------------------------

 SCF Done:  E(RCAM-B3LYP) =  -1707.00747605     A.U. after   16 cycles

 Excitation energies and oscillator strengths:

 Excited State   1:      Singlet-A      1.7629 eV  703.31 nm  f=3.5765  <S**2>=0.000
     155 ->158         0.11096
     156 ->157         0.71200
     156 <-157        -0.15645
 This state for optimization and/or second-order correction.
 Total Energy, E(TD-HF/TD-DFT) =  -1706.94269176
 Copying the excited state density for this state as the 1-particle RhoCI density.

 The electronic state is 1-A.
 Alpha  occ. eigenvalues --  -19.23459 -19.21368 -10.32447 -10.29657 -10.28145
 Alpha  occ. eigenvalues --  -10.27552 -10.27347 -10.27327 -10.27222 -10.27189
 Alpha  occ. eigenvalues --  -10.27059 -10.26976 -10.26783 -10.26496 -10.26479
 Alpha  occ. eigenvalues --  -10.26398 -10.26379 -10.26288 -10.26126 -10.26096
 Alpha  occ. eigenvalues --  -10.26047 -10.26018 -10.25834 -10.25813 -10.25711
 Alpha  occ. eigenvalues --  -10.25702 -10.25680 -10.25664 -10.25632 -10.25557
 Alpha  occ. eigenvalues --  -10.25549 -10.25470 -10.25327 -10.25295 -10.25131
 Alpha  occ. eigenvalues --  -10.25095 -10.25007 -10.24949 -10.24722 -10.24671
 Alpha  occ. eigenvalues --  -10.24595 -10.24571  -1.12039  -1.09681  -0.93932
 Alpha  occ. eigenvalues --   -0.93416  -0.92345  -0.91761  -0.91050  -0.90148
 Alpha  occ. eigenvalues --   -0.87943  -0.87236  -0.86740  -0.85753  -0.84371
 Alpha  occ. eigenvalues --   -0.82955  -0.81706  -0.80458  -0.79553  -0.78873
 Alpha  occ. eigenvalues --   -0.76606  -0.76484  -0.76122  -0.75971  -0.75436
 Alpha  occ. eigenvalues --   -0.75332  -0.75047  -0.73764  -0.73093  -0.71109
 Alpha  occ. eigenvalues --   -0.68980  -0.68341  -0.66189  -0.64574  -0.64282
 Alpha  occ. eigenvalues --   -0.63410  -0.62876  -0.61899  -0.60651  -0.60329
 Alpha  occ. eigenvalues --   -0.59457  -0.59156  -0.58054  -0.57320  -0.56311
 Alpha  occ. eigenvalues --   -0.56009  -0.54879  -0.54438  -0.54169  -0.53444
 Alpha  occ. eigenvalues --   -0.53217  -0.52846  -0.52530  -0.51599  -0.51507
 Alpha  occ. eigenvalues --   -0.50347  -0.50174  -0.49893  -0.49739  -0.49264
 Alpha  occ. eigenvalues --   -0.49092  -0.48971  -0.48409  -0.48377  -0.48260
 Alpha  occ. eigenvalues --   -0.47914  -0.47479  -0.47271  -0.47053  -0.46632
 Alpha  occ. eigenvalues --   -0.46242  -0.46011  -0.45687  -0.45226  -0.44745
 Alpha  occ. eigenvalues --   -0.44612  -0.44497  -0.43984  -0.43494  -0.43281
 Alpha  occ. eigenvalues --   -0.43202  -0.43048  -0.42890  -0.42522  -0.42473
 Alpha  occ. eigenvalues --   -0.42082  -0.41984  -0.41548  -0.41187  -0.40780
 Alpha  occ. eigenvalues --   -0.40488  -0.40043  -0.39746  -0.39497  -0.39136
 Alpha  occ. eigenvalues --   -0.38970  -0.38846  -0.38370  -0.38315  -0.38218
 Alpha  occ. eigenvalues --   -0.37896  -0.37388  -0.36585  -0.36455  -0.36103
 Alpha  occ. eigenvalues --   -0.35150  -0.34724  -0.33583  -0.32470  -0.32216
 Alpha  occ. eigenvalues --   -0.31660  -0.29982  -0.28824  -0.26411  -0.23854
 Alpha  occ. eigenvalues --   -0.17731
 Alpha virt. eigenvalues --   -0.07568  -0.00399   0.02929   0.06600   0.08713
 Alpha virt. eigenvalues --    0.09901   0.10087   0.11566   0.11797   0.12332
 Alpha virt. eigenvalues --    0.12857   0.13246   0.13412   0.13936   0.14102

 Mulliken charges:
               1
     1  O   -0.528698
     2  O   -0.542100
     3  C   -0.053198
     4  C   -0.001250
     5  C   -0.183358
     6  C   -0.208655
     7  C    0.153676
     8  C    0.171881
     9  C    0.063259
    10  C    0.067496
    11  C   -0.227811
    12  C   -0.236308
    13  C    0.087510
    14  C    0.074596
    15  C   -0.283230
    16  C   -0.291549
    17  C   -0.293357
    18  C   -0.322325
    19  C   -0.131668
    20  C   -0.131903
    21  C   -0.351319
    22  C   -0.369295
    23  C   -0.063609
    24  C   -0.092318
    25  C    0.107701
    26  C    0.102214
    27  C   -0.394424
    28  C   -0.375332
    29  C   -0.125286
    30  C   -0.114187
    31  C   -0.079640
    32  C   -0.085776
    33  C   -0.121293
    34  C   -0.122608
    35  C    0.106567
    36  C    0.115306
    37  C   -0.371879
    38  C   -0.386218
    39  C   -0.096282
    40  C   -0.114599
    41  C   -0.119765
    42  C   -0.085486
    43  H    0.095302
    44  H    0.071236
    45  H    0.070820
    46  H    0.111572
    47  H    0.066949
    48  H    0.080442
    49  H    0.109834
    50  H    0.053805
    51  H    0.109801
    52  H    0.085470
    53  H    0.097563
    54  H    0.111974
    55  H    0.087689
    56  H    0.106378
    57  H    0.108376
    58  H    0.096588
    59  H    0.096290
    60  H    0.112901
    61  H    0.089846
    62  H    0.076996
    63  H    0.113323
    64  H    0.114533
    65  H    0.088580
    66  H    0.069194
    67  H    0.108267
    68  H    0.126656
    69  H    0.110576
    70  H    0.066844
    71  H    0.137052
    72  H    0.132653
    73  H    0.319279
    74  H    0.304794
    75  H    0.063103
    76  H    0.076744
    77  H    0.107632
    78  H    0.099142
    79  H    0.125694
    80  H    0.123342
    81  H    0.124862
    82  H    0.100150
    83  H    0.063748
    84  H    0.083983
    85  H    0.068462
    86  H    0.091982
    87  H    0.083309
    88  H    0.088337
    89  H    0.126382
    90  H    0.107813
    91  H    0.128214
    92  H    0.108984
    93  H    0.128061
    94  H    0.102985
    95  H    0.072535
    96  H    0.079063
    97  H    0.093902
    98  H    0.074503
 Sum of Mulliken charges =  -0.00000

 Dipole moment (field-independent basis, Debye):
    X=             -1.1913    Y=             -2.1794    Z=              0.3872  Tot=              2.5138
 Quadrupole moment (field-independent basis, Debye-Ang):
   XX=           -276.7674   YY=           -240.2844   ZZ=           -262.8948
   XY=             10.1460   XZ=            -12.5793   YZ=              3.4158

 Normal termination of Gaussian 16 at Sat Jul 13 04:42:19 2019.
