 Gaussian 16, Revision A.03,
 Gaussian 16:  ES64L-G16RevA.03 25-Dec-2016

 -------------------------------------
 # td=(NStates=1) CAM-B3LYP/6-31G(d,p)
 -------------------------------------

 --
 TD
 --
 Symbolic Z-matrix:
 Charge =  0 Multiplicity = 1

                         Standard orientation:
 ---------------------------------------------------------------------
 Center     Atomic      Atomic             Coordinates (Angstroms)
 Number     Number       Type             X           Y           Z
 ---------------------------------------------------------------------
      1          8           0       14.687940   -2.179599   -0.111552
      2          8           0      -14.780805    1.976113    1.180232
      3          6           0       11.159358   -1.482979    1.034053
      4          6           0      -12.226334   -0.874352    0.746133
      5          6           0       12.604691   -1.799385    1.084904
      6          6           0      -13.626543   -0.200783    0.983220
      7          6           0       13.346474   -1.873166   -0.286672
      8          6           0      -13.558634    1.285071    1.014561
      9          6           0       11.065301   -0.184262    0.035121
     10          6           0      -11.317837   -0.223595   -0.235477
     11          6           0       13.294175   -0.467569   -0.943049
     12          6           0      -12.844471    1.728060   -0.372581
     13          6           0       11.905700    0.143227   -0.820948
     14          6           0      -11.612339    1.024327   -0.626618
     15          6           0       10.726225   -1.034498    2.428937
     16          6           0       10.356800   -2.548837    0.466093
     17          6           0      -11.555619   -1.023900    2.044976
     18          6           0      -12.556574   -2.373004    0.259566
     19          6           0        9.710748    0.466159    0.195442
     20          6           0      -10.123520   -0.979298   -0.411402
     21          6           0       11.771287    1.214722   -1.900917
     22          6           0      -10.730395    1.652544   -1.716626
     23          6           0        9.395821    1.697936    0.176275
     24          6           0       -8.835870   -0.476198   -0.404629
     25          6           0        8.048381    2.346606    0.234589
     26          6           0       -7.662562   -1.318256   -0.647363
     27          6           0        7.884888    3.737804    0.653057
     28          6           0       -7.816561   -2.824820   -0.741807
     29          6           0        7.012952    1.532190    0.056529
     30          6           0       -6.533893   -0.595402   -0.654019
     31          6           0        5.630304    1.848435    0.231096
     32          6           0       -5.024282   -0.985506   -0.682921
     33          6           0        4.542621    1.110974   -0.075549
     34          6           0       -3.920465   -0.370880   -0.449853
     35          6           0        3.202597    1.609625    0.008635
     36          6           0       -2.665549   -0.800552   -0.715632
     37          6           0        2.844914    3.041785    0.499732
     38          6           0       -2.392742   -2.224004   -0.967423
     39          6           0        2.213778    0.700364   -0.232272
     40          6           0       -1.547627    0.102505   -0.558871
     41          6           0        0.776386    0.902426   -0.308380
     42          6           0       -0.173661   -0.066058   -0.606003
     43          1           0       13.313173   -1.088059    1.830637
     44          1           0       12.806507   -2.757660    1.507280
     45          1           0      -14.110442   -0.494428    1.937010
     46          1           0      -14.335422   -0.456196    0.071598
     47          1           0       12.798619   -2.655604   -0.781781
     48          1           0      -12.779094    1.582627    1.828772
     49          1           0       14.043971    0.202811   -0.434087
     50          1           0       13.442912   -0.764400   -2.077866
     51          1           0      -13.610621    1.508044   -1.209252
     52          1           0      -12.780765    2.814371   -0.422372
     53          1           0       10.917706   -1.726635    3.168734
     54          1           0        9.555642   -0.714222    2.351684
     55          1           0       11.240753   -0.101532    2.935650
     56          1           0       10.528597   -2.854390   -0.445051
     57          1           0       10.225706   -3.471896    1.185307
     58          1           0        9.251833   -2.166709    0.495685
     59          1           0      -11.442095   -0.062271    2.495420
     60          1           0      -10.581939   -1.437874    1.963987
     61          1           0      -12.182066   -1.608902    2.744521
     62          1           0      -13.141607   -2.777958    0.943970
     63          1           0      -11.749559   -2.986651    0.369645
     64          1           0      -12.984163   -2.470019   -0.785048
     65          1           0        9.034924   -0.474086    0.309256
     66          1           0      -10.316134   -1.975442   -0.476338
     67          1           0       10.626069    1.387856   -2.087621
     68          1           0       12.063261    2.123129   -1.476310
     69          1           0       12.338269    0.966862   -2.699327
     70          1           0      -11.334473    2.150972   -2.530709
     71          1           0       -9.943877    1.068929   -1.957316
     72          1           0       -9.957172    2.410777   -1.167729
     73          1           0       14.656534   -3.219530    0.386763
     74          1           0      -15.228300    1.459960    1.945615
     75          1           0       10.203993    2.471678    0.140896
     76          1           0       -8.685742    0.691538   -0.262456
     77          1           0        8.825839    4.318733    0.726553
     78          1           0        7.056092    4.337423    0.044098
     79          1           0        7.391748    3.783114    1.609041
     80          1           0       -7.907556   -3.459351    0.276756
     81          1           0       -8.664705   -3.277771   -1.604618
     82          1           0       -6.833033   -3.267839   -1.171941
     83          1           0        7.222081    0.561840   -0.498182
     84          1           0       -6.446438    0.477860   -0.305973
     85          1           0        5.423709    2.873724    0.353274
     86          1           0       -4.806228   -2.012131   -0.925653
     87          1           0        4.405580    0.047578   -0.348058
     88          1           0       -4.005933    0.771014   -0.205050
     89          1           0        2.600476    2.839144    1.871914
     90          1           0        1.843456    3.170576   -0.293383
     91          1           0        3.734653    3.815865    0.280377
     92          1           0       -2.860426   -2.854989   -0.291356
     93          1           0       -2.745095   -2.844870   -2.040317
     94          1           0       -1.230535   -2.511114   -0.962768
     95          1           0        2.481457   -0.289398   -0.658112
     96          1           0       -1.812262    1.163715   -0.122681
     97          1           0        0.267230    1.814354    0.147766
     98          1           0        0.310275   -0.909407   -0.993747
 ---------------------------------------------------------------------

 SCF Done:  E(RCAM-B3LYP) =  -1706.88791832     A.U. after   15 cycles

 Excitation energies and oscillator strengths:

 Excited State   1:      Singlet-A      2.4938 eV  497.18 nm  f=3.5204  <S**2>=0.000
     155 ->158         0.14414
     156 ->157         0.68932
 This state for optimization and/or second-order correction.
 Total Energy, E(TD-HF/TD-DFT) =  -1706.79627390
 Copying the excited state density for this state as the 1-particle RhoCI density.

 The electronic state is 1-A.
 Alpha  occ. eigenvalues --  -19.22755 -19.22338 -10.31231 -10.30901 -10.29833
 Alpha  occ. eigenvalues --  -10.29813 -10.28619 -10.27986 -10.27802 -10.27755
 Alpha  occ. eigenvalues --  -10.27662 -10.27467 -10.27423 -10.27362 -10.27314
 Alpha  occ. eigenvalues --  -10.26884 -10.26708 -10.26594 -10.26403 -10.26331
 Alpha  occ. eigenvalues --  -10.26215 -10.26171 -10.26060 -10.25909 -10.25873
 Alpha  occ. eigenvalues --  -10.25713 -10.25712 -10.25627 -10.25600 -10.25563
 Alpha  occ. eigenvalues --  -10.25491 -10.25405 -10.25126 -10.25062 -10.25039
 Alpha  occ. eigenvalues --  -10.24898 -10.24895 -10.24611 -10.24596 -10.23821
 Alpha  occ. eigenvalues --  -10.23290 -10.23176  -1.09124  -1.08427  -0.94489
 Alpha  occ. eigenvalues --   -0.94061  -0.92827  -0.92152  -0.90795  -0.90287
 Alpha  occ. eigenvalues --   -0.88226  -0.87712  -0.87169  -0.85260  -0.84839
 Alpha  occ. eigenvalues --   -0.83052  -0.81512  -0.80169  -0.79625  -0.77346
 Alpha  occ. eigenvalues --   -0.77196  -0.77164  -0.76708  -0.76028  -0.75731
 Alpha  occ. eigenvalues --   -0.75258  -0.75175  -0.74835  -0.73696  -0.71162
 Alpha  occ. eigenvalues --   -0.68770  -0.67463  -0.65515  -0.65135  -0.64753
 Alpha  occ. eigenvalues --   -0.63685  -0.62644  -0.61761  -0.60252  -0.59453
 Alpha  occ. eigenvalues --   -0.59135  -0.58135  -0.58030  -0.57242  -0.56030
 Alpha  occ. eigenvalues --   -0.55621  -0.55370  -0.54630  -0.54591  -0.53734
 Alpha  occ. eigenvalues --   -0.53521  -0.52670  -0.52202  -0.51500  -0.51073
 Alpha  occ. eigenvalues --   -0.50368  -0.50134  -0.49841  -0.49425  -0.49219
 Alpha  occ. eigenvalues --   -0.48782  -0.48602  -0.48328  -0.47835  -0.47541
 Alpha  occ. eigenvalues --   -0.47298  -0.47126  -0.46752  -0.46380  -0.46028
 Alpha  occ. eigenvalues --   -0.45932  -0.45752  -0.45465  -0.45425  -0.45211
 Alpha  occ. eigenvalues --   -0.44964  -0.44622  -0.44214  -0.44070  -0.43813
 Alpha  occ. eigenvalues --   -0.42981  -0.42717  -0.42364  -0.42311  -0.42095
 Alpha  occ. eigenvalues --   -0.41859  -0.41454  -0.41040  -0.40877  -0.40566
 Alpha  occ. eigenvalues --   -0.40494  -0.39883  -0.39813  -0.39626  -0.39143
 Alpha  occ. eigenvalues --   -0.38721  -0.38645  -0.38310  -0.38273  -0.37901
 Alpha  occ. eigenvalues --   -0.37628  -0.37555  -0.36611  -0.36369  -0.35941
 Alpha  occ. eigenvalues --   -0.35598  -0.34238  -0.32953  -0.32259  -0.32088
 Alpha  occ. eigenvalues --   -0.30954  -0.30490  -0.29310  -0.26390  -0.24426
 Alpha  occ. eigenvalues --   -0.20556
 Alpha virt. eigenvalues --   -0.05479  -0.00431   0.02247   0.06138   0.07819
 Alpha virt. eigenvalues --    0.08041   0.08439   0.10325   0.11343   0.11731
 Alpha virt. eigenvalues --    0.11981   0.12342   0.12739   0.12902   0.13015

 Mulliken charges:
               1
     1  O   -0.545634
     2  O   -0.554840
     3  C    0.009016
     4  C   -0.045563
     5  C   -0.187779
     6  C   -0.187815
     7  C    0.173791
     8  C    0.178297
     9  C    0.058713
    10  C    0.113248
    11  C   -0.214738
    12  C   -0.248982
    13  C    0.014530
    14  C    0.051714
    15  C   -0.291560
    16  C   -0.289970
    17  C   -0.292291
    18  C   -0.308754
    19  C   -0.080420
    20  C   -0.124242
    21  C   -0.343584
    22  C   -0.351771
    23  C   -0.126315
    24  C   -0.104519
    25  C    0.124347
    26  C    0.150183
    27  C   -0.393587
    28  C   -0.365216
    29  C   -0.120302
    30  C   -0.135789
    31  C   -0.110493
    32  C   -0.114291
    33  C   -0.073488
    34  C   -0.088309
    35  C    0.103349
    36  C    0.154763
    37  C   -0.313351
    38  C   -0.381522
    39  C   -0.140250
    40  C   -0.145462
    41  C   -0.105799
    42  C   -0.059006
    43  H    0.068514
    44  H    0.059414
    45  H    0.072436
    46  H    0.089183
    47  H    0.075647
    48  H    0.061595
    49  H    0.128822
    50  H    0.094106
    51  H    0.107322
    52  H    0.114173
    53  H    0.108579
    54  H    0.082409
    55  H    0.098365
    56  H    0.124956
    57  H    0.089878
    58  H    0.091145
    59  H    0.102973
    60  H    0.112377
    61  H    0.088455
    62  H    0.101882
    63  H    0.102292
    64  H    0.099156
    65  H    0.075847
    66  H    0.086023
    67  H    0.104560
    68  H    0.125450
    69  H    0.109674
    70  H    0.108490
    71  H    0.127873
    72  H    0.073602
    73  H    0.292204
    74  H    0.307428
    75  H    0.074563
    76  H    0.089494
    77  H    0.112289
    78  H    0.105010
    79  H    0.140211
    80  H    0.122362
    81  H    0.094216
    82  H    0.114302
    83  H    0.084347
    84  H    0.085899
    85  H    0.063226
    86  H    0.062481
    87  H    0.080240
    88  H    0.064581
    89  H    0.088908
    90  H    0.108585
    91  H    0.109099
    92  H    0.140362
    93  H    0.076969
    94  H    0.100453
    95  H    0.080978
    96  H    0.073139
    97  H    0.080247
    98  H    0.076898
 Sum of Mulliken charges =  -0.00000

 Dipole moment (field-independent basis, Debye):
    X=              0.2218    Y=             -2.8135    Z=              1.5828  Tot=              3.2358
 Quadrupole moment (field-independent basis, Debye-Ang):
   XX=           -284.3211   YY=           -243.2483   ZZ=           -262.0156
   XY=             15.7370   XZ=             -7.2460   YZ=              0.7014

 Normal termination of Gaussian 16 at Mon Jul 15 03:27:20 2019.
