 Gaussian 16, Revision A.03,
 Gaussian 16:  ES64L-G16RevA.03 25-Dec-2016

 -------------------------------------
 # td=(NStates=1) CAM-B3LYP/6-31G(d,p)
 -------------------------------------

 --
 TD
 --
 Symbolic Z-matrix:
 Charge =  0 Multiplicity = 1

                         Standard orientation:
 ---------------------------------------------------------------------
 Center     Atomic      Atomic             Coordinates (Angstroms)
 Number     Number       Type             X           Y           Z
 ---------------------------------------------------------------------
      1          8           0       14.644213   -2.295442   -0.283060
      2          8           0      -14.783394    2.023784    0.706522
      3          6           0       11.211802   -1.321382    1.050264
      4          6           0      -12.421342   -0.995294    0.636290
      5          6           0       12.747358   -1.749540    1.010992
      6          6           0      -13.733063   -0.137325    0.550647
      7          6           0       13.320997   -1.841270   -0.461492
      8          6           0      -13.540378    1.285347    0.804866
      9          6           0       10.946876   -0.187975   -0.011134
     10          6           0      -11.278749   -0.258290   -0.164192
     11          6           0       13.271376   -0.510585   -1.076860
     12          6           0      -12.587740    1.974295   -0.181969
     13          6           0       11.934891    0.162718   -0.903573
     14          6           0      -11.404624    1.057515   -0.609116
     15          6           0       10.943366   -0.879814    2.470782
     16          6           0       10.426433   -2.699501    0.702123
     17          6           0      -12.046379   -1.333097    2.089989
     18          6           0      -12.732254   -2.279571   -0.210976
     19          6           0        9.687721    0.440020    0.140094
     20          6           0      -10.085590   -0.959168   -0.414433
     21          6           0       11.708552    1.189543   -2.061985
     22          6           0      -10.355469    1.787193   -1.401961
     23          6           0        9.391322    1.731753    0.134647
     24          6           0       -8.885192   -0.556303   -0.163977
     25          6           0        8.039624    2.243056    0.165190
     26          6           0       -7.626610   -1.297639   -0.438650
     27          6           0        7.920459    3.691994    0.588164
     28          6           0       -7.624648   -2.688083   -1.036033
     29          6           0        6.899071    1.522437   -0.070763
     30          6           0       -6.381460   -0.830162   -0.217711
     31          6           0        5.528540    2.047623    0.024654
     32          6           0       -5.058231   -1.169623   -0.528915
     33          6           0        4.440268    1.229679   -0.120375
     34          6           0       -3.948235   -0.452954   -0.245209
     35          6           0        3.087722    1.624074    0.160460
     36          6           0       -2.537516   -0.882806   -0.358706
     37          6           0        2.771385    3.010634    0.535791
     38          6           0       -2.307313   -2.266994   -0.870946
     39          6           0        2.039910    0.580256   -0.082422
     40          6           0       -1.556309    0.099005   -0.194511
     41          6           0        0.741131    0.925683    0.093245
     42          6           0       -0.263362   -0.146083   -0.280659
     43          1           0       13.341527   -1.052895    1.517062
     44          1           0       13.022223   -2.731295    1.583694
     45          1           0      -14.516631   -0.605289    1.333870
     46          1           0      -14.111014   -0.230906   -0.352609
     47          1           0       12.697333   -2.487200   -0.950118
     48          1           0      -13.182661    1.558631    1.891157
     49          1           0       14.100864    0.222478   -0.635426
     50          1           0       13.547308   -0.421313   -2.108425
     51          1           0      -13.109725    2.293929   -1.213758
     52          1           0      -12.188950    2.984603    0.082841
     53          1           0       11.231421   -1.738483    3.100622
     54          1           0        9.847751   -0.852560    2.610818
     55          1           0       11.383887    0.129019    2.677713
     56          1           0       10.695126   -3.082175   -0.255217
     57          1           0       10.554861   -3.439472    1.577112
     58          1           0        9.335147   -2.238360    0.536263
     59          1           0      -12.085217   -0.503953    2.666307
     60          1           0      -11.101023   -1.737078    1.991940
     61          1           0      -12.844536   -1.926238    2.644271
     62          1           0      -13.861085   -2.793346   -0.185309
     63          1           0      -11.954664   -3.039768    0.122370
     64          1           0      -12.522385   -1.991504   -1.296474
     65          1           0        9.077446   -0.221508    0.500376
     66          1           0      -10.143281   -1.964617   -0.520776
     67          1           0       10.546231    1.258682   -2.160062
     68          1           0       12.211572    2.081845   -1.886727
     69          1           0       12.217152    0.936444   -3.091461
     70          1           0      -11.017896    2.241293   -2.490324
     71          1           0       -9.562404    1.111906   -1.855773
     72          1           0       -9.642042    2.507938   -0.779616
     73          1           0       14.271647   -3.096997    0.337033
     74          1           0      -15.362745    1.906870    1.468876
     75          1           0       10.382328    2.266113    0.001400
     76          1           0       -8.706592    0.412467    0.191788
     77          1           0        8.888428    4.219250    0.733927
     78          1           0        7.376029    4.252410   -0.158872
     79          1           0        7.537116    3.588608    1.498740
     80          1           0       -8.392324   -3.500976   -0.492696
     81          1           0       -7.962006   -2.651566   -2.206176
     82          1           0       -6.807932   -3.299463   -1.179712
     83          1           0        6.841274    0.583215   -0.301592
     84          1           0       -6.385448    0.277895   -0.114359
     85          1           0        5.511534    3.068893    0.298723
     86          1           0       -4.752052   -2.268604   -0.770846
     87          1           0        4.838427    0.311538   -0.028073
     88          1           0       -4.251875    0.605601    0.136633
     89          1           0        3.249297    3.418399    1.468625
     90          1           0        1.787166    3.252541    0.655839
     91          1           0        3.058189    3.727606   -0.229698
     92          1           0       -2.815909   -2.939598   -0.157182
     93          1           0       -2.883568   -2.418483   -1.822938
     94          1           0       -1.372514   -2.557350   -0.973377
     95          1           0        2.389718   -0.437028   -0.658132
     96          1           0       -1.994998    1.178851   -0.178679
     97          1           0        0.450866    2.099310    0.287004
     98          1           0        0.147018   -1.051240   -0.558055
 ---------------------------------------------------------------------

 SCF Done:  E(RCAM-B3LYP) =  -1706.90386261     A.U. after   15 cycles

 Excitation energies and oscillator strengths:

 Excited State   1:      Singlet-A      1.9620 eV  631.93 nm  f=3.5047  <S**2>=0.000
     155 ->158         0.12025
     156 ->157         0.70228
     156 <-157        -0.12327
 This state for optimization and/or second-order correction.
 Total Energy, E(TD-HF/TD-DFT) =  -1706.83176034
 Copying the excited state density for this state as the 1-particle RhoCI density.

 The electronic state is 1-A.
 Alpha  occ. eigenvalues --  -19.21771 -19.19910 -10.30956 -10.29496 -10.28847
 Alpha  occ. eigenvalues --  -10.28442 -10.28271 -10.28164 -10.28163 -10.27964
 Alpha  occ. eigenvalues --  -10.27796 -10.27688 -10.27630 -10.27589 -10.27282
 Alpha  occ. eigenvalues --  -10.26981 -10.26878 -10.26711 -10.26668 -10.26513
 Alpha  occ. eigenvalues --  -10.26397 -10.26308 -10.26286 -10.26238 -10.26145
 Alpha  occ. eigenvalues --  -10.26138 -10.26130 -10.25928 -10.25749 -10.25594
 Alpha  occ. eigenvalues --  -10.25526 -10.25520 -10.25444 -10.25243 -10.25222
 Alpha  occ. eigenvalues --  -10.25169 -10.24852 -10.24446 -10.24384 -10.24153
 Alpha  occ. eigenvalues --  -10.23906 -10.23652  -1.09081  -1.07723  -0.93587
 Alpha  occ. eigenvalues --   -0.93477  -0.92157  -0.91677  -0.90635  -0.90011
 Alpha  occ. eigenvalues --   -0.87829  -0.86814  -0.86756  -0.85790  -0.85285
 Alpha  occ. eigenvalues --   -0.83746  -0.82325  -0.80480  -0.80178  -0.79662
 Alpha  occ. eigenvalues --   -0.77185  -0.76961  -0.76342  -0.75797  -0.75550
 Alpha  occ. eigenvalues --   -0.75296  -0.74830  -0.74337  -0.72782  -0.70733
 Alpha  occ. eigenvalues --   -0.68878  -0.67628  -0.66110  -0.65298  -0.63946
 Alpha  occ. eigenvalues --   -0.63204  -0.62925  -0.62180  -0.61499  -0.60668
 Alpha  occ. eigenvalues --   -0.59368  -0.58816  -0.58589  -0.58014  -0.56382
 Alpha  occ. eigenvalues --   -0.55784  -0.55413  -0.54735  -0.54406  -0.54014
 Alpha  occ. eigenvalues --   -0.53465  -0.53110  -0.52392  -0.51630  -0.51472
 Alpha  occ. eigenvalues --   -0.50859  -0.50037  -0.49927  -0.49693  -0.49021
 Alpha  occ. eigenvalues --   -0.48913  -0.48789  -0.48617  -0.48483  -0.48235
 Alpha  occ. eigenvalues --   -0.47595  -0.47576  -0.47019  -0.46607  -0.46504
 Alpha  occ. eigenvalues --   -0.45877  -0.45777  -0.45674  -0.45517  -0.44885
 Alpha  occ. eigenvalues --   -0.44672  -0.44180  -0.43778  -0.43438  -0.43293
 Alpha  occ. eigenvalues --   -0.43081  -0.42921  -0.42805  -0.42572  -0.42246
 Alpha  occ. eigenvalues --   -0.42128  -0.42002  -0.41554  -0.41274  -0.40741
 Alpha  occ. eigenvalues --   -0.40356  -0.40188  -0.39874  -0.39309  -0.39110
 Alpha  occ. eigenvalues --   -0.39099  -0.38763  -0.38571  -0.38275  -0.37924
 Alpha  occ. eigenvalues --   -0.37439  -0.37021  -0.36674  -0.36628  -0.36284
 Alpha  occ. eigenvalues --   -0.35607  -0.34958  -0.34437  -0.32864  -0.31788
 Alpha  occ. eigenvalues --   -0.31071  -0.29963  -0.28484  -0.25782  -0.24096
 Alpha  occ. eigenvalues --   -0.18547
 Alpha virt. eigenvalues --   -0.06789  -0.00765   0.01530   0.05559   0.07451
 Alpha virt. eigenvalues --    0.09264   0.10005   0.10495   0.10940   0.11749
 Alpha virt. eigenvalues --    0.11850   0.12502   0.12838   0.13102   0.13784

 Mulliken charges:
               1
     1  O   -0.549772
     2  O   -0.575835
     3  C   -0.035710
     4  C   -0.016185
     5  C   -0.218022
     6  C   -0.152118
     7  C    0.178104
     8  C    0.173719
     9  C    0.035838
    10  C    0.041078
    11  C   -0.218448
    12  C   -0.211300
    13  C    0.035950
    14  C    0.060036
    15  C   -0.290711
    16  C   -0.297108
    17  C   -0.293088
    18  C   -0.303632
    19  C   -0.058687
    20  C   -0.103144
    21  C   -0.373644
    22  C   -0.349656
    23  C   -0.117442
    24  C   -0.077380
    25  C    0.051671
    26  C    0.119214
    27  C   -0.373018
    28  C   -0.361410
    29  C   -0.088962
    30  C   -0.144962
    31  C   -0.084086
    32  C   -0.074935
    33  C   -0.112183
    34  C   -0.107931
    35  C    0.073805
    36  C    0.078022
    37  C   -0.377153
    38  C   -0.371365
    39  C   -0.100481
    40  C   -0.084335
    41  C   -0.092400
    42  C   -0.105435
    43  H    0.115110
    44  H    0.054031
    45  H    0.062264
    46  H    0.113093
    47  H    0.090563
    48  H    0.063920
    49  H    0.103617
    50  H    0.113200
    51  H    0.100765
    52  H    0.116248
    53  H    0.100141
    54  H    0.096117
    55  H    0.113651
    56  H    0.117696
    57  H    0.101794
    58  H    0.079908
    59  H    0.112800
    60  H    0.112074
    61  H    0.093754
    62  H    0.082947
    63  H    0.095440
    64  H    0.109926
    65  H    0.064929
    66  H    0.075558
    67  H    0.120401
    68  H    0.128796
    69  H    0.092793
    70  H    0.060156
    71  H    0.123830
    72  H    0.110526
    73  H    0.301184
    74  H    0.300543
    75  H    0.096993
    76  H    0.076874
    77  H    0.104612
    78  H    0.125869
    79  H    0.143951
    80  H    0.072612
    81  H    0.091089
    82  H    0.128217
    83  H    0.058036
    84  H    0.058991
    85  H    0.075087
    86  H    0.058885
    87  H    0.085107
    88  H    0.071156
    89  H    0.119655
    90  H    0.111646
    91  H    0.131044
    92  H    0.124727
    93  H    0.130264
    94  H    0.112196
    95  H    0.095006
    96  H    0.089704
    97  H    0.094723
    98  H    0.088878
 Sum of Mulliken charges =  -0.00000

 Dipole moment (field-independent basis, Debye):
    X=              0.7073    Y=             -0.4149    Z=              1.6819  Tot=              1.8711
 Quadrupole moment (field-independent basis, Debye-Ang):
   XX=           -305.6787   YY=           -244.8184   ZZ=           -260.7525
   XY=             15.4277   XZ=             -9.8390   YZ=              3.1739

 Normal termination of Gaussian 16 at Wed Jul 17 06:10:11 2019.
