 Gaussian 16, Revision A.03,
 Gaussian 16:  ES64L-G16RevA.03 25-Dec-2016

 -------------------------------------
 # td=(NStates=1) CAM-B3LYP/6-31G(d,p)
 -------------------------------------

 --
 TD
 --
 Symbolic Z-matrix:
 Charge =  0 Multiplicity = 1

                         Standard orientation:
 ---------------------------------------------------------------------
 Center     Atomic      Atomic             Coordinates (Angstroms)
 Number     Number       Type             X           Y           Z
 ---------------------------------------------------------------------
      1          8           0       14.654553   -2.145802   -0.230994
      2          8           0      -14.711295    1.957868    0.739874
      3          6           0       11.110905   -1.467208    0.796682
      4          6           0      -12.345384   -0.913318    0.665931
      5          6           0       12.720780   -1.747440    1.032802
      6          6           0      -13.609714   -0.112218    0.537217
      7          6           0       13.329635   -1.838194   -0.276701
      8          6           0      -13.447581    1.336059    0.787164
      9          6           0       10.904068   -0.282353   -0.033695
     10          6           0      -11.306373   -0.337671   -0.159731
     11          6           0       13.302549   -0.482162   -0.964064
     12          6           0      -12.673056    1.758252   -0.375286
     13          6           0       11.953885    0.146156   -0.812626
     14          6           0      -11.414679    0.936763   -0.641154
     15          6           0       10.631347   -1.237064    2.263985
     16          6           0       10.412641   -2.743784    0.293442
     17          6           0      -11.827572   -0.874359    2.050852
     18          6           0      -12.634546   -2.381001    0.199322
     19          6           0        9.649875    0.398633    0.133987
     20          6           0      -10.044269   -0.962609   -0.462388
     21          6           0       11.700468    1.323775   -1.803324
     22          6           0      -10.455743    1.695474   -1.516351
     23          6           0        9.347285    1.688240    0.251963
     24          6           0       -8.794709   -0.525344   -0.283365
     25          6           0        8.004454    2.304580    0.352355
     26          6           0       -7.606037   -1.264338   -0.586314
     27          6           0        7.846153    3.777684    0.742567
     28          6           0       -7.720470   -2.713221   -0.923635
     29          6           0        6.801354    1.562316    0.014457
     30          6           0       -6.351028   -0.660824   -0.315684
     31          6           0        5.532419    2.140719    0.079211
     32          6           0       -5.008641   -1.226056   -0.498086
     33          6           0        4.480642    1.362169   -0.235349
     34          6           0       -3.869591   -0.466735   -0.168143
     35          6           0        3.122583    1.663193    0.000931
     36          6           0       -2.618014   -0.926226   -0.343894
     37          6           0        2.757985    3.149863    0.379114
     38          6           0       -2.229856   -2.373928   -0.813345
     39          6           0        2.126018    0.726930   -0.159730
     40          6           0       -1.562322   -0.031412   -0.056402
     41          6           0        0.729011    0.840698   -0.047187
     42          6           0       -0.201587   -0.156634   -0.309996
     43          1           0       13.077446   -0.903794    1.599903
     44          1           0       12.893303   -2.705478    1.637050
     45          1           0      -14.338791   -0.413654    1.433834
     46          1           0      -14.216111   -0.122842   -0.375729
     47          1           0       12.717905   -2.537437   -1.053820
     48          1           0      -12.844190    1.291573    1.769210
     49          1           0       13.990312    0.182571   -0.357729
     50          1           0       13.546055   -0.624259   -1.889809
     51          1           0      -13.170093    1.717820   -1.313559
     52          1           0      -12.241968    2.940179   -0.504168
     53          1           0       10.801245   -2.103053    2.944685
     54          1           0        9.658133   -0.963619    2.341483
     55          1           0       11.139082   -0.322394    2.772842
     56          1           0       10.865819   -3.216061   -0.594727
     57          1           0       10.503996   -3.400885    1.254770
     58          1           0        9.385939   -2.394765    0.181827
     59          1           0      -11.532786    0.243493    2.544195
     60          1           0      -10.962002   -1.500921    2.152317
     61          1           0      -12.664136   -1.164470    2.929689
     62          1           0      -13.570326   -2.587528    0.662628
     63          1           0      -11.983501   -3.154371    0.730028
     64          1           0      -12.691323   -2.588923   -0.852167
     65          1           0        8.707972   -0.346328    0.150404
     66          1           0      -10.354000   -2.088371   -0.906116
     67          1           0       10.737322    1.646554   -1.899843
     68          1           0       12.219297    2.094659   -1.749878
     69          1           0       12.075941    1.253818   -2.765020
     70          1           0      -11.091903    2.260279   -2.267245
     71          1           0       -9.758698    1.233090   -2.422986
     72          1           0       -9.877686    2.357916   -1.007605
     73          1           0       14.857114   -3.172896    0.183201
     74          1           0      -15.269876    1.389095    1.358864
     75          1           0        9.985733    2.609026    0.432907
     76          1           0       -8.700809    0.440881    0.438689
     77          1           0        8.797390    4.460585    0.983439
     78          1           0        7.300425    4.249575   -0.184812
     79          1           0        7.188363    3.904982    1.687665
     80          1           0       -8.459900   -3.325917   -0.299974
     81          1           0       -7.966882   -3.036881   -1.951029
     82          1           0       -6.775937   -3.329887   -0.852198
     83          1           0        7.103282    0.576691   -0.400072
     84          1           0       -6.535930    0.432932   -0.175191
     85          1           0        5.387240    3.131043    0.184522
     86          1           0       -4.939570   -2.180582   -0.831248
     87          1           0        4.781457    0.328765   -0.471177
     88          1           0       -3.962727    0.567678    0.169459
     89          1           0        3.149397    3.396457    1.442994
     90          1           0        1.762387    3.340809    0.244060
     91          1           0        3.310634    3.985186   -0.316457
     92          1           0       -3.124129   -3.015996   -0.172166
     93          1           0       -2.415130   -2.468784   -2.109629
     94          1           0       -1.206843   -2.697373   -0.567394
     95          1           0        2.275727   -0.340016   -0.538488
     96          1           0       -1.858971    0.917970    0.209653
     97          1           0        0.173699    1.789471    0.190797
     98          1           0        0.118233   -1.056567   -0.645094
 ---------------------------------------------------------------------

 SCF Done:  E(RCAM-B3LYP) =  -1706.90927343     A.U. after   15 cycles

 Excitation energies and oscillator strengths:

 Excited State   1:      Singlet-A      2.0660 eV  600.12 nm  f=3.8008  <S**2>=0.000
     155 ->158         0.15448
     156 ->157         0.69102
 This state for optimization and/or second-order correction.
 Total Energy, E(TD-HF/TD-DFT) =  -1706.83335030
 Copying the excited state density for this state as the 1-particle RhoCI density.

 The electronic state is 1-A.
 Alpha  occ. eigenvalues --  -19.22142 -19.22091 -10.30072 -10.29981 -10.29675
 Alpha  occ. eigenvalues --  -10.28067 -10.27984 -10.27855 -10.27645 -10.27504
 Alpha  occ. eigenvalues --  -10.27463 -10.27223 -10.27184 -10.27100 -10.27055
 Alpha  occ. eigenvalues --  -10.26943 -10.26838 -10.26725 -10.26622 -10.26601
 Alpha  occ. eigenvalues --  -10.26562 -10.26535 -10.26416 -10.26297 -10.26074
 Alpha  occ. eigenvalues --  -10.26046 -10.25856 -10.25722 -10.25710 -10.25512
 Alpha  occ. eigenvalues --  -10.25511 -10.25456 -10.25405 -10.25306 -10.25264
 Alpha  occ. eigenvalues --  -10.25243 -10.25026 -10.24935 -10.24773 -10.24142
 Alpha  occ. eigenvalues --  -10.23938 -10.21348  -1.10064  -1.09345  -0.95708
 Alpha  occ. eigenvalues --   -0.93684  -0.92261  -0.91589  -0.90123  -0.89324
 Alpha  occ. eigenvalues --   -0.87637  -0.87342  -0.86651  -0.85838  -0.85054
 Alpha  occ. eigenvalues --   -0.83281  -0.81727  -0.80476  -0.79598  -0.77598
 Alpha  occ. eigenvalues --   -0.77342  -0.76812  -0.76142  -0.76062  -0.75439
 Alpha  occ. eigenvalues --   -0.75306  -0.75088  -0.74915  -0.73171  -0.70895
 Alpha  occ. eigenvalues --   -0.69007  -0.67510  -0.65829  -0.64812  -0.64607
 Alpha  occ. eigenvalues --   -0.64192  -0.63178  -0.62743  -0.61298  -0.60343
 Alpha  occ. eigenvalues --   -0.59377  -0.58456  -0.58268  -0.57486  -0.56271
 Alpha  occ. eigenvalues --   -0.56099  -0.55757  -0.54840  -0.54039  -0.53392
 Alpha  occ. eigenvalues --   -0.53222  -0.52688  -0.52383  -0.51458  -0.51030
 Alpha  occ. eigenvalues --   -0.50495  -0.50145  -0.49928  -0.49553  -0.48861
 Alpha  occ. eigenvalues --   -0.48602  -0.48372  -0.47868  -0.47815  -0.47601
 Alpha  occ. eigenvalues --   -0.47371  -0.46846  -0.46771  -0.46065  -0.45993
 Alpha  occ. eigenvalues --   -0.45792  -0.45305  -0.45254  -0.44865  -0.44522
 Alpha  occ. eigenvalues --   -0.44295  -0.44139  -0.43974  -0.43776  -0.43301
 Alpha  occ. eigenvalues --   -0.43245  -0.43001  -0.42503  -0.42378  -0.42166
 Alpha  occ. eigenvalues --   -0.41725  -0.41658  -0.41238  -0.40922  -0.40844
 Alpha  occ. eigenvalues --   -0.40326  -0.40260  -0.39878  -0.39521  -0.39515
 Alpha  occ. eigenvalues --   -0.39310  -0.38969  -0.38672  -0.38186  -0.38077
 Alpha  occ. eigenvalues --   -0.37508  -0.37361  -0.36772  -0.36600  -0.36238
 Alpha  occ. eigenvalues --   -0.35310  -0.34629  -0.33963  -0.32269  -0.31848
 Alpha  occ. eigenvalues --   -0.31476  -0.29385  -0.27873  -0.26059  -0.22996
 Alpha  occ. eigenvalues --   -0.18894
 Alpha virt. eigenvalues --   -0.06225  -0.01128   0.02770   0.05853   0.07829
 Alpha virt. eigenvalues --    0.08879   0.09556   0.10733   0.11508   0.12033
 Alpha virt. eigenvalues --    0.12116   0.12393   0.12516   0.13336   0.13513

 Mulliken charges:
               1
     1  O   -0.566813
     2  O   -0.557603
     3  C   -0.065466
     4  C   -0.001913
     5  C   -0.168899
     6  C   -0.204255
     7  C    0.200325
     8  C    0.190568
     9  C    0.106591
    10  C    0.068619
    11  C   -0.197824
    12  C   -0.214685
    13  C    0.029242
    14  C    0.058474
    15  C   -0.304912
    16  C   -0.278639
    17  C   -0.290756
    18  C   -0.324756
    19  C   -0.148515
    20  C   -0.121212
    21  C   -0.361072
    22  C   -0.358356
    23  C   -0.063209
    24  C   -0.106087
    25  C    0.043570
    26  C    0.123689
    27  C   -0.373548
    28  C   -0.383954
    29  C   -0.116321
    30  C   -0.135633
    31  C   -0.053277
    32  C   -0.102219
    33  C   -0.108707
    34  C   -0.100214
    35  C    0.095753
    36  C    0.132519
    37  C   -0.358773
    38  C   -0.335136
    39  C   -0.129442
    40  C   -0.132870
    41  C   -0.081386
    42  C   -0.064567
    43  H    0.106230
    44  H    0.064793
    45  H    0.045621
    46  H    0.112096
    47  H    0.041559
    48  H    0.075602
    49  H    0.119562
    50  H    0.118765
    51  H    0.130624
    52  H    0.069870
    53  H    0.092808
    54  H    0.110744
    55  H    0.087027
    56  H    0.107552
    57  H    0.088540
    58  H    0.101735
    59  H    0.090270
    60  H    0.124980
    61  H    0.068459
    62  H    0.110395
    63  H    0.098029
    64  H    0.121325
    65  H    0.079640
    66  H    0.065335
    67  H    0.119509
    68  H    0.112935
    69  H    0.093334
    70  H    0.095113
    71  H    0.095432
    72  H    0.134087
    73  H    0.299318
    74  H    0.304033
    75  H    0.084593
    76  H    0.087502
    77  H    0.097726
    78  H    0.119161
    79  H    0.122291
    80  H    0.110036
    81  H    0.119980
    82  H    0.100584
    83  H    0.087592
    84  H    0.079262
    85  H    0.086014
    86  H    0.087466
    87  H    0.079294
    88  H    0.091965
    89  H    0.116776
    90  H    0.123584
    91  H    0.094000
    92  H    0.088562
    93  H    0.088429
    94  H    0.126513
    95  H    0.081494
    96  H    0.066690
    97  H    0.073389
    98  H    0.063437
 Sum of Mulliken charges =  -0.00000

 Dipole moment (field-independent basis, Debye):
    X=              0.3324    Y=             -1.6975    Z=              0.7493  Tot=              1.8850
 Quadrupole moment (field-independent basis, Debye-Ang):
   XX=           -259.6783   YY=           -244.6158   ZZ=           -261.0252
   XY=             16.4033   XZ=             -4.0547   YZ=              1.3864

 Normal termination of Gaussian 16 at Thu Jul 18 14:08:27 2019.
