 Gaussian 16, Revision A.03,
 Gaussian 16:  ES64L-G16RevA.03 25-Dec-2016

 -------------------------------------
 # td=(NStates=1) CAM-B3LYP/6-31G(d,p)
 -------------------------------------

 --
 TD
 --
 Symbolic Z-matrix:
 Charge =  0 Multiplicity = 1

                         Standard orientation:
 ---------------------------------------------------------------------
 Center     Atomic      Atomic             Coordinates (Angstroms)
 Number     Number       Type             X           Y           Z
 ---------------------------------------------------------------------
      1          8           0       14.704336   -2.369748   -0.421167
      2          8           0      -14.884874    1.723780    0.677794
      3          6           0       11.233705   -1.557244    0.941782
      4          6           0      -12.388338   -1.087417    0.562614
      5          6           0       12.797982   -1.867708    0.916044
      6          6           0      -13.751234   -0.456121    0.477468
      7          6           0       13.297151   -2.018564   -0.370834
      8          6           0      -13.655736    1.095420    0.784133
      9          6           0       10.947262   -0.410474   -0.150142
     10          6           0      -11.252970   -0.350038   -0.261217
     11          6           0       13.170465   -0.685526   -1.217666
     12          6           0      -12.882003    1.669721   -0.309961
     13          6           0       11.843008   -0.002859   -1.086418
     14          6           0      -11.558114    0.991505   -0.638155
     15          6           0       10.947831   -0.955274    2.326462
     16          6           0       10.404198   -2.775205    0.581717
     17          6           0      -11.841846   -1.260898    1.974539
     18          6           0      -12.563670   -2.517664   -0.136526
     19          6           0        9.722535    0.357718    0.023435
     20          6           0      -10.019343   -0.989750   -0.434155
     21          6           0       11.695660    1.148221   -2.057165
     22          6           0      -10.588440    1.845693   -1.525852
     23          6           0        9.370741    1.670385   -0.088322
     24          6           0       -8.828799   -0.516538   -0.411592
     25          6           0        8.083977    2.291465    0.166467
     26          6           0       -7.561647   -1.235652   -0.575677
     27          6           0        8.030254    3.700470    0.673419
     28          6           0       -7.604600   -2.649774   -0.856594
     29          6           0        6.913569    1.498911    0.045032
     30          6           0       -6.431813   -0.549784   -0.261013
     31          6           0        5.636661    2.036412    0.376874
     32          6           0       -5.090954   -0.927990   -0.369206
     33          6           0        4.470472    1.320128    0.194682
     34          6           0       -3.971904   -0.194515   -0.055242
     35          6           0        3.165453    1.777822    0.195082
     36          6           0       -2.597248   -0.527654   -0.313121
     37          6           0        2.897661    3.262515    0.499934
     38          6           0       -2.322997   -2.004245   -0.687034
     39          6           0        2.078887    0.862398    0.119828
     40          6           0       -1.608515    0.396812   -0.055703
     41          6           0        0.796264    1.178309    0.088954
     42          6           0       -0.285392    0.229527   -0.145550
     43          1           0       13.268077   -0.932065    1.427393
     44          1           0       12.937243   -2.760538    1.437875
     45          1           0      -14.420270   -0.813431    1.035605
     46          1           0      -14.210858   -0.701273   -0.539693
     47          1           0       12.761025   -2.727328   -0.819195
     48          1           0      -13.356557    1.274960    1.764528
     49          1           0       13.868924    0.150136   -0.929325
     50          1           0       13.464239   -0.948591   -2.294340
     51          1           0      -13.601712    1.714569   -1.234358
     52          1           0      -12.716714    2.798853   -0.128474
     53          1           0       11.322965   -1.615146    3.190177
     54          1           0        9.788017   -0.903515    2.588342
     55          1           0       11.358852    0.140360    2.648398
     56          1           0       10.736543   -3.324909   -0.355485
     57          1           0       10.451956   -3.599232    1.221265
     58          1           0        9.512726   -2.296679    0.692709
     59          1           0      -11.943977   -0.524473    2.740445
     60          1           0      -10.960907   -1.794599    1.804632
     61          1           0      -12.298251   -2.289621    2.255973
     62          1           0      -13.533366   -2.840650    0.382754
     63          1           0      -11.629103   -3.195712    0.331419
     64          1           0      -12.653838   -2.322681   -1.230951
     65          1           0        8.847915   -0.457914    0.453039
     66          1           0      -10.163992   -2.017729   -0.682490
     67          1           0       10.665254    1.495873   -2.448130
     68          1           0       11.960813    1.977287   -1.580374
     69          1           0       12.311541    1.136845   -2.892225
     70          1           0      -11.057112    2.146961   -2.584098
     71          1           0       -9.546439    1.208005   -1.694023
     72          1           0      -10.220318    2.845971   -0.897914
     73          1           0       14.996555   -3.062844    0.498210
     74          1           0      -15.656729    1.141205    1.109523
     75          1           0        9.980614    2.357177   -0.443203
     76          1           0       -8.811629    0.625349   -0.056716
     77          1           0        9.012383    4.157382    0.606391
     78          1           0        7.143325    4.447013    0.270944
     79          1           0        7.836213    3.490535    1.905354
     80          1           0       -8.264738   -3.334730   -0.130742
     81          1           0       -7.898923   -2.602801   -2.028309
     82          1           0       -6.575103   -3.342020   -0.955304
     83          1           0        7.130039    0.452618   -0.165708
     84          1           0       -6.559322    0.555860    0.207841
     85          1           0        5.555754    2.972333    0.870907
     86          1           0       -4.802954   -2.034990   -0.750370
     87          1           0        4.568703    0.234144   -0.099334
     88          1           0       -4.036734    0.878674    0.271829
     89          1           0        3.541426    3.507674    1.490517
     90          1           0        1.802138    3.555401    0.844892
     91          1           0        3.247109    3.946313   -0.345261
     92          1           0       -2.747187   -2.642335    0.014358
     93          1           0       -2.653384   -2.181421   -1.707814
     94          1           0       -1.224954   -2.386889   -0.914594
     95          1           0        2.239651   -0.041916   -0.081376
     96          1           0       -1.883658    1.411507    0.433451
     97          1           0        0.303335    2.274207    0.412161
     98          1           0        0.070647   -0.788679   -0.622064
 ---------------------------------------------------------------------

 SCF Done:  E(RCAM-B3LYP) =  -1706.84589369     A.U. after   16 cycles

 Excitation energies and oscillator strengths:

 Excited State   1:      Singlet-A      1.8832 eV  658.35 nm  f=3.7070  <S**2>=0.000
     155 ->158         0.12799
     156 ->157         0.70070
     156 <-157        -0.12020
 This state for optimization and/or second-order correction.
 Total Energy, E(TD-HF/TD-DFT) =  -1706.77668561
 Copying the excited state density for this state as the 1-particle RhoCI density.

 The electronic state is 1-A.
 Alpha  occ. eigenvalues --  -19.21992 -19.21118 -10.29170 -10.29124 -10.28847
 Alpha  occ. eigenvalues --  -10.28754 -10.28471 -10.27952 -10.27721 -10.27658
 Alpha  occ. eigenvalues --  -10.27637 -10.27490 -10.27453 -10.27440 -10.27389
 Alpha  occ. eigenvalues --  -10.27369 -10.27337 -10.27302 -10.27302 -10.27231
 Alpha  occ. eigenvalues --  -10.26865 -10.26667 -10.26502 -10.26398 -10.26378
 Alpha  occ. eigenvalues --  -10.26248 -10.26073 -10.25867 -10.25862 -10.25848
 Alpha  occ. eigenvalues --  -10.25829 -10.25682 -10.25472 -10.25359 -10.25311
 Alpha  occ. eigenvalues --  -10.24847 -10.24514 -10.24452 -10.24312 -10.24207
 Alpha  occ. eigenvalues --  -10.24127 -10.23950  -1.09062  -1.05569  -0.93600
 Alpha  occ. eigenvalues --   -0.93269  -0.91987  -0.91452  -0.90648  -0.89959
 Alpha  occ. eigenvalues --   -0.87856  -0.87146  -0.86192  -0.85416  -0.84800
 Alpha  occ. eigenvalues --   -0.83517  -0.81663  -0.80475  -0.79409  -0.78625
 Alpha  occ. eigenvalues --   -0.77524  -0.76954  -0.76712  -0.75801  -0.75121
 Alpha  occ. eigenvalues --   -0.74779  -0.74664  -0.74203  -0.72605  -0.70242
 Alpha  occ. eigenvalues --   -0.68637  -0.67525  -0.65904  -0.65105  -0.64329
 Alpha  occ. eigenvalues --   -0.63171  -0.62264  -0.60673  -0.60222  -0.59245
 Alpha  occ. eigenvalues --   -0.58468  -0.58197  -0.58020  -0.57447  -0.55852
 Alpha  occ. eigenvalues --   -0.55522  -0.55233  -0.54783  -0.54429  -0.54035
 Alpha  occ. eigenvalues --   -0.53398  -0.53039  -0.52560  -0.52344  -0.50391
 Alpha  occ. eigenvalues --   -0.50292  -0.50230  -0.50033  -0.49417  -0.48995
 Alpha  occ. eigenvalues --   -0.48862  -0.48661  -0.48532  -0.48190  -0.47745
 Alpha  occ. eigenvalues --   -0.47334  -0.47191  -0.47105  -0.46499  -0.45966
 Alpha  occ. eigenvalues --   -0.45622  -0.45264  -0.45076  -0.44770  -0.44580
 Alpha  occ. eigenvalues --   -0.44226  -0.43549  -0.43436  -0.43309  -0.42799
 Alpha  occ. eigenvalues --   -0.42560  -0.42212  -0.41863  -0.41760  -0.41615
 Alpha  occ. eigenvalues --   -0.41513  -0.41447  -0.41259  -0.40833  -0.40478
 Alpha  occ. eigenvalues --   -0.39939  -0.39848  -0.39675  -0.39405  -0.39156
 Alpha  occ. eigenvalues --   -0.38713  -0.38413  -0.38218  -0.37776  -0.37439
 Alpha  occ. eigenvalues --   -0.37364  -0.36701  -0.36190  -0.36158  -0.35678
 Alpha  occ. eigenvalues --   -0.35270  -0.34610  -0.33548  -0.32967  -0.32191
 Alpha  occ. eigenvalues --   -0.31377  -0.29639  -0.28038  -0.25552  -0.23338
 Alpha  occ. eigenvalues --   -0.18041
 Alpha virt. eigenvalues --   -0.06720  -0.00651   0.02261   0.05621   0.07562
 Alpha virt. eigenvalues --    0.07728   0.10288   0.10804   0.10979   0.11372
 Alpha virt. eigenvalues --    0.11617   0.12430   0.12558   0.13159   0.13490

 Mulliken charges:
               1
     1  O   -0.581117
     2  O   -0.574928
     3  C   -0.023094
     4  C   -0.025009
     5  C   -0.187418
     6  C   -0.185948
     7  C    0.227012
     8  C    0.195473
     9  C    0.043330
    10  C    0.057837
    11  C   -0.244774
    12  C   -0.207471
    13  C    0.067519
    14  C    0.042318
    15  C   -0.303532
    16  C   -0.289951
    17  C   -0.289530
    18  C   -0.307846
    19  C   -0.091598
    20  C   -0.097670
    21  C   -0.380596
    22  C   -0.344208
    23  C   -0.100772
    24  C   -0.119313
    25  C    0.065828
    26  C    0.127030
    27  C   -0.354854
    28  C   -0.365038
    29  C   -0.093674
    30  C   -0.121035
    31  C   -0.096368
    32  C   -0.092180
    33  C   -0.114466
    34  C   -0.113519
    35  C    0.110663
    36  C    0.108152
    37  C   -0.366451
    38  C   -0.381639
    39  C   -0.073821
    40  C   -0.114188
    41  C   -0.076669
    42  C   -0.098408
    43  H    0.091652
    44  H    0.080743
    45  H    0.075703
    46  H    0.086048
    47  H    0.085138
    48  H    0.085702
    49  H    0.115561
    50  H    0.107481
    51  H    0.113737
    52  H    0.095669
    53  H    0.094168
    54  H    0.087681
    55  H    0.104646
    56  H    0.107917
    57  H    0.107188
    58  H    0.111663
    59  H    0.119098
    60  H    0.115346
    61  H    0.070166
    62  H    0.099770
    63  H    0.074135
    64  H    0.123433
    65  H    0.049454
    66  H    0.085149
    67  H    0.117546
    68  H    0.140923
    69  H    0.114526
    70  H    0.099779
    71  H    0.102235
    72  H    0.085915
    73  H    0.284796
    74  H    0.301475
    75  H    0.069248
    76  H    0.093862
    77  H    0.112116
    78  H    0.111160
    79  H    0.103957
    80  H    0.117224
    81  H    0.111717
    82  H    0.094942
    83  H    0.084246
    84  H    0.075992
    85  H    0.088703
    86  H    0.072540
    87  H    0.075491
    88  H    0.077243
    89  H    0.097380
    90  H    0.105036
    91  H    0.122436
    92  H    0.137990
    93  H    0.128381
    94  H    0.093588
    95  H    0.060668
    96  H    0.076271
    97  H    0.061565
    98  H    0.065721
 Sum of Mulliken charges =  -0.00000

 Dipole moment (field-independent basis, Debye):
    X=              0.7189    Y=             -2.0424    Z=              2.0003  Tot=              2.9478
 Quadrupole moment (field-independent basis, Debye-Ang):
   XX=           -242.1241   YY=           -245.2220   ZZ=           -261.7446
   XY=             22.9642   XZ=              4.3038   YZ=             -1.2255

 Normal termination of Gaussian 16 at Wed Jul 17 19:38:08 2019.
