 Gaussian 16, Revision A.03,
 Gaussian 16:  ES64L-G16RevA.03 25-Dec-2016

 -------------------------------------
 # td=(NStates=1) CAM-B3LYP/6-31G(d,p)
 -------------------------------------

 --
 TD
 --
 Symbolic Z-matrix:
 Charge =  0 Multiplicity = 1

                         Standard orientation:
 ---------------------------------------------------------------------
 Center     Atomic      Atomic             Coordinates (Angstroms)
 Number     Number       Type             X           Y           Z
 ---------------------------------------------------------------------
      1          8           0       14.631319   -2.288253   -0.193537
      2          8           0      -14.591973    2.124469    1.049918
      3          6           0       11.220254   -1.395210    0.953603
      4          6           0      -12.347961   -1.014301    0.685486
      5          6           0       12.689932   -1.650925    1.012933
      6          6           0      -13.659875   -0.189242    0.746578
      7          6           0       13.360744   -1.820837   -0.331465
      8          6           0      -13.470117    1.326879    0.984412
      9          6           0       10.962784   -0.262475    0.023934
     10          6           0      -11.228547   -0.238430   -0.124421
     11          6           0       13.346156   -0.449348   -1.018618
     12          6           0      -12.854168    1.734289   -0.310554
     13          6           0       11.878122    0.209878   -0.882170
     14          6           0      -11.603171    0.959815   -0.663154
     15          6           0       10.747670   -0.971952    2.414457
     16          6           0       10.478115   -2.637354    0.546446
     17          6           0      -11.825540   -1.284943    2.097426
     18          6           0      -12.835513   -2.346631    0.050400
     19          6           0        9.697756    0.375026    0.194124
     20          6           0      -10.074387   -1.005844   -0.400480
     21          6           0       11.605666    1.247024   -1.998986
     22          6           0      -10.727189    1.698188   -1.654639
     23          6           0        9.384832    1.604662    0.101664
     24          6           0       -8.772221   -0.548527   -0.418605
     25          6           0        8.042876    2.205992    0.283140
     26          6           0       -7.541451   -1.227184   -0.612349
     27          6           0        7.940215    3.653370    0.698902
     28          6           0       -7.609219   -2.641259   -1.007210
     29          6           0        6.905799    1.534962    0.079160
     30          6           0       -6.446505   -0.519017   -0.339595
     31          6           0        5.611925    2.024045    0.222080
     32          6           0       -5.039996   -1.072111   -0.648855
     33          6           0        4.506700    1.315384   -0.031739
     34          6           0       -3.932314   -0.369164   -0.334198
     35          6           0        3.169415    1.671059    0.062851
     36          6           0       -2.544364   -0.836873   -0.498671
     37          6           0        2.725133    3.124650    0.384275
     38          6           0       -2.401039   -2.335608   -0.815659
     39          6           0        2.166726    0.765920   -0.240795
     40          6           0       -1.471475    0.068480   -0.199002
     41          6           0        0.780578    0.916608   -0.137411
     42          6           0       -0.116952   -0.146013   -0.364014
     43          1           0       13.227018   -0.804686    1.610550
     44          1           0       12.839102   -2.663077    1.331447
     45          1           0      -14.137503   -0.724242    1.690340
     46          1           0      -14.509803   -0.076422   -0.080800
     47          1           0       12.750209   -2.590825   -0.944479
     48          1           0      -12.965231    1.435733    1.870953
     49          1           0       14.115620    0.228583   -0.436754
     50          1           0       13.574191   -0.567668   -2.176520
     51          1           0      -13.569926    1.703588   -1.181731
     52          1           0      -12.441261    2.778917   -0.133102
     53          1           0       11.094056   -1.978683    2.955611
     54          1           0        9.570180   -1.164320    2.449537
     55          1           0       10.992884    0.021460    2.750781
     56          1           0       10.895111   -3.037767   -0.323692
     57          1           0       10.871617   -3.539321    1.254259
     58          1           0        9.258470   -2.874928    0.725642
     59          1           0      -11.882165   -0.332390    2.633106
     60          1           0      -10.801927   -1.553206    2.023554
     61          1           0      -12.531763   -1.949209    2.589839
     62          1           0      -13.777086   -2.829139    0.329853
     63          1           0      -12.026022   -3.033575   -0.077997
     64          1           0      -13.058396   -2.073973   -0.952573
     65          1           0        9.019280   -0.240796    0.769398
     66          1           0      -10.020490   -2.136826   -0.574733
     67          1           0       10.565521    1.311794   -2.369389
     68          1           0       11.863643    2.250770   -1.539156
     69          1           0       12.120297    0.944721   -2.893123
     70          1           0      -11.339681    2.040249   -2.708624
     71          1           0      -10.034929    1.078225   -1.994325
     72          1           0      -10.207387    2.420173   -1.318010
     73          1           0       14.702455   -3.231413    0.249867
     74          1           0      -15.228057    1.382481    1.540741
     75          1           0       10.257034    2.162231   -0.238537
     76          1           0       -8.632658    0.374656   -0.070626
     77          1           0        8.869380    4.089192    0.775439
     78          1           0        7.244781    4.117748   -0.232222
     79          1           0        7.492811    3.959279    1.777404
     80          1           0       -7.901192   -3.480095   -0.269255
     81          1           0       -8.409029   -3.073341   -1.805581
     82          1           0       -6.560567   -2.986076   -1.416966
     83          1           0        7.028180    0.489576   -0.346364
     84          1           0       -6.477682    0.525868    0.071269
     85          1           0        5.522717    3.008677    0.710975
     86          1           0       -4.772285   -2.041918   -0.957527
     87          1           0        4.722881    0.278792   -0.487357
     88          1           0       -4.207308    0.664124   -0.239297
     89          1           0        2.726765    3.291732    1.576503
     90          1           0        1.703448    3.289703   -0.046485
     91          1           0        3.631456    3.768117   -0.158552
     92          1           0       -3.099607   -2.805689   -0.044940
     93          1           0       -2.492138   -2.299885   -1.971176
     94          1           0       -1.321419   -2.709260   -0.836219
     95          1           0        2.551647   -0.244497   -0.765647
     96          1           0       -1.829212    1.159425   -0.056434
     97          1           0        0.278067    1.844612    0.095065
     98          1           0        0.114777   -1.104849   -0.040682
 ---------------------------------------------------------------------

 SCF Done:  E(RCAM-B3LYP) =  -1706.92351820     A.U. after   15 cycles

 Excitation energies and oscillator strengths:

 Excited State   1:      Singlet-A      2.3400 eV  529.85 nm  f=3.5801  <S**2>=0.000
     155 ->158         0.14323
     156 ->157         0.69065
 This state for optimization and/or second-order correction.
 Total Energy, E(TD-HF/TD-DFT) =  -1706.83752584
 Copying the excited state density for this state as the 1-particle RhoCI density.

 The electronic state is 1-A.
 Alpha  occ. eigenvalues --  -19.22063 -19.21840 -10.30598 -10.28561 -10.28490
 Alpha  occ. eigenvalues --  -10.28290 -10.27868 -10.27853 -10.27836 -10.27747
 Alpha  occ. eigenvalues --  -10.27391 -10.27333 -10.27295 -10.27240 -10.27097
 Alpha  occ. eigenvalues --  -10.27041 -10.26979 -10.26959 -10.26902 -10.26826
 Alpha  occ. eigenvalues --  -10.26819 -10.26768 -10.26651 -10.26411 -10.26405
 Alpha  occ. eigenvalues --  -10.26154 -10.26132 -10.26098 -10.25809 -10.25673
 Alpha  occ. eigenvalues --  -10.25624 -10.25543 -10.25279 -10.25245 -10.24939
 Alpha  occ. eigenvalues --  -10.24867 -10.24741 -10.24594 -10.23876 -10.23792
 Alpha  occ. eigenvalues --  -10.23776 -10.23335  -1.10281  -1.09840  -0.94419
 Alpha  occ. eigenvalues --   -0.93492  -0.92301  -0.91908  -0.90985  -0.89986
 Alpha  occ. eigenvalues --   -0.87955  -0.86982  -0.86615  -0.85256  -0.84801
 Alpha  occ. eigenvalues --   -0.83207  -0.81594  -0.80244  -0.79874  -0.77702
 Alpha  occ. eigenvalues --   -0.76950  -0.76659  -0.76418  -0.75774  -0.75348
 Alpha  occ. eigenvalues --   -0.75196  -0.74641  -0.74564  -0.73177  -0.70711
 Alpha  occ. eigenvalues --   -0.68594  -0.67566  -0.65559  -0.64568  -0.64378
 Alpha  occ. eigenvalues --   -0.63493  -0.62605  -0.61897  -0.61071  -0.59849
 Alpha  occ. eigenvalues --   -0.59615  -0.59023  -0.58559  -0.57844  -0.56260
 Alpha  occ. eigenvalues --   -0.55893  -0.55308  -0.55029  -0.54540  -0.53867
 Alpha  occ. eigenvalues --   -0.52993  -0.52687  -0.51891  -0.51654  -0.51168
 Alpha  occ. eigenvalues --   -0.50631  -0.50093  -0.49975  -0.49550  -0.49351
 Alpha  occ. eigenvalues --   -0.49204  -0.48629  -0.48198  -0.47656  -0.47441
 Alpha  occ. eigenvalues --   -0.47264  -0.47206  -0.46548  -0.46466  -0.45972
 Alpha  occ. eigenvalues --   -0.45859  -0.45702  -0.45287  -0.45080  -0.44868
 Alpha  occ. eigenvalues --   -0.44407  -0.44067  -0.43834  -0.43723  -0.43571
 Alpha  occ. eigenvalues --   -0.43165  -0.43035  -0.42563  -0.42132  -0.41806
 Alpha  occ. eigenvalues --   -0.41455  -0.41364  -0.40707  -0.40580  -0.40456
 Alpha  occ. eigenvalues --   -0.40367  -0.40148  -0.39671  -0.39637  -0.39384
 Alpha  occ. eigenvalues --   -0.38903  -0.38616  -0.38334  -0.38312  -0.38020
 Alpha  occ. eigenvalues --   -0.37358  -0.37036  -0.36275  -0.36105  -0.35549
 Alpha  occ. eigenvalues --   -0.35368  -0.35149  -0.33752  -0.32832  -0.31899
 Alpha  occ. eigenvalues --   -0.31597  -0.30521  -0.28365  -0.25881  -0.23902
 Alpha  occ. eigenvalues --   -0.19967
 Alpha virt. eigenvalues --   -0.05695  -0.00648   0.02141   0.05467   0.07506
 Alpha virt. eigenvalues --    0.09593   0.10075   0.10452   0.11777   0.12127
 Alpha virt. eigenvalues --    0.12616   0.12698   0.13104   0.13459   0.13475

 Mulliken charges:
               1
     1  O   -0.562067
     2  O   -0.547209
     3  C   -0.016130
     4  C   -0.015364
     5  C   -0.174888
     6  C   -0.222107
     7  C    0.196674
     8  C    0.177577
     9  C    0.116263
    10  C    0.068731
    11  C   -0.209827
    12  C   -0.207047
    13  C   -0.016396
    14  C    0.031682
    15  C   -0.293590
    16  C   -0.302998
    17  C   -0.297892
    18  C   -0.310214
    19  C   -0.084928
    20  C   -0.139620
    21  C   -0.362145
    22  C   -0.340254
    23  C   -0.106683
    24  C   -0.104473
    25  C    0.073016
    26  C    0.197994
    27  C   -0.354905
    28  C   -0.401021
    29  C   -0.105772
    30  C   -0.165076
    31  C   -0.087012
    32  C   -0.101471
    33  C   -0.106943
    34  C   -0.098086
    35  C    0.114335
    36  C    0.058663
    37  C   -0.349137
    38  C   -0.378602
    39  C   -0.129694
    40  C   -0.123761
    41  C   -0.092003
    42  C   -0.090964
    43  H    0.099762
    44  H    0.064337
    45  H    0.053027
    46  H    0.085139
    47  H    0.056813
    48  H    0.086177
    49  H    0.107855
    50  H    0.091595
    51  H    0.122691
    52  H    0.107219
    53  H    0.087456
    54  H    0.086744
    55  H    0.121425
    56  H    0.119740
    57  H    0.067867
    58  H    0.098456
    59  H    0.098199
    60  H    0.117386
    61  H    0.101416
    62  H    0.107716
    63  H    0.096509
    64  H    0.111168
    65  H    0.070189
    66  H    0.080127
    67  H    0.125904
    68  H    0.119579
    69  H    0.110285
    70  H    0.067379
    71  H    0.122186
    72  H    0.126460
    73  H    0.312393
    74  H    0.299442
    75  H    0.071443
    76  H    0.063404
    77  H    0.114282
    78  H    0.097733
    79  H    0.102815
    80  H    0.122533
    81  H    0.105515
    82  H    0.104274
    83  H    0.076029
    84  H    0.101659
    85  H    0.092676
    86  H    0.085301
    87  H    0.074705
    88  H    0.077166
    89  H    0.109811
    90  H    0.119143
    91  H    0.097378
    92  H    0.136520
    93  H    0.134584
    94  H    0.110359
    95  H    0.076702
    96  H    0.068751
    97  H    0.092111
    98  H    0.105810
 Sum of Mulliken charges =  -0.00000

 Dipole moment (field-independent basis, Debye):
    X=              0.7641    Y=             -2.6799    Z=              0.8181  Tot=              2.9043
 Quadrupole moment (field-independent basis, Debye-Ang):
   XX=           -276.8623   YY=           -246.7496   ZZ=           -263.8513
   XY=             12.6479   XZ=              0.7111   YZ=              1.2834

 Normal termination of Gaussian 16 at Fri Jul 19 12:26:42 2019.
