 Gaussian 16, Revision A.03,
 Gaussian 16:  ES64L-G16RevA.03 25-Dec-2016

 -------------------------------------
 # td=(NStates=1) CAM-B3LYP/6-31G(d,p)
 -------------------------------------

 --
 TD
 --
 Symbolic Z-matrix:
 Charge =  0 Multiplicity = 1

                         Standard orientation:
 ---------------------------------------------------------------------
 Center     Atomic      Atomic             Coordinates (Angstroms)
 Number     Number       Type             X           Y           Z
 ---------------------------------------------------------------------
      1          8           0       14.788446   -2.136996   -0.153977
      2          8           0      -14.864681    1.836719    0.995568
      3          6           0       11.169696   -1.454499    1.000233
      4          6           0      -12.347045   -0.990434    0.626001
      5          6           0       12.724776   -1.790825    1.082436
      6          6           0      -13.786145   -0.341482    0.580285
      7          6           0       13.378145   -1.807057   -0.235355
      8          6           0      -13.513716    1.224868    0.950642
      9          6           0       11.035024   -0.214411    0.125884
     10          6           0      -11.307442   -0.218844   -0.126699
     11          6           0       13.328520   -0.468136   -0.916831
     12          6           0      -12.756984    1.889870   -0.232153
     13          6           0       11.940600    0.165132   -0.817653
     14          6           0      -11.614277    1.032797   -0.519971
     15          6           0       10.675850   -1.181986    2.434461
     16          6           0       10.494605   -2.650807    0.483693
     17          6           0      -11.843978   -1.181694    2.040099
     18          6           0      -12.660059   -2.255506   -0.130232
     19          6           0        9.637539    0.316744    0.161607
     20          6           0      -10.133298   -1.002683   -0.391931
     21          6           0       11.647590    1.177609   -1.883712
     22          6           0      -10.537190    1.868059   -1.365596
     23          6           0        9.377811    1.734918    0.103821
     24          6           0       -8.842540   -0.496288   -0.370987
     25          6           0        8.087731    2.282404    0.212548
     26          6           0       -7.644847   -1.286264   -0.476138
     27          6           0        7.998993    3.825253    0.694604
     28          6           0       -7.760615   -2.639114   -0.893960
     29          6           0        6.938042    1.547625   -0.147889
     30          6           0       -6.383268   -0.677310   -0.378264
     31          6           0        5.636303    1.976603    0.023681
     32          6           0       -5.109153   -1.129511   -0.490016
     33          6           0        4.507930    1.228445   -0.126762
     34          6           0       -4.038567   -0.408583   -0.336429
     35          6           0        3.145662    1.596168    0.035668
     36          6           0       -2.619649   -0.806532   -0.592886
     37          6           0        2.892199    2.990994    0.583151
     38          6           0       -2.420200   -2.091993   -1.120387
     39          6           0        2.204297    0.648438   -0.390568
     40          6           0       -1.576741    0.088771   -0.286055
     41          6           0        0.737235    0.854651   -0.196015
     42          6           0       -0.271694   -0.130701   -0.480936
     43          1           0       13.466325   -1.099959    1.678401
     44          1           0       13.052945   -2.658756    1.589004
     45          1           0      -14.412006   -0.724643    1.432822
     46          1           0      -14.239527   -0.273303   -0.288776
     47          1           0       12.859060   -2.382583   -0.950920
     48          1           0      -13.010205    1.360799    1.936894
     49          1           0       14.026652    0.200836   -0.409408
     50          1           0       13.712620   -0.484797   -2.047002
     51          1           0      -13.362974    2.099442   -1.121691
     52          1           0      -12.333092    2.773957    0.242973
     53          1           0       10.835557   -2.147166    3.002239
     54          1           0        9.679263   -1.038694    2.632046
     55          1           0       11.327356   -0.288779    2.871709
     56          1           0       10.774504   -2.911129   -0.556891
     57          1           0       10.587778   -3.512431    1.160202
     58          1           0        9.269400   -2.755439    0.448763
     59          1           0      -11.771310   -0.347278    2.977531
     60          1           0      -10.924445   -1.497208    2.055155
     61          1           0      -12.524619   -1.928388    2.561217
     62          1           0      -13.639533   -2.575027    0.437735
     63          1           0      -11.958056   -3.009914   -0.043479
     64          1           0      -12.733081   -1.969616   -1.101073
     65          1           0        8.855562   -0.279521    0.507885
     66          1           0      -10.152477   -2.038250   -0.652116
     67          1           0       10.542687    1.340266   -1.913895
     68          1           0       12.104153    2.397261   -1.882054
     69          1           0       12.193061    0.911196   -2.771077
     70          1           0      -11.160453    2.469600   -2.238050
     71          1           0       -9.702746    1.354506   -1.862341
     72          1           0      -10.050704    2.570218   -0.911815
     73          1           0       14.778970   -3.001266    0.202167
     74          1           0      -15.107012    1.597818    1.874473
     75          1           0       10.172439    2.594055    0.053639
     76          1           0       -8.592205    0.678095    0.043130
     77          1           0        8.860390    4.297130    1.034667
     78          1           0        7.636791    4.401924   -0.128324
     79          1           0        7.406805    3.963381    1.667837
     80          1           0       -8.427629   -3.268656   -0.186078
     81          1           0       -8.262474   -2.584819   -1.970696
     82          1           0       -6.804733   -3.324708   -0.875397
     83          1           0        7.102381    0.358462   -0.541772
     84          1           0       -6.470369    0.363980    0.146682
     85          1           0        5.547141    3.064527    0.231009
     86          1           0       -5.006942   -2.195701   -0.964547
     87          1           0        4.914222    0.179470   -0.528401
     88          1           0       -3.923161    0.707484    0.285214
     89          1           0        3.046418    2.923670    1.514099
     90          1           0        1.805831    3.238194    0.475281
     91          1           0        3.635553    3.865391    0.066981
     92          1           0       -2.561835   -2.943701   -0.310618
     93          1           0       -2.976249   -2.445198   -1.972420
     94          1           0       -1.191993   -2.279195   -1.580597
     95          1           0        2.674790   -0.348262   -0.579881
     96          1           0       -1.852378    1.084702   -0.017538
     97          1           0        0.539055    1.701473    0.117937
     98          1           0        0.007530   -1.129369   -0.961871
 ---------------------------------------------------------------------

 SCF Done:  E(RCAM-B3LYP) =  -1706.86761295     A.U. after   15 cycles

 Excitation energies and oscillator strengths:

 Excited State   1:      Singlet-A      2.1199 eV  584.86 nm  f=3.7597  <S**2>=0.000
     155 ->158         0.16940
     156 ->157         0.68450
 This state for optimization and/or second-order correction.
 Total Energy, E(TD-HF/TD-DFT) =  -1706.78970883
 Copying the excited state density for this state as the 1-particle RhoCI density.

 The electronic state is 1-A.
 Alpha  occ. eigenvalues --  -19.21168 -19.19901 -10.30472 -10.29385 -10.28507
 Alpha  occ. eigenvalues --  -10.28137 -10.28076 -10.27982 -10.27803 -10.27711
 Alpha  occ. eigenvalues --  -10.27649 -10.27480 -10.27460 -10.27425 -10.27272
 Alpha  occ. eigenvalues --  -10.27197 -10.27128 -10.26893 -10.26833 -10.26660
 Alpha  occ. eigenvalues --  -10.26582 -10.26540 -10.26507 -10.26482 -10.26457
 Alpha  occ. eigenvalues --  -10.26429 -10.26410 -10.26307 -10.26248 -10.26215
 Alpha  occ. eigenvalues --  -10.26186 -10.25891 -10.25805 -10.25628 -10.25618
 Alpha  occ. eigenvalues --  -10.25441 -10.25343 -10.25287 -10.25061 -10.24353
 Alpha  occ. eigenvalues --  -10.24146 -10.23711  -1.09780  -1.07625  -0.94339
 Alpha  occ. eigenvalues --   -0.94031  -0.92776  -0.91752  -0.91106  -0.89666
 Alpha  occ. eigenvalues --   -0.87839  -0.87261  -0.87234  -0.85808  -0.84795
 Alpha  occ. eigenvalues --   -0.83640  -0.82721  -0.79698  -0.79203  -0.78701
 Alpha  occ. eigenvalues --   -0.77508  -0.76719  -0.76208  -0.76003  -0.75798
 Alpha  occ. eigenvalues --   -0.75601  -0.75484  -0.75198  -0.73248  -0.70961
 Alpha  occ. eigenvalues --   -0.69403  -0.67565  -0.65665  -0.65369  -0.64912
 Alpha  occ. eigenvalues --   -0.63792  -0.63163  -0.61956  -0.59971  -0.59625
 Alpha  occ. eigenvalues --   -0.59205  -0.58444  -0.58010  -0.57687  -0.56886
 Alpha  occ. eigenvalues --   -0.55831  -0.54896  -0.54722  -0.54291  -0.53378
 Alpha  occ. eigenvalues --   -0.53210  -0.52299  -0.51854  -0.51372  -0.51068
 Alpha  occ. eigenvalues --   -0.50351  -0.50235  -0.50116  -0.50018  -0.49676
 Alpha  occ. eigenvalues --   -0.49596  -0.49233  -0.48869  -0.48704  -0.48335
 Alpha  occ. eigenvalues --   -0.48101  -0.47887  -0.47791  -0.46644  -0.46312
 Alpha  occ. eigenvalues --   -0.45920  -0.45303  -0.45290  -0.44592  -0.44299
 Alpha  occ. eigenvalues --   -0.44185  -0.43898  -0.43732  -0.43416  -0.43071
 Alpha  occ. eigenvalues --   -0.42798  -0.42594  -0.42406  -0.41936  -0.41774
 Alpha  occ. eigenvalues --   -0.41396  -0.41337  -0.40937  -0.40915  -0.40426
 Alpha  occ. eigenvalues --   -0.40214  -0.40135  -0.40120  -0.39886  -0.39487
 Alpha  occ. eigenvalues --   -0.39215  -0.38974  -0.38848  -0.38294  -0.37922
 Alpha  occ. eigenvalues --   -0.37746  -0.37185  -0.36882  -0.36691  -0.36451
 Alpha  occ. eigenvalues --   -0.35887  -0.34909  -0.34171  -0.33105  -0.32475
 Alpha  occ. eigenvalues --   -0.30017  -0.29635  -0.28723  -0.25921  -0.23025
 Alpha  occ. eigenvalues --   -0.19395
 Alpha virt. eigenvalues --   -0.06122  -0.02019   0.01435   0.05563   0.07624
 Alpha virt. eigenvalues --    0.08742   0.10331   0.11254   0.11622   0.11794
 Alpha virt. eigenvalues --    0.11955   0.12360   0.12656   0.13285   0.13656

 Mulliken charges:
               1
     1  O   -0.554508
     2  O   -0.559910
     3  C   -0.022414
     4  C   -0.048917
     5  C   -0.186765
     6  C   -0.158857
     7  C    0.144679
     8  C    0.087010
     9  C    0.074156
    10  C    0.091331
    11  C   -0.211675
    12  C   -0.205361
    13  C    0.064449
    14  C    0.027039
    15  C   -0.292162
    16  C   -0.296965
    17  C   -0.289266
    18  C   -0.282972
    19  C   -0.136268
    20  C   -0.138493
    21  C   -0.349084
    22  C   -0.359434
    23  C   -0.117346
    24  C   -0.096363
    25  C    0.065868
    26  C    0.135533
    27  C   -0.376266
    28  C   -0.390540
    29  C   -0.120509
    30  C   -0.119667
    31  C   -0.067006
    32  C   -0.084155
    33  C   -0.119738
    34  C   -0.089325
    35  C    0.092089
    36  C    0.135361
    37  C   -0.351290
    38  C   -0.385578
    39  C   -0.128765
    40  C   -0.099779
    41  C   -0.065814
    42  C   -0.077515
    43  H    0.094288
    44  H    0.080954
    45  H    0.080677
    46  H    0.115565
    47  H    0.089408
    48  H    0.091874
    49  H    0.124410
    50  H    0.089860
    51  H    0.133112
    52  H    0.123487
    53  H    0.085422
    54  H    0.114625
    55  H    0.096816
    56  H    0.111541
    57  H    0.108926
    58  H    0.075429
    59  H    0.069309
    60  H    0.124287
    61  H    0.084267
    62  H    0.087068
    63  H    0.095494
    64  H    0.120468
    65  H    0.103414
    66  H    0.100385
    67  H    0.128392
    68  H    0.060374
    69  H    0.111625
    70  H    0.060878
    71  H    0.114423
    72  H    0.125919
    73  H    0.298898
    74  H    0.297375
    75  H    0.101364
    76  H    0.072669
    77  H    0.119163
    78  H    0.133294
    79  H    0.113687
    80  H    0.111123
    81  H    0.115640
    82  H    0.101355
    83  H    0.070263
    84  H    0.065719
    85  H    0.076199
    86  H    0.081898
    87  H    0.066542
    88  H    0.062830
    89  H    0.152612
    90  H    0.107053
    91  H    0.099733
    92  H    0.115045
    93  H    0.135948
    94  H    0.060481
    95  H    0.091686
    96  H    0.082397
    97  H    0.049256
    98  H    0.080266
 Sum of Mulliken charges =  -0.00000

 Dipole moment (field-independent basis, Debye):
    X=              1.0094    Y=             -1.8009    Z=              2.2352  Tot=              3.0427
 Quadrupole moment (field-independent basis, Debye-Ang):
   XX=           -314.5042   YY=           -240.9802   ZZ=           -259.6693
   XY=              9.4747   XZ=             -7.0153   YZ=              4.3361

 Normal termination of Gaussian 16 at Fri Jul 19 16:19:58 2019.
