 Gaussian 16, Revision A.03,
 Gaussian 16:  ES64L-G16RevA.03 25-Dec-2016

 -------------------------------------
 # td=(NStates=1) CAM-B3LYP/6-31G(d,p)
 -------------------------------------

 --
 TD
 --
 Symbolic Z-matrix:
 Charge =  0 Multiplicity = 1

                         Standard orientation:
 ---------------------------------------------------------------------
 Center     Atomic      Atomic             Coordinates (Angstroms)
 Number     Number       Type             X           Y           Z
 ---------------------------------------------------------------------
      1          8           0       14.617337   -2.381215   -0.200068
      2          8           0      -14.657420    2.003002    0.972354
      3          6           0       11.090631   -1.497363    0.967174
      4          6           0      -12.274783   -1.138976    0.753443
      5          6           0       12.564579   -2.032627    1.141600
      6          6           0      -13.661867   -0.334818    0.688829
      7          6           0       13.261772   -2.032608   -0.263707
      8          6           0      -13.508903    1.109760    0.963890
      9          6           0       10.967942   -0.270578    0.056273
     10          6           0      -11.261111   -0.257875   -0.100110
     11          6           0       13.249207   -0.641622   -0.913237
     12          6           0      -12.662129    1.730275   -0.294180
     13          6           0       11.875155    0.048161   -0.912813
     14          6           0      -11.436861    0.980366   -0.549556
     15          6           0       10.529159   -1.131443    2.439758
     16          6           0       10.068961   -2.624019    0.500865
     17          6           0      -11.760513   -1.250909    2.202658
     18          6           0      -12.447625   -2.492687    0.039161
     19          6           0        9.588011    0.318740    0.120946
     20          6           0      -10.015812   -0.977842   -0.413177
     21          6           0       11.713744    1.117671   -1.948732
     22          6           0      -10.563988    1.677478   -1.567700
     23          6           0        9.381258    1.704226    0.108084
     24          6           0       -8.791358   -0.610196   -0.353443
     25          6           0        8.103640    2.366227    0.256105
     26          6           0       -7.528932   -1.302025   -0.664168
     27          6           0        8.018696    3.841816    0.569500
     28          6           0       -7.729615   -2.666036   -1.101606
     29          6           0        6.804678    1.741363    0.028447
     30          6           0       -6.363568   -0.586806   -0.488285
     31          6           0        5.538535    2.266765    0.176443
     32          6           0       -4.951032   -1.025208   -0.681747
     33          6           0        4.446176    1.472551   -0.157282
     34          6           0       -3.840826   -0.329984   -0.375750
     35          6           0        3.086105    1.803101    0.003908
     36          6           0       -2.513686   -0.727583   -0.495259
     37          6           0        2.817869    3.188472    0.507200
     38          6           0       -2.212742   -2.091218   -1.003666
     39          6           0        2.086424    0.826864   -0.185660
     40          6           0       -1.519236    0.223280   -0.277094
     41          6           0        0.727385    1.065836   -0.099326
     42          6           0       -0.122607   -0.005205   -0.339995
     43          1           0       13.052150   -1.412573    1.812898
     44          1           0       12.434307   -2.947664    1.702018
     45          1           0      -14.293432   -0.751683    1.606568
     46          1           0      -14.277765   -0.574566   -0.295534
     47          1           0       12.639633   -2.773316   -0.769014
     48          1           0      -12.932427    1.358762    1.937405
     49          1           0       14.262447   -0.389125   -0.214475
     50          1           0       13.685263   -0.827881   -1.920612
     51          1           0      -13.386423    1.828569   -1.096012
     52          1           0      -12.395957    2.825432    0.174903
     53          1           0       10.342808   -2.133738    3.120982
     54          1           0        9.535141   -0.759206    2.268880
     55          1           0       11.069344   -0.148767    2.839352
     56          1           0       10.047363   -2.978366   -0.506059
     57          1           0       10.099475   -3.448208    1.343247
     58          1           0        9.040133   -2.249343    0.761079
     59          1           0      -11.314257   -0.120526    2.493123
     60          1           0      -10.837564   -1.807026    2.232830
     61          1           0      -12.329949   -1.771607    3.000174
     62          1           0      -13.561865   -2.999566    0.501298
     63          1           0      -11.557089   -3.134956    0.135897
     64          1           0      -12.713888   -2.213168   -1.074505
     65          1           0        8.716502   -0.258838    0.331091
     66          1           0      -10.070672   -2.012720   -0.476329
     67          1           0       10.618403    1.432565   -2.018959
     68          1           0       12.147729    2.168855   -1.614632
     69          1           0       12.185700    0.757149   -2.899670
     70          1           0      -11.158223    2.392015   -2.119946
     71          1           0       -9.799716    0.921303   -2.049391
     72          1           0       -9.822683    2.410621   -1.137280
     73          1           0       14.718353   -3.287476    0.222402
     74          1           0      -15.285901    1.994108    1.734577
     75          1           0       10.167492    2.331764   -0.125202
     76          1           0       -8.557510    0.507603   -0.095771
     77          1           0        9.061706    4.091240    1.154296
     78          1           0        7.580274    4.588689   -0.032705
     79          1           0        7.427225    3.828323    1.568795
     80          1           0       -8.026362   -3.592377   -0.349482
     81          1           0       -8.635051   -2.700994   -1.777536
     82          1           0       -6.791158   -3.057460   -1.720038
     83          1           0        6.900244    0.788046   -0.575926
     84          1           0       -6.516920    0.491379   -0.134934
     85          1           0        5.338274    3.319251    0.339945
     86          1           0       -4.989018   -2.038790   -1.019639
     87          1           0        4.601680    0.427493   -0.570172
     88          1           0       -3.973336    0.675782   -0.078707
     89          1           0        3.411713    3.341208    1.475134
     90          1           0        1.731002    3.567529    0.754939
     91          1           0        3.152421    3.747309   -0.375874
     92          1           0       -2.766452   -2.941286   -0.473915
     93          1           0       -2.746850   -2.225506   -2.110628
     94          1           0       -1.193196   -2.192705   -1.023636
     95          1           0        2.583107   -0.149651   -0.382668
     96          1           0       -1.758365    1.088210   -0.193969
     97          1           0        0.507458    2.160054    0.264213
     98          1           0        0.438967   -0.850402   -0.747854
 ---------------------------------------------------------------------

 SCF Done:  E(RCAM-B3LYP) =  -1706.96404917     A.U. after   15 cycles

 Excitation energies and oscillator strengths:

 Excited State   1:      Singlet-A      2.1095 eV  587.75 nm  f=3.4595  <S**2>=0.000
     155 ->158         0.14886
     156 ->157         0.69220
 This state for optimization and/or second-order correction.
 Total Energy, E(TD-HF/TD-DFT) =  -1706.88652731
 Copying the excited state density for this state as the 1-particle RhoCI density.

 The electronic state is 1-A.
 Alpha  occ. eigenvalues --  -19.21818 -19.20489 -10.31092 -10.30189 -10.28856
 Alpha  occ. eigenvalues --  -10.28284 -10.27970 -10.27824 -10.27687 -10.27433
 Alpha  occ. eigenvalues --  -10.27411 -10.27315 -10.27302 -10.27284 -10.27078
 Alpha  occ. eigenvalues --  -10.26965 -10.26865 -10.26777 -10.26768 -10.26749
 Alpha  occ. eigenvalues --  -10.26724 -10.26688 -10.26511 -10.26428 -10.26427
 Alpha  occ. eigenvalues --  -10.26396 -10.26367 -10.26339 -10.26330 -10.26319
 Alpha  occ. eigenvalues --  -10.26096 -10.26086 -10.25856 -10.25780 -10.25614
 Alpha  occ. eigenvalues --  -10.25496 -10.25458 -10.25314 -10.25201 -10.24825
 Alpha  occ. eigenvalues --  -10.24022 -10.23903  -1.09670  -1.06783  -0.93265
 Alpha  occ. eigenvalues --   -0.92896  -0.92493  -0.91937  -0.90631  -0.89638
 Alpha  occ. eigenvalues --   -0.87826  -0.86481  -0.85855  -0.85403  -0.84488
 Alpha  occ. eigenvalues --   -0.83027  -0.81960  -0.79998  -0.79500  -0.78801
 Alpha  occ. eigenvalues --   -0.76503  -0.75738  -0.75598  -0.75455  -0.75416
 Alpha  occ. eigenvalues --   -0.75079  -0.73935  -0.73812  -0.73417  -0.70565
 Alpha  occ. eigenvalues --   -0.68991  -0.67081  -0.65690  -0.64761  -0.63537
 Alpha  occ. eigenvalues --   -0.63357  -0.62638  -0.62243  -0.60540  -0.59837
 Alpha  occ. eigenvalues --   -0.59634  -0.59039  -0.57905  -0.57691  -0.56667
 Alpha  occ. eigenvalues --   -0.55223  -0.54934  -0.54388  -0.54194  -0.54089
 Alpha  occ. eigenvalues --   -0.52956  -0.52389  -0.51412  -0.51176  -0.50767
 Alpha  occ. eigenvalues --   -0.50407  -0.50263  -0.50086  -0.49615  -0.49045
 Alpha  occ. eigenvalues --   -0.48336  -0.48128  -0.47836  -0.47456  -0.47413
 Alpha  occ. eigenvalues --   -0.47244  -0.46923  -0.46727  -0.46453  -0.46292
 Alpha  occ. eigenvalues --   -0.46137  -0.45763  -0.45166  -0.44836  -0.44653
 Alpha  occ. eigenvalues --   -0.44315  -0.43870  -0.43582  -0.43412  -0.43284
 Alpha  occ. eigenvalues --   -0.43031  -0.42517  -0.42049  -0.41823  -0.41351
 Alpha  occ. eigenvalues --   -0.41191  -0.41075  -0.41000  -0.40657  -0.40281
 Alpha  occ. eigenvalues --   -0.40214  -0.40062  -0.39578  -0.39479  -0.38996
 Alpha  occ. eigenvalues --   -0.38877  -0.38576  -0.38217  -0.37940  -0.37893
 Alpha  occ. eigenvalues --   -0.37503  -0.36923  -0.36831  -0.36427  -0.36271
 Alpha  occ. eigenvalues --   -0.34875  -0.34467  -0.32919  -0.32495  -0.31866
 Alpha  occ. eigenvalues --   -0.31480  -0.29744  -0.28273  -0.26409  -0.23660
 Alpha  occ. eigenvalues --   -0.19307
 Alpha virt. eigenvalues --   -0.06252  -0.01250   0.02376   0.05398   0.07297
 Alpha virt. eigenvalues --    0.08794   0.11159   0.11691   0.12168   0.12216
 Alpha virt. eigenvalues --    0.12278   0.12423   0.13004   0.13224   0.13531

 Mulliken charges:
               1
     1  O   -0.561633
     2  O   -0.586944
     3  C   -0.039603
     4  C    0.013462
     5  C   -0.180220
     6  C   -0.174301
     7  C    0.162176
     8  C    0.174452
     9  C    0.079882
    10  C    0.050060
    11  C   -0.223369
    12  C   -0.244078
    13  C    0.065510
    14  C    0.095044
    15  C   -0.306639
    16  C   -0.303200
    17  C   -0.301358
    18  C   -0.287264
    19  C   -0.129660
    20  C   -0.133803
    21  C   -0.363429
    22  C   -0.367499
    23  C   -0.099168
    24  C   -0.090192
    25  C    0.059163
    26  C    0.161156
    27  C   -0.381031
    28  C   -0.392025
    29  C   -0.122155
    30  C   -0.146438
    31  C   -0.081191
    32  C   -0.093040
    33  C   -0.122085
    34  C   -0.097127
    35  C    0.095469
    36  C    0.125197
    37  C   -0.378073
    38  C   -0.358570
    39  C   -0.121262
    40  C   -0.071611
    41  C   -0.070016
    42  C   -0.110845
    43  H    0.102653
    44  H    0.081634
    45  H    0.062624
    46  H    0.093291
    47  H    0.074752
    48  H    0.079920
    49  H    0.113065
    50  H    0.107626
    51  H    0.129010
    52  H    0.087944
    53  H    0.082274
    54  H    0.111815
    55  H    0.098155
    56  H    0.115920
    57  H    0.083784
    58  H    0.098140
    59  H    0.087029
    60  H    0.111009
    61  H    0.108124
    62  H    0.065141
    63  H    0.113420
    64  H    0.105765
    65  H    0.098496
    66  H    0.056116
    67  H    0.115946
    68  H    0.107674
    69  H    0.109567
    70  H    0.113724
    71  H    0.116419
    72  H    0.106741
    73  H    0.310788
    74  H    0.303873
    75  H    0.088965
    76  H    0.062762
    77  H    0.086011
    78  H    0.137472
    79  H    0.118073
    80  H    0.103895
    81  H    0.123150
    82  H    0.095983
    83  H    0.082834
    84  H    0.077301
    85  H    0.099010
    86  H    0.073407
    87  H    0.078179
    88  H    0.077655
    89  H    0.125762
    90  H    0.096200
    91  H    0.132152
    92  H    0.114779
    93  H    0.098033
    94  H    0.111604
    95  H    0.078197
    96  H    0.052219
    97  H    0.088531
    98  H    0.101642
 Sum of Mulliken charges =  -0.00000

 Dipole moment (field-independent basis, Debye):
    X=             -0.2791    Y=             -1.4452    Z=              1.3226  Tot=              1.9788
 Quadrupole moment (field-independent basis, Debye-Ang):
   XX=           -289.4332   YY=           -242.3647   ZZ=           -262.1085
   XY=              1.2643   XZ=            -10.0377   YZ=              2.0434

 Normal termination of Gaussian 16 at Fri Jul 19 02:10:26 2019.
