 Gaussian 16, Revision A.03,
 Gaussian 16:  ES64L-G16RevA.03 25-Dec-2016

 -------------------------------------
 # td=(NStates=1) CAM-B3LYP/6-31G(d,p)
 -------------------------------------

 --
 TD
 --
 Symbolic Z-matrix:
 Charge =  0 Multiplicity = 1

                         Standard orientation:
 ---------------------------------------------------------------------
 Center     Atomic      Atomic             Coordinates (Angstroms)
 Number     Number       Type             X           Y           Z
 ---------------------------------------------------------------------
      1          8           0       14.701435   -2.151834   -0.144422
      2          8           0      -14.506619    1.949482    1.256905
      3          6           0       11.170617   -1.514879    1.072707
      4          6           0      -12.116880   -0.964002    0.771754
      5          6           0       12.679968   -1.907701    1.069236
      6          6           0      -13.510326   -0.261826    0.985572
      7          6           0       13.357272   -1.878274   -0.316429
      8          6           0      -13.286168    1.260897    1.102055
      9          6           0       10.942068   -0.211117    0.121356
     10          6           0      -11.275701   -0.259871   -0.177391
     11          6           0       13.250922   -0.540228   -0.967465
     12          6           0      -12.598415    1.838379   -0.204785
     13          6           0       11.905106    0.166653   -0.791105
     14          6           0      -11.464669    0.957720   -0.669468
     15          6           0       10.654450   -1.326956    2.447663
     16          6           0       10.330463   -2.585971    0.382093
     17          6           0      -11.510286   -1.130081    2.310612
     18          6           0      -12.608700   -2.416941    0.243390
     19          6           0        9.659783    0.321453    0.242795
     20          6           0      -10.096375   -1.120023   -0.461801
     21          6           0       11.746545    1.396830   -1.648100
     22          6           0      -10.609703    1.600583   -1.742583
     23          6           0        9.338117    1.736124    0.208540
     24          6           0       -8.849756   -0.535362   -0.517096
     25          6           0        7.938403    2.233328    0.318846
     26          6           0       -7.672508   -1.285828   -0.637766
     27          6           0        7.797181    3.749082    0.639393
     28          6           0       -7.730810   -2.749546   -1.053789
     29          6           0        6.848864    1.500332    0.243359
     30          6           0       -6.429124   -0.633504   -0.504552
     31          6           0        5.558898    2.071347    0.167537
     32          6           0       -5.052275   -1.111515   -0.732456
     33          6           0        4.414219    1.321364   -0.091700
     34          6           0       -3.960270   -0.320674   -0.600953
     35          6           0        3.063194    1.675270    0.021963
     36          6           0       -2.644225   -0.705132   -0.792073
     37          6           0        2.887999    3.041024    0.443045
     38          6           0       -2.378417   -2.176641   -0.864627
     39          6           0        1.982634    0.761996   -0.330178
     40          6           0       -1.651023    0.223128   -0.537247
     41          6           0        0.620996    1.000591   -0.372479
     42          6           0       -0.315373    0.078321   -0.751666
     43          1           0       13.337991   -1.282770    1.697051
     44          1           0       12.766143   -3.033780    1.428888
     45          1           0      -13.989556   -0.586092    1.926559
     46          1           0      -14.364347   -0.411528    0.313268
     47          1           0       12.844912   -2.588127   -0.958789
     48          1           0      -12.664730    1.567647    1.923620
     49          1           0       14.023734    0.017964   -0.732689
     50          1           0       13.465625   -0.603206   -2.006120
     51          1           0      -13.373821    1.992347   -1.060872
     52          1           0      -12.374338    2.931466   -0.053140
     53          1           0       10.917808   -2.216330    2.933027
     54          1           0        9.613843   -1.105682    2.389024
     55          1           0       11.168593   -0.546170    2.934318
     56          1           0       10.792693   -3.047420   -0.633217
     57          1           0       10.396961   -3.581882    1.046504
     58          1           0        9.269756   -2.322201    0.206221
     59          1           0      -11.113424   -0.034240    2.675921
     60          1           0      -10.755799   -1.841784    2.033593
     61          1           0      -12.367079   -1.531117    2.980288
     62          1           0      -13.485233   -2.704395    0.687563
     63          1           0      -12.032104   -3.233516    0.188058
     64          1           0      -13.069861   -2.270979   -0.746328
     65          1           0        8.834610   -0.220996    0.347452
     66          1           0      -10.244317   -2.145917   -0.819231
     67          1           0       10.607910    1.448473   -2.081946
     68          1           0       12.156778    2.352238   -1.161164
     69          1           0       12.263051    1.249821   -2.725468
     70          1           0      -11.364748    2.151269   -2.398310
     71          1           0      -10.131302    0.789357   -2.384546
     72          1           0      -10.036452    2.396333   -1.423418
     73          1           0       14.751552   -3.088060    0.225404
     74          1           0      -15.094383    1.631635    2.008214
     75          1           0       10.245581    2.322504    0.272393
     76          1           0       -8.618902    0.399029   -0.367698
     77          1           0        8.821752    4.341939    0.683899
     78          1           0        7.002460    4.335892   -0.043434
     79          1           0        7.426867    3.882689    1.749885
     80          1           0       -8.075107   -3.476612   -0.229041
     81          1           0       -8.528812   -2.536385   -2.007026
     82          1           0       -6.759130   -3.023811   -1.426732
     83          1           0        6.915312    0.367072   -0.104697
     84          1           0       -6.562553    0.370279   -0.280298
     85          1           0        5.270555    3.043895    0.341214
     86          1           0       -5.154933   -2.035765   -0.799374
     87          1           0        4.623406    0.169012   -0.122510
     88          1           0       -4.175132    0.693864   -0.392012
     89          1           0        3.444198    3.363258    1.369959
     90          1           0        1.893921    3.455965    0.712772
     91          1           0        3.343614    3.661385   -0.406007
     92          1           0       -2.723295   -2.848383    0.064482
     93          1           0       -2.902493   -2.542650   -1.845336
     94          1           0       -1.283263   -2.368065   -1.047792
     95          1           0        2.530512   -0.305356   -0.578720
     96          1           0       -2.034920    1.189049   -0.259068
     97          1           0        0.441897    2.070005   -0.048427
     98          1           0        0.229297   -0.832446   -1.053292
 ---------------------------------------------------------------------

 SCF Done:  E(RCAM-B3LYP) =  -1706.98875216     A.U. after   15 cycles

 Excitation energies and oscillator strengths:

 Excited State   1:      Singlet-A      2.0667 eV  599.92 nm  f=3.7670  <S**2>=0.000
     155 ->158        -0.14982
     156 ->157         0.69132
 This state for optimization and/or second-order correction.
 Total Energy, E(TD-HF/TD-DFT) =  -1706.91280291
 Copying the excited state density for this state as the 1-particle RhoCI density.

 The electronic state is 1-A.
 Alpha  occ. eigenvalues --  -19.21828 -19.20170 -10.29730 -10.29706 -10.28186
 Alpha  occ. eigenvalues --  -10.27952 -10.27890 -10.27860 -10.27837 -10.27576
 Alpha  occ. eigenvalues --  -10.27394 -10.27342 -10.27145 -10.27103 -10.27044
 Alpha  occ. eigenvalues --  -10.26869 -10.26725 -10.26672 -10.26618 -10.26604
 Alpha  occ. eigenvalues --  -10.26337 -10.26329 -10.26292 -10.26257 -10.26159
 Alpha  occ. eigenvalues --  -10.26035 -10.25973 -10.25943 -10.25936 -10.25831
 Alpha  occ. eigenvalues --  -10.25758 -10.25613 -10.25435 -10.25420 -10.24890
 Alpha  occ. eigenvalues --  -10.24813 -10.24761 -10.24490 -10.24438 -10.23633
 Alpha  occ. eigenvalues --  -10.23157 -10.23122  -1.10558  -1.07769  -0.93247
 Alpha  occ. eigenvalues --   -0.93219  -0.92793  -0.92110  -0.90666  -0.90048
 Alpha  occ. eigenvalues --   -0.88069  -0.87445  -0.85815  -0.85639  -0.84569
 Alpha  occ. eigenvalues --   -0.82571  -0.81600  -0.79592  -0.79079  -0.78323
 Alpha  occ. eigenvalues --   -0.76796  -0.76743  -0.75860  -0.75596  -0.75543
 Alpha  occ. eigenvalues --   -0.75124  -0.74377  -0.74171  -0.73533  -0.71338
 Alpha  occ. eigenvalues --   -0.68946  -0.67743  -0.66264  -0.65719  -0.65223
 Alpha  occ. eigenvalues --   -0.63749  -0.62675  -0.62022  -0.61159  -0.60114
 Alpha  occ. eigenvalues --   -0.59736  -0.59331  -0.58381  -0.57229  -0.56476
 Alpha  occ. eigenvalues --   -0.55867  -0.55694  -0.54884  -0.54258  -0.53669
 Alpha  occ. eigenvalues --   -0.52816  -0.52277  -0.52131  -0.51510  -0.50377
 Alpha  occ. eigenvalues --   -0.50197  -0.50024  -0.49381  -0.49121  -0.49062
 Alpha  occ. eigenvalues --   -0.48544  -0.48409  -0.48284  -0.48078  -0.48012
 Alpha  occ. eigenvalues --   -0.47900  -0.47596  -0.46936  -0.46613  -0.46342
 Alpha  occ. eigenvalues --   -0.46178  -0.45806  -0.45480  -0.45469  -0.45180
 Alpha  occ. eigenvalues --   -0.44832  -0.44559  -0.43795  -0.43335  -0.43135
 Alpha  occ. eigenvalues --   -0.42711  -0.42531  -0.42471  -0.42091  -0.41969
 Alpha  occ. eigenvalues --   -0.41709  -0.41223  -0.41019  -0.40986  -0.40815
 Alpha  occ. eigenvalues --   -0.40460  -0.40214  -0.40082  -0.39593  -0.39382
 Alpha  occ. eigenvalues --   -0.39293  -0.39074  -0.38910  -0.38590  -0.38073
 Alpha  occ. eigenvalues --   -0.37546  -0.37254  -0.36795  -0.36376  -0.36053
 Alpha  occ. eigenvalues --   -0.35062  -0.34027  -0.33448  -0.32087  -0.31722
 Alpha  occ. eigenvalues --   -0.31051  -0.29785  -0.28316  -0.25840  -0.23324
 Alpha  occ. eigenvalues --   -0.19154
 Alpha virt. eigenvalues --   -0.06449  -0.01323   0.01669   0.05674   0.08260
 Alpha virt. eigenvalues --    0.09280   0.10979   0.11544   0.12118   0.12392
 Alpha virt. eigenvalues --    0.12789   0.13067   0.13226   0.13621   0.13820

 Mulliken charges:
               1
     1  O   -0.554566
     2  O   -0.583474
     3  C   -0.017124
     4  C   -0.047783
     5  C   -0.195689
     6  C   -0.199250
     7  C    0.171921
     8  C    0.184999
     9  C    0.066629
    10  C    0.093972
    11  C   -0.208609
    12  C   -0.236289
    13  C    0.048455
    14  C    0.069313
    15  C   -0.279319
    16  C   -0.290571
    17  C   -0.285435
    18  C   -0.330150
    19  C   -0.104867
    20  C   -0.175840
    21  C   -0.368909
    22  C   -0.363919
    23  C   -0.126847
    24  C   -0.037874
    25  C    0.111094
    26  C    0.090528
    27  C   -0.365036
    28  C   -0.354625
    29  C   -0.127317
    30  C   -0.160409
    31  C   -0.053736
    32  C   -0.032340
    33  C   -0.149803
    34  C   -0.100640
    35  C    0.140111
    36  C    0.115332
    37  C   -0.414080
    38  C   -0.360524
    39  C   -0.123959
    40  C   -0.107666
    41  C   -0.072713
    42  C   -0.088709
    43  H    0.106386
    44  H    0.053556
    45  H    0.068842
    46  H    0.098541
    47  H    0.076327
    48  H    0.080317
    49  H    0.129688
    50  H    0.109240
    51  H    0.104117
    52  H    0.105019
    53  H    0.104369
    54  H    0.104724
    55  H    0.108581
    56  H    0.086680
    57  H    0.071651
    58  H    0.110726
    59  H    0.091907
    60  H    0.119068
    61  H    0.099283
    62  H    0.107171
    63  H    0.103690
    64  H    0.103876
    65  H    0.077980
    66  H    0.109613
    67  H    0.114896
    68  H    0.120583
    69  H    0.081154
    70  H    0.092733
    71  H    0.117712
    72  H    0.126401
    73  H    0.307187
    74  H    0.303702
    75  H    0.092721
    76  H    0.072312
    77  H    0.099589
    78  H    0.107877
    79  H    0.114035
    80  H    0.117580
    81  H    0.091950
    82  H    0.114176
    83  H    0.084067
    84  H    0.058742
    85  H    0.079359
    86  H    0.047719
    87  H    0.062296
    88  H    0.079641
    89  H    0.122680
    90  H    0.108013
    91  H    0.123493
    92  H    0.117196
    93  H    0.104625
    94  H    0.103971
    95  H    0.065275
    96  H    0.085801
    97  H    0.083690
    98  H    0.093190
 Sum of Mulliken charges =  -0.00000

 Dipole moment (field-independent basis, Debye):
    X=              0.7801    Y=             -1.3860    Z=              1.4370  Tot=              2.1435
 Quadrupole moment (field-independent basis, Debye-Ang):
   XX=           -267.0906   YY=           -242.8711   ZZ=           -262.4047
   XY=              7.0967   XZ=             -6.7113   YZ=              1.9987

 Normal termination of Gaussian 16 at Mon Jul 15 00:37:43 2019.
