 Gaussian 16, Revision A.03,
 Gaussian 16:  ES64L-G16RevA.03 25-Dec-2016

 -------------------------------------
 # td=(NStates=1) CAM-B3LYP/6-31G(d,p)
 -------------------------------------

 --
 TD
 --
 Symbolic Z-matrix:
 Charge =  0 Multiplicity = 1

                         Standard orientation:
 ---------------------------------------------------------------------
 Center     Atomic      Atomic             Coordinates (Angstroms)
 Number     Number       Type             X           Y           Z
 ---------------------------------------------------------------------
      1          8           0       14.502006   -2.619650   -0.139043
      2          8           0      -14.790105    1.697706    1.132406
      3          6           0       11.100675   -1.490863    1.111087
      4          6           0      -12.288680   -1.143066    0.597912
      5          6           0       12.541736   -1.990912    1.125833
      6          6           0      -13.650526   -0.375190    0.641130
      7          6           0       13.140667   -2.098190   -0.301918
      8          6           0      -13.539491    1.063438    0.960726
      9          6           0       10.983074   -0.249733    0.096905
     10          6           0      -11.274491   -0.289875   -0.196161
     11          6           0       13.186325   -0.717162   -0.892391
     12          6           0      -12.711071    1.791540   -0.040704
     13          6           0       11.880873   -0.009262   -0.849264
     14          6           0      -11.446241    0.996686   -0.439538
     15          6           0       10.626172   -1.170355    2.529979
     16          6           0       10.230883   -2.649891    0.655375
     17          6           0      -11.808714   -1.357427    2.062556
     18          6           0      -12.505433   -2.567232    0.093000
     19          6           0        9.650410    0.501635    0.121624
     20          6           0      -10.046197   -1.070059   -0.482501
     21          6           0       11.705373    1.055437   -2.014439
     22          6           0      -10.583560    1.828135   -1.339045
     23          6           0        9.377092    1.804103    0.059635
     24          6           0       -8.756340   -0.523225   -0.296853
     25          6           0        8.135414    2.428211    0.223495
     26          6           0       -7.551388   -1.171064   -0.557666
     27          6           0        7.938207    3.809559    0.612927
     28          6           0       -7.610927   -2.618999   -1.184669
     29          6           0        6.921433    1.736496    0.076247
     30          6           0       -6.315218   -0.538747   -0.402213
     31          6           0        5.605298    2.195139    0.012067
     32          6           0       -5.040831   -1.023151   -0.683030
     33          6           0        4.480416    1.332110   -0.000583
     34          6           0       -3.869692   -0.261948   -0.463053
     35          6           0        3.168991    1.883778    0.045755
     36          6           0       -2.558737   -0.532983   -0.747891
     37          6           0        2.921840    3.256095    0.445813
     38          6           0       -2.313700   -2.038904   -1.188689
     39          6           0        2.157334    0.916121   -0.182254
     40          6           0       -1.564484    0.350877   -0.416100
     41          6           0        0.848840    1.153608   -0.214655
     42          6           0       -0.170341    0.140516   -0.448451
     43          1           0       13.210363   -1.280061    1.746987
     44          1           0       12.391356   -2.977801    1.613855
     45          1           0      -14.247882   -0.988381    1.243480
     46          1           0      -14.223923   -0.435933   -0.224441
     47          1           0       12.698484   -2.668414   -0.757416
     48          1           0      -12.901482    1.400065    1.886606
     49          1           0       14.155417   -0.324049   -0.508864
     50          1           0       13.412995   -1.011135   -1.931916
     51          1           0      -13.243048    2.042089   -0.983669
     52          1           0      -12.349862    2.799324    0.365193
     53          1           0       10.832603   -1.981673    3.179709
     54          1           0        9.446392   -0.880564    2.669753
     55          1           0       11.058783   -0.308524    2.885225
     56          1           0       10.663507   -2.809389   -0.402320
     57          1           0       10.164139   -3.526802    1.242559
     58          1           0        9.222413   -2.387848    0.538733
     59          1           0      -11.688904   -0.403856    2.656879
     60          1           0      -10.771826   -1.682497    1.979557
     61          1           0      -12.442921   -1.882459    2.619465
     62          1           0      -13.312794   -2.981325    0.749229
     63          1           0      -11.619220   -3.123905    0.366142
     64          1           0      -12.681318   -2.602524   -1.029526
     65          1           0        8.807470   -0.034904    0.400502
     66          1           0      -10.371022   -2.091888   -0.836902
     67          1           0       10.695194    1.328736   -2.143582
     68          1           0       12.340394    1.887683   -1.950928
     69          1           0       12.166341    0.559220   -3.006763
     70          1           0      -11.120202    2.291155   -2.276230
     71          1           0       -9.690397    1.058826   -2.005505
     72          1           0      -10.046049    2.510228   -0.888190
     73          1           0       14.366203   -3.570410    0.102362
     74          1           0      -15.216279    1.323507    1.883410
     75          1           0       10.200846    2.357018   -0.164546
     76          1           0       -8.608898    0.358560    0.056184
     77          1           0        8.820815    4.243480    0.998183
     78          1           0        7.533203    4.490221   -0.052373
     79          1           0        7.454715    3.738288    1.638550
     80          1           0       -8.246274   -3.335459   -0.592571
     81          1           0       -8.110891   -2.535216   -2.318751
     82          1           0       -6.616458   -3.052900   -1.267541
     83          1           0        7.108071    0.639379   -0.064514
     84          1           0       -6.261701    0.460321   -0.016618
     85          1           0        5.283974    3.245967    0.076121
     86          1           0       -4.924258   -2.084047   -1.128807
     87          1           0        4.623914    0.341170   -0.009676
     88          1           0       -4.124514    0.742249   -0.122656
     89          1           0        3.342878    3.256003    1.485385
     90          1           0        1.911354    3.453627    0.647607
     91          1           0        3.137968    4.096012   -0.198147
     92          1           0       -2.674833   -2.545637   -0.281075
     93          1           0       -2.932374   -2.189799   -2.097781
     94          1           0       -1.126961   -2.272805   -1.356402
     95          1           0        2.279861   -0.061294   -0.437160
     96          1           0       -2.119872    1.316527   -0.139303
     97          1           0        0.519117    2.202136    0.197155
     98          1           0        0.160251   -0.866197   -0.761533
 ---------------------------------------------------------------------

 SCF Done:  E(RCAM-B3LYP) =  -1706.97170193     A.U. after   16 cycles

 Excitation energies and oscillator strengths:

 Excited State   1:      Singlet-A      1.8342 eV  675.95 nm  f=3.8847  <S**2>=0.000
     155 ->158        -0.13753
     156 ->157         0.69947
     156 <-157        -0.11769
 This state for optimization and/or second-order correction.
 Total Energy, E(TD-HF/TD-DFT) =  -1706.90429528
 Copying the excited state density for this state as the 1-particle RhoCI density.

 The electronic state is 1-A.
 Alpha  occ. eigenvalues --  -19.20891 -19.20421 -10.30177 -10.28041 -10.27970
 Alpha  occ. eigenvalues --  -10.27617 -10.27511 -10.27234 -10.27188 -10.27136
 Alpha  occ. eigenvalues --  -10.27061 -10.27015 -10.26963 -10.26858 -10.26843
 Alpha  occ. eigenvalues --  -10.26822 -10.26812 -10.26747 -10.26697 -10.26438
 Alpha  occ. eigenvalues --  -10.26116 -10.26011 -10.26007 -10.25961 -10.25739
 Alpha  occ. eigenvalues --  -10.25659 -10.25606 -10.25539 -10.25442 -10.25424
 Alpha  occ. eigenvalues --  -10.25418 -10.25253 -10.25212 -10.25159 -10.25056
 Alpha  occ. eigenvalues --  -10.25002 -10.24828 -10.24427 -10.24320 -10.24250
 Alpha  occ. eigenvalues --  -10.23489 -10.23417  -1.09744  -1.07858  -0.93628
 Alpha  occ. eigenvalues --   -0.93499  -0.92818  -0.91859  -0.91451  -0.90019
 Alpha  occ. eigenvalues --   -0.87554  -0.87252  -0.87038  -0.85717  -0.85040
 Alpha  occ. eigenvalues --   -0.83398  -0.82453  -0.81122  -0.79837  -0.78347
 Alpha  occ. eigenvalues --   -0.76924  -0.76523  -0.76459  -0.76170  -0.75867
 Alpha  occ. eigenvalues --   -0.75820  -0.75449  -0.75217  -0.73127  -0.71356
 Alpha  occ. eigenvalues --   -0.69827  -0.68320  -0.66987  -0.65463  -0.64401
 Alpha  occ. eigenvalues --   -0.63765  -0.63105  -0.61818  -0.61527  -0.60565
 Alpha  occ. eigenvalues --   -0.60086  -0.59930  -0.58194  -0.57819  -0.56285
 Alpha  occ. eigenvalues --   -0.56120  -0.55444  -0.55354  -0.54510  -0.53624
 Alpha  occ. eigenvalues --   -0.52775  -0.52757  -0.52308  -0.51868  -0.51434
 Alpha  occ. eigenvalues --   -0.51002  -0.50654  -0.50465  -0.50275  -0.49773
 Alpha  occ. eigenvalues --   -0.49391  -0.49210  -0.49013  -0.48981  -0.48617
 Alpha  occ. eigenvalues --   -0.47900  -0.47796  -0.47015  -0.46722  -0.46139
 Alpha  occ. eigenvalues --   -0.46047  -0.45892  -0.45556  -0.45497  -0.45082
 Alpha  occ. eigenvalues --   -0.44663  -0.44506  -0.43938  -0.43736  -0.43549
 Alpha  occ. eigenvalues --   -0.43481  -0.42723  -0.42248  -0.41929  -0.41899
 Alpha  occ. eigenvalues --   -0.41645  -0.41463  -0.41290  -0.41176  -0.41123
 Alpha  occ. eigenvalues --   -0.40660  -0.40437  -0.39981  -0.39774  -0.39293
 Alpha  occ. eigenvalues --   -0.39031  -0.38763  -0.38544  -0.38228  -0.37828
 Alpha  occ. eigenvalues --   -0.37611  -0.37528  -0.36963  -0.36352  -0.35712
 Alpha  occ. eigenvalues --   -0.35544  -0.35167  -0.34254  -0.32625  -0.31804
 Alpha  occ. eigenvalues --   -0.31589  -0.30414  -0.29148  -0.26435  -0.22991
 Alpha  occ. eigenvalues --   -0.18193
 Alpha virt. eigenvalues --   -0.07114  -0.01530   0.02274   0.06160   0.08012
 Alpha virt. eigenvalues --    0.10204   0.11517   0.12260   0.12452   0.12605
 Alpha virt. eigenvalues --    0.13273   0.13404   0.13630   0.14132   0.14375

 Mulliken charges:
               1
     1  O   -0.580255
     2  O   -0.562607
     3  C   -0.023807
     4  C   -0.037884
     5  C   -0.186545
     6  C   -0.180637
     7  C    0.213915
     8  C    0.183265
     9  C    0.050577
    10  C    0.085058
    11  C   -0.234429
    12  C   -0.217747
    13  C    0.044853
    14  C    0.033603
    15  C   -0.294720
    16  C   -0.294069
    17  C   -0.297662
    18  C   -0.310080
    19  C   -0.113094
    20  C   -0.150859
    21  C   -0.353868
    22  C   -0.346987
    23  C   -0.095182
    24  C   -0.062447
    25  C    0.084136
    26  C    0.101058
    27  C   -0.382192
    28  C   -0.351654
    29  C   -0.118137
    30  C   -0.128668
    31  C   -0.092050
    32  C   -0.081332
    33  C   -0.083265
    34  C   -0.129921
    35  C    0.089176
    36  C    0.100342
    37  C   -0.390504
    38  C   -0.358870
    39  C   -0.079367
    40  C   -0.103435
    41  C   -0.082786
    42  C   -0.130546
    43  H    0.094958
    44  H    0.072449
    45  H    0.074556
    46  H    0.106493
    47  H    0.063491
    48  H    0.060858
    49  H    0.131804
    50  H    0.101506
    51  H    0.110688
    52  H    0.100550
    53  H    0.103415
    54  H    0.073216
    55  H    0.113065
    56  H    0.082956
    57  H    0.108321
    58  H    0.108379
    59  H    0.090371
    60  H    0.110408
    61  H    0.106034
    62  H    0.098255
    63  H    0.110127
    64  H    0.104016
    65  H    0.072360
    66  H    0.100179
    67  H    0.127494
    68  H    0.128332
    69  H    0.084667
    70  H    0.100861
    71  H    0.064522
    72  H    0.129557
    73  H    0.303285
    74  H    0.302597
    75  H    0.080153
    76  H    0.070767
    77  H    0.107002
    78  H    0.132248
    79  H    0.122630
    80  H    0.112595
    81  H    0.094920
    82  H    0.106452
    83  H    0.069277
    84  H    0.077619
    85  H    0.088065
    86  H    0.078046
    87  H    0.077511
    88  H    0.073017
    89  H    0.133803
    90  H    0.116757
    91  H    0.134647
    92  H    0.135907
    93  H    0.127549
    94  H    0.085054
    95  H    0.074438
    96  H    0.077283
    97  H    0.070340
    98  H    0.083775
 Sum of Mulliken charges =  -0.00000

 Dipole moment (field-independent basis, Debye):
    X=              0.3087    Y=             -1.1786    Z=              1.5106  Tot=              1.9407
 Quadrupole moment (field-independent basis, Debye-Ang):
   XX=           -295.9000   YY=           -239.8064   ZZ=           -260.0704
   XY=             14.2620   XZ=            -11.0236   YZ=              1.6029

 Normal termination of Gaussian 16 at Wed Jul 17 02:05:55 2019.
