 Gaussian 16, Revision A.03,
 Gaussian 16:  ES64L-G16RevA.03 25-Dec-2016

 -------------------------------------
 # td=(NStates=1) CAM-B3LYP/6-31G(d,p)
 -------------------------------------

 --
 TD
 --
 Symbolic Z-matrix:
 Charge =  0 Multiplicity = 1

                         Standard orientation:
 ---------------------------------------------------------------------
 Center     Atomic      Atomic             Coordinates (Angstroms)
 Number     Number       Type             X           Y           Z
 ---------------------------------------------------------------------
      1          8           0       14.698863   -2.403327   -0.298541
      2          8           0      -14.783276    1.856890    0.690180
      3          6           0       11.204942   -1.557590    0.853925
      4          6           0      -12.423714   -1.061520    0.517770
      5          6           0       12.681133   -2.075171    0.886592
      6          6           0      -13.753833   -0.332202    0.518673
      7          6           0       13.274992   -1.977201   -0.430718
      8          6           0      -13.600795    1.152702    0.723293
      9          6           0       11.017365   -0.224810   -0.021767
     10          6           0      -11.325893   -0.278625   -0.199680
     11          6           0       13.379991   -0.556350   -1.097834
     12          6           0      -12.739864    1.780549   -0.399738
     13          6           0       11.936207    0.152665   -0.935536
     14          6           0      -11.458189    1.066922   -0.617369
     15          6           0       10.706503   -1.229671    2.307808
     16          6           0       10.283329   -2.682650    0.276590
     17          6           0      -11.971668   -1.287874    2.077391
     18          6           0      -12.796594   -2.503303   -0.130362
     19          6           0        9.685466    0.398994   -0.003505
     20          6           0      -10.072495   -0.984537   -0.373354
     21          6           0       11.818269    1.337714   -1.852314
     22          6           0      -10.590504    1.638869   -1.680968
     23          6           0        9.437397    1.764296    0.030229
     24          6           0       -8.798081   -0.509170   -0.312732
     25          6           0        8.101192    2.259655    0.045981
     26          6           0       -7.530015   -1.233436   -0.382040
     27          6           0        8.059270    3.720018    0.486473
     28          6           0       -7.593860   -2.655350   -0.862037
     29          6           0        6.864429    1.568495   -0.006987
     30          6           0       -6.333037   -0.612686   -0.235396
     31          6           0        5.664677    2.045028    0.304975
     32          6           0       -5.058492   -1.008244   -0.442228
     33          6           0        4.445454    1.333819    0.124111
     34          6           0       -3.917238   -0.270448   -0.226824
     35          6           0        3.132723    1.745120    0.393413
     36          6           0       -2.559521   -0.621408   -0.296653
     37          6           0        2.888578    3.093108    0.810333
     38          6           0       -2.280503   -1.918879   -0.893265
     39          6           0        2.106301    0.820661    0.188968
     40          6           0       -1.584751    0.301802   -0.089286
     41          6           0        0.727966    1.113727    0.186818
     42          6           0       -0.155329    0.075481   -0.059144
     43          1           0       13.416111   -1.340052    1.415542
     44          1           0       12.847228   -2.822085    1.540045
     45          1           0      -14.640404   -0.645437    1.181485
     46          1           0      -14.232721   -0.419279   -0.522310
     47          1           0       12.918274   -2.698492   -1.115630
     48          1           0      -13.197049    1.484781    1.739942
     49          1           0       14.000778    0.017584   -0.588175
     50          1           0       13.527858   -0.797008   -2.097122
     51          1           0      -13.342871    1.875975   -1.290957
     52          1           0      -12.399818    2.815187   -0.173632
     53          1           0       10.695530   -2.175058    2.865227
     54          1           0        9.512819   -1.043670    2.320578
     55          1           0       11.142076   -0.533520    3.020920
     56          1           0       10.466270   -2.958564   -0.828319
     57          1           0       10.408809   -3.581328    1.094188
     58          1           0        9.192366   -2.364252    0.282650
     59          1           0      -11.891557   -0.337645    2.511265
     60          1           0      -10.906871   -1.788516    1.897044
     61          1           0      -12.745116   -1.886880    2.609373
     62          1           0      -13.459344   -2.990248    0.527241
     63          1           0      -11.876826   -3.146309   -0.259075
     64          1           0      -13.303676   -2.510098   -1.218806
     65          1           0        9.036805   -0.238536    0.422251
     66          1           0      -10.063328   -2.108473   -0.576887
     67          1           0       10.688119    1.307495   -2.279805
     68          1           0       12.012332    2.263472   -1.387446
     69          1           0       12.293364    1.338748   -2.549859
     70          1           0      -11.100097    1.837959   -2.666368
     71          1           0       -9.974371    0.904100   -2.013880
     72          1           0       -9.917272    2.515231   -1.286803
     73          1           0       14.668340   -3.141147    0.088021
     74          1           0      -15.411317    1.617141    1.285343
     75          1           0       10.139676    2.700792    0.026052
     76          1           0       -8.896770    0.605189   -0.004802
     77          1           0        9.011031    4.072270    0.357513
     78          1           0        7.313699    4.342898   -0.359807
     79          1           0        7.763599    3.865444    1.555218
     80          1           0       -7.964879   -3.343591   -0.052989
     81          1           0       -8.087359   -2.829184   -1.752910
     82          1           0       -6.475427   -3.036044   -1.177528
     83          1           0        6.935155    0.531241   -0.377115
     84          1           0       -6.447326    0.254835    0.224939
     85          1           0        5.620909    3.028448    0.681290
     86          1           0       -4.930764   -1.966386   -0.935914
     87          1           0        4.599711    0.330493   -0.034719
     88          1           0       -4.104097    0.913166   -0.132618
     89          1           0        3.467678    3.424702    1.705477
     90          1           0        1.923482    3.358060    1.008901
     91          1           0        3.341140    3.777941   -0.138418
     92          1           0       -3.017522   -2.751482   -0.397786
     93          1           0       -2.597954   -2.024981   -1.878812
     94          1           0       -1.265377   -2.355844   -0.646297
     95          1           0        2.353858   -0.249360   -0.155862
     96          1           0       -2.029720    1.319912    0.344756
     97          1           0        0.209090    2.021556    0.338951
     98          1           0        0.218189   -0.800653   -0.378292
 ---------------------------------------------------------------------

 SCF Done:  E(RCAM-B3LYP) =  -1706.90346964     A.U. after   15 cycles

 Excitation energies and oscillator strengths:

 Excited State   1:      Singlet-A      1.9917 eV  622.50 nm  f=3.7377  <S**2>=0.000
     155 ->158         0.16189
     156 ->157         0.68928
 This state for optimization and/or second-order correction.
 Total Energy, E(TD-HF/TD-DFT) =  -1706.83027550
 Copying the excited state density for this state as the 1-particle RhoCI density.

 The electronic state is 1-A.
 Alpha  occ. eigenvalues --  -19.19632 -19.18456 -10.30155 -10.29957 -10.29314
 Alpha  occ. eigenvalues --  -10.28537 -10.27679 -10.27366 -10.27297 -10.27160
 Alpha  occ. eigenvalues --  -10.27078 -10.27004 -10.26871 -10.26860 -10.26836
 Alpha  occ. eigenvalues --  -10.26811 -10.26777 -10.26527 -10.26375 -10.26373
 Alpha  occ. eigenvalues --  -10.26210 -10.26072 -10.26042 -10.26021 -10.26015
 Alpha  occ. eigenvalues --  -10.25964 -10.25892 -10.25882 -10.25878 -10.25779
 Alpha  occ. eigenvalues --  -10.25594 -10.25495 -10.25474 -10.25353 -10.25300
 Alpha  occ. eigenvalues --  -10.25142 -10.25137 -10.24856 -10.24612 -10.24482
 Alpha  occ. eigenvalues --  -10.23968 -10.22871  -1.11301  -1.10199  -0.93041
 Alpha  occ. eigenvalues --   -0.92940  -0.92679  -0.92163  -0.90828  -0.90276
 Alpha  occ. eigenvalues --   -0.87714  -0.86893  -0.86442  -0.85877  -0.85316
 Alpha  occ. eigenvalues --   -0.83727  -0.82681  -0.80618  -0.79579  -0.78276
 Alpha  occ. eigenvalues --   -0.77686  -0.76553  -0.76240  -0.75896  -0.75877
 Alpha  occ. eigenvalues --   -0.75038  -0.74995  -0.74816  -0.73605  -0.70658
 Alpha  occ. eigenvalues --   -0.69597  -0.68284  -0.66719  -0.65951  -0.64371
 Alpha  occ. eigenvalues --   -0.63909  -0.63659  -0.62448  -0.61184  -0.60297
 Alpha  occ. eigenvalues --   -0.59580  -0.58534  -0.58096  -0.57699  -0.56458
 Alpha  occ. eigenvalues --   -0.55852  -0.55488  -0.55236  -0.54783  -0.54283
 Alpha  occ. eigenvalues --   -0.53353  -0.53067  -0.52153  -0.51822  -0.51246
 Alpha  occ. eigenvalues --   -0.50092  -0.49622  -0.49474  -0.49394  -0.49315
 Alpha  occ. eigenvalues --   -0.49187  -0.48969  -0.48645  -0.48331  -0.48205
 Alpha  occ. eigenvalues --   -0.47993  -0.47710  -0.47298  -0.47226  -0.46558
 Alpha  occ. eigenvalues --   -0.46087  -0.45924  -0.45816  -0.45347  -0.45066
 Alpha  occ. eigenvalues --   -0.44672  -0.44111  -0.43831  -0.43488  -0.43147
 Alpha  occ. eigenvalues --   -0.42966  -0.42539  -0.42394  -0.41921  -0.41784
 Alpha  occ. eigenvalues --   -0.41760  -0.41678  -0.41409  -0.41374  -0.40982
 Alpha  occ. eigenvalues --   -0.40803  -0.40627  -0.40138  -0.39540  -0.39366
 Alpha  occ. eigenvalues --   -0.38996  -0.38877  -0.38443  -0.38317  -0.38037
 Alpha  occ. eigenvalues --   -0.37454  -0.37420  -0.36687  -0.36540  -0.36060
 Alpha  occ. eigenvalues --   -0.34945  -0.34208  -0.33780  -0.32886  -0.32078
 Alpha  occ. eigenvalues --   -0.31483  -0.30018  -0.28297  -0.26114  -0.22526
 Alpha  occ. eigenvalues --   -0.18889
 Alpha virt. eigenvalues --   -0.06469  -0.02170   0.02068   0.05054   0.07661
 Alpha virt. eigenvalues --    0.09856   0.11318   0.11872   0.12203   0.12888
 Alpha virt. eigenvalues --    0.12998   0.13616   0.13829   0.13979   0.14254

 Mulliken charges:
               1
     1  O   -0.551986
     2  O   -0.551251
     3  C   -0.023609
     4  C   -0.019568
     5  C   -0.186035
     6  C   -0.183003
     7  C    0.124092
     8  C    0.178198
     9  C    0.079370
    10  C    0.074690
    11  C   -0.175255
    12  C   -0.209619
    13  C   -0.032803
    14  C    0.035081
    15  C   -0.311444
    16  C   -0.290188
    17  C   -0.296137
    18  C   -0.304071
    19  C   -0.128398
    20  C   -0.144808
    21  C   -0.296043
    22  C   -0.359179
    23  C   -0.082585
    24  C   -0.099314
    25  C    0.064368
    26  C    0.088360
    27  C   -0.353323
    28  C   -0.376726
    29  C   -0.097433
    30  C   -0.080685
    31  C   -0.072499
    32  C   -0.077629
    33  C   -0.129002
    34  C   -0.133296
    35  C    0.149368
    36  C    0.159332
    37  C   -0.368468
    38  C   -0.385579
    39  C   -0.150326
    40  C   -0.143613
    41  C   -0.056862
    42  C   -0.078222
    43  H    0.094487
    44  H    0.099320
    45  H    0.070548
    46  H    0.093872
    47  H    0.091340
    48  H    0.062018
    49  H    0.134999
    50  H    0.122588
    51  H    0.122093
    52  H    0.103520
    53  H    0.092525
    54  H    0.079299
    55  H    0.121295
    56  H    0.109554
    57  H    0.082608
    58  H    0.103012
    59  H    0.117796
    60  H    0.098478
    61  H    0.097920
    62  H    0.114275
    63  H    0.093524
    64  H    0.089570
    65  H    0.088721
    66  H    0.075496
    67  H    0.096201
    68  H    0.116577
    69  H    0.086441
    70  H    0.106539
    71  H    0.134144
    72  H    0.097804
    73  H    0.272640
    74  H    0.288120
    75  H    0.091415
    76  H    0.078358
    77  H    0.103926
    78  H    0.079701
    79  H    0.125879
    80  H    0.119760
    81  H    0.133210
    82  H    0.079828
    83  H    0.069174
    84  H    0.066066
    85  H    0.081735
    86  H    0.071943
    87  H    0.073178
    88  H    0.069004
    89  H    0.121144
    90  H    0.117021
    91  H    0.094252
    92  H    0.086251
    93  H    0.142987
    94  H    0.106493
    95  H    0.086349
    96  H    0.072701
    97  H    0.091074
    98  H    0.077323
 Sum of Mulliken charges =  -0.00000

 Dipole moment (field-independent basis, Debye):
    X=             -0.2321    Y=             -1.4145    Z=              1.0710  Tot=              1.7894
 Quadrupole moment (field-independent basis, Debye-Ang):
   XX=           -268.9563   YY=           -246.4859   ZZ=           -258.2141
   XY=             11.9940   XZ=             -0.3661   YZ=              3.3007

 Normal termination of Gaussian 16 at Wed Jul 10 05:32:23 2019.
