 Gaussian 16, Revision A.03,
 Gaussian 16:  ES64L-G16RevA.03 25-Dec-2016

 -------------------------------------
 # td=(NStates=1) CAM-B3LYP/6-31G(d,p)
 -------------------------------------

 --
 TD
 --
 Symbolic Z-matrix:
 Charge =  0 Multiplicity = 1

                         Standard orientation:
 ---------------------------------------------------------------------
 Center     Atomic      Atomic             Coordinates (Angstroms)
 Number     Number       Type             X           Y           Z
 ---------------------------------------------------------------------
      1          8           0       14.780498   -2.200931   -0.281688
      2          8           0      -14.781756    1.964638    0.854766
      3          6           0       11.259291   -1.383184    0.956178
      4          6           0      -12.333614   -0.938102    0.687417
      5          6           0       12.776522   -1.683603    0.997517
      6          6           0      -13.727660   -0.251739    0.742322
      7          6           0       13.400220   -1.817431   -0.276114
      8          6           0      -13.496364    1.272388    0.872864
      9          6           0       10.975014   -0.158012    0.033243
     10          6           0      -11.292181   -0.184549   -0.089386
     11          6           0       13.275370   -0.485447   -1.083439
     12          6           0      -12.680560    1.782535   -0.229405
     13          6           0       11.887599    0.084010   -0.985905
     14          6           0      -11.412286    1.068811   -0.594424
     15          6           0       10.718780   -1.026428    2.360512
     16          6           0       10.441289   -2.686351    0.662513
     17          6           0      -11.934433   -1.138556    2.166922
     18          6           0      -12.665163   -2.272560    0.076298
     19          6           0        9.708259    0.429981    0.240877
     20          6           0      -10.031350   -1.056501   -0.384734
     21          6           0       11.620631    1.266766   -1.932048
     22          6           0      -10.501202    1.764057   -1.572178
     23          6           0        9.305420    1.753248    0.215338
     24          6           0       -8.729104   -0.521243   -0.340932
     25          6           0        7.976917    2.242671    0.290162
     26          6           0       -7.575092   -1.261195   -0.669421
     27          6           0        7.845057    3.670204    0.663621
     28          6           0       -7.739294   -2.630676   -1.345896
     29          6           0        6.821706    1.539997   -0.002296
     30          6           0       -6.430775   -0.690858   -0.388145
     31          6           0        5.522768    1.981438    0.050562
     32          6           0       -5.075816   -1.258570   -0.594359
     33          6           0        4.475828    1.177180   -0.076550
     34          6           0       -3.993817   -0.431042   -0.385733
     35          6           0        3.193403    1.571005    0.086806
     36          6           0       -2.553936   -0.822913   -0.445419
     37          6           0        2.798103    3.026232    0.268134
     38          6           0       -2.242837   -2.254346   -0.810098
     39          6           0        2.132149    0.700812   -0.162178
     40          6           0       -1.561860    0.142599   -0.080967
     41          6           0        0.697064    0.861473    0.036751
     42          6           0       -0.196222   -0.098572   -0.257654
     43          1           0       13.464984   -0.849759    1.532167
     44          1           0       13.079060   -2.726410    1.534481
     45          1           0      -14.408621   -0.661548    1.362907
     46          1           0      -14.049690   -0.470350   -0.298383
     47          1           0       13.017443   -2.671308   -0.863169
     48          1           0      -13.070478    1.491634    1.791439
     49          1           0       14.054652    0.163549   -0.579266
     50          1           0       13.604439   -0.602000   -2.130853
     51          1           0      -13.382633    1.910507   -1.138667
     52          1           0      -12.281354    2.855098    0.197986
     53          1           0       11.012121   -1.741639    3.178709
     54          1           0        9.607076   -0.663203    2.463052
     55          1           0       11.179526   -0.060818    2.602359
     56          1           0       10.847687   -3.167682   -0.152564
     57          1           0       10.632513   -3.390795    1.628125
     58          1           0        9.488230   -2.572525    0.762097
     59          1           0      -11.804976   -0.189233    2.899279
     60          1           0      -11.048860   -1.753380    2.257377
     61          1           0      -12.663696   -1.745377    2.568690
     62          1           0      -13.373603   -2.771012    0.539496
     63          1           0      -11.864941   -3.011057    0.134639
     64          1           0      -13.207265   -2.413545   -0.781177
     65          1           0        8.733402   -0.119948    0.720420
     66          1           0      -10.328153   -2.105316   -0.602894
     67          1           0       10.641581    1.337526   -2.158354
     68          1           0       11.975353    2.252418   -1.856446
     69          1           0       12.148268    0.995266   -2.972136
     70          1           0      -11.238877    2.251590   -2.445517
     71          1           0       -9.944928    1.004468   -2.122365
     72          1           0       -9.766693    2.463820   -1.400430
     73          1           0       14.505700   -3.126573    0.024340
     74          1           0      -15.316656    1.458724    1.571238
     75          1           0       10.074991    2.341274    0.217926
     76          1           0       -8.860632    0.552486    0.068108
     77          1           0        8.875025    4.179535    0.763180
     78          1           0        7.324251    4.341399   -0.092960
     79          1           0        7.251725    3.717339    1.449382
     80          1           0       -8.157986   -3.203744   -0.625558
     81          1           0       -8.434305   -2.547477   -2.278750
     82          1           0       -6.613687   -2.913666   -1.558544
     83          1           0        7.083489    0.346293   -0.047196
     84          1           0       -6.574945    0.431518    0.151201
     85          1           0        5.545364    3.067280    0.262263
     86          1           0       -4.840239   -2.167267   -1.020776
     87          1           0        4.677484    0.030450   -0.338321
     88          1           0       -4.211649    0.580047   -0.067578
     89          1           0        3.258329    3.573043    1.186532
     90          1           0        1.777957    3.130937    0.616924
     91          1           0        3.118774    3.622586   -0.676425
     92          1           0       -2.483900   -2.892973   -0.047559
     93          1           0       -2.918585   -2.533503   -1.679527
     94          1           0       -1.160450   -2.311401   -1.344964
     95          1           0        2.436073   -0.383812   -0.332341
     96          1           0       -1.890042    1.140915    0.097797
     97          1           0        0.449135    1.863235    0.509860
     98          1           0        0.096328   -1.146449   -0.268416
 ---------------------------------------------------------------------

 SCF Done:  E(RCAM-B3LYP) =  -1706.94058645     A.U. after   15 cycles

 Excitation energies and oscillator strengths:

 Excited State   1:      Singlet-A      2.2793 eV  543.96 nm  f=3.5722  <S**2>=0.000
     155 ->158         0.16571
     156 ->157         0.68380
 This state for optimization and/or second-order correction.
 Total Energy, E(TD-HF/TD-DFT) =  -1706.85682463
 Copying the excited state density for this state as the 1-particle RhoCI density.

 The electronic state is 1-A.
 Alpha  occ. eigenvalues --  -19.21638 -19.20704 -10.30104 -10.29083 -10.28409
 Alpha  occ. eigenvalues --  -10.28271 -10.28124 -10.27501 -10.27230 -10.27207
 Alpha  occ. eigenvalues --  -10.27184 -10.27159 -10.27071 -10.26998 -10.26838
 Alpha  occ. eigenvalues --  -10.26820 -10.26803 -10.26798 -10.26762 -10.26660
 Alpha  occ. eigenvalues --  -10.26554 -10.26528 -10.26481 -10.26418 -10.26381
 Alpha  occ. eigenvalues --  -10.26344 -10.26216 -10.26213 -10.26190 -10.26140
 Alpha  occ. eigenvalues --  -10.26092 -10.25987 -10.25790 -10.25497 -10.25127
 Alpha  occ. eigenvalues --  -10.25065 -10.25037 -10.24755 -10.24428 -10.24161
 Alpha  occ. eigenvalues --  -10.24064 -10.22951  -1.09906  -1.06965  -0.93844
 Alpha  occ. eigenvalues --   -0.93813  -0.92937  -0.91815  -0.91192  -0.90326
 Alpha  occ. eigenvalues --   -0.87792  -0.87512  -0.86712  -0.86026  -0.84408
 Alpha  occ. eigenvalues --   -0.83622  -0.82138  -0.80926  -0.79505  -0.78081
 Alpha  occ. eigenvalues --   -0.77961  -0.77111  -0.76712  -0.76382  -0.76189
 Alpha  occ. eigenvalues --   -0.76028  -0.75351  -0.75284  -0.73718  -0.70855
 Alpha  occ. eigenvalues --   -0.69113  -0.67696  -0.66059  -0.65113  -0.64541
 Alpha  occ. eigenvalues --   -0.63767  -0.62955  -0.62206  -0.60744  -0.59834
 Alpha  occ. eigenvalues --   -0.59587  -0.58810  -0.57873  -0.57403  -0.56296
 Alpha  occ. eigenvalues --   -0.56014  -0.55318  -0.54855  -0.54083  -0.53474
 Alpha  occ. eigenvalues --   -0.52957  -0.52863  -0.52242  -0.51934  -0.50810
 Alpha  occ. eigenvalues --   -0.50552  -0.50502  -0.50339  -0.49843  -0.49645
 Alpha  occ. eigenvalues --   -0.49528  -0.49375  -0.49184  -0.48883  -0.48732
 Alpha  occ. eigenvalues --   -0.48313  -0.48127  -0.47637  -0.46814  -0.46371
 Alpha  occ. eigenvalues --   -0.46118  -0.45797  -0.45459  -0.44871  -0.44749
 Alpha  occ. eigenvalues --   -0.44486  -0.43788  -0.43475  -0.43299  -0.43141
 Alpha  occ. eigenvalues --   -0.42942  -0.42701  -0.42294  -0.42237  -0.41785
 Alpha  occ. eigenvalues --   -0.41742  -0.41544  -0.41339  -0.41065  -0.40914
 Alpha  occ. eigenvalues --   -0.40572  -0.40301  -0.39855  -0.39731  -0.39604
 Alpha  occ. eigenvalues --   -0.39429  -0.39172  -0.38962  -0.38922  -0.38307
 Alpha  occ. eigenvalues --   -0.37793  -0.37484  -0.37272  -0.36435  -0.36157
 Alpha  occ. eigenvalues --   -0.35133  -0.34870  -0.34356  -0.32698  -0.32369
 Alpha  occ. eigenvalues --   -0.31182  -0.30196  -0.28564  -0.26158  -0.23399
 Alpha  occ. eigenvalues --   -0.19871
 Alpha virt. eigenvalues --   -0.05719  -0.01430   0.01986   0.05061   0.07876
 Alpha virt. eigenvalues --    0.09468   0.10337   0.11225   0.11960   0.11985
 Alpha virt. eigenvalues --    0.12303   0.12862   0.13140   0.13259   0.13795

 Mulliken charges:
               1
     1  O   -0.548541
     2  O   -0.574933
     3  C   -0.011902
     4  C   -0.032108
     5  C   -0.156541
     6  C   -0.200662
     7  C    0.126100
     8  C    0.177713
     9  C    0.082904
    10  C    0.058230
    11  C   -0.216172
    12  C   -0.219852
    13  C    0.045572
    14  C    0.067789
    15  C   -0.315200
    16  C   -0.267039
    17  C   -0.292151
    18  C   -0.324190
    19  C   -0.142960
    20  C   -0.148101
    21  C   -0.368256
    22  C   -0.368410
    23  C   -0.079959
    24  C   -0.115708
    25  C    0.077132
    26  C    0.115754
    27  C   -0.389449
    28  C   -0.343073
    29  C   -0.103641
    30  C   -0.129242
    31  C   -0.074523
    32  C   -0.096835
    33  C   -0.111782
    34  C   -0.101363
    35  C    0.124448
    36  C    0.072850
    37  C   -0.362215
    38  C   -0.380512
    39  C   -0.138157
    40  C   -0.108246
    41  C   -0.083283
    42  C   -0.083422
    43  H    0.093656
    44  H    0.052758
    45  H    0.086021
    46  H    0.096189
    47  H    0.075435
    48  H    0.090769
    49  H    0.123391
    50  H    0.112896
    51  H    0.115138
    52  H    0.084661
    53  H    0.098578
    54  H    0.099298
    55  H    0.098645
    56  H    0.102331
    57  H    0.069461
    58  H    0.117368
    59  H    0.088544
    60  H    0.103445
    61  H    0.105044
    62  H    0.105849
    63  H    0.093626
    64  H    0.114681
    65  H    0.080704
    66  H    0.086271
    67  H    0.134557
    68  H    0.126863
    69  H    0.068744
    70  H    0.077050
    71  H    0.128870
    72  H    0.130247
    73  H    0.303678
    74  H    0.301266
    75  H    0.074792
    76  H    0.097914
    77  H    0.101155
    78  H    0.112779
    79  H    0.140931
    80  H    0.139467
    81  H    0.118806
    82  H    0.093819
    83  H    0.053670
    84  H    0.074907
    85  H    0.089384
    86  H    0.082679
    87  H    0.086457
    88  H    0.079989
    89  H    0.095266
    90  H    0.108388
    91  H    0.122773
    92  H    0.145701
    93  H    0.112464
    94  H    0.104788
    95  H    0.066989
    96  H    0.085321
    97  H    0.085039
    98  H    0.100426
 Sum of Mulliken charges =  -0.00000

 Dipole moment (field-independent basis, Debye):
    X=             -1.2493    Y=             -2.1510    Z=              1.5035  Tot=              2.9066
 Quadrupole moment (field-independent basis, Debye-Ang):
   XX=           -301.6932   YY=           -244.0061   ZZ=           -262.1967
   XY=             31.2825   XZ=             -9.0359   YZ=              2.4580

 Normal termination of Gaussian 16 at Sat Jul 13 21:48:01 2019.
