 Gaussian 16, Revision A.03,
 Gaussian 16:  ES64L-G16RevA.03 25-Dec-2016

 -------------------------------------
 # td=(NStates=1) CAM-B3LYP/6-31G(d,p)
 -------------------------------------

 --
 TD
 --
 Symbolic Z-matrix:
 Charge =  0 Multiplicity = 1

                         Standard orientation:
 ---------------------------------------------------------------------
 Center     Atomic      Atomic             Coordinates (Angstroms)
 Number     Number       Type             X           Y           Z
 ---------------------------------------------------------------------
      1          8           0       14.573635   -2.464012   -0.250138
      2          8           0      -14.796959    1.673397    1.154449
      3          6           0       11.137590   -1.465364    1.096170
      4          6           0      -12.402950   -1.032538    0.651933
      5          6           0       12.602977   -1.914892    1.082310
      6          6           0      -13.729914   -0.300921    0.674280
      7          6           0       13.253140   -2.028431   -0.222530
      8          6           0      -13.506833    1.087260    1.004754
      9          6           0       10.982740   -0.163309    0.133431
     10          6           0      -11.307497   -0.243492   -0.076122
     11          6           0       13.241132   -0.627361   -0.816031
     12          6           0      -12.824543    1.798187   -0.106357
     13          6           0       11.889801    0.071522   -0.790402
     14          6           0      -11.525856    1.057986   -0.447610
     15          6           0       10.789093   -1.061650    2.559597
     16          6           0       10.266795   -2.598415    0.647328
     17          6           0      -11.903419   -1.289204    2.204757
     18          6           0      -12.603882   -2.492944    0.018010
     19          6           0        9.622335    0.437934    0.211144
     20          6           0      -10.148331   -1.005183   -0.506411
     21          6           0       11.929068    1.130419   -1.921423
     22          6           0      -10.537703    1.855272   -1.342880
     23          6           0        9.335852    1.718480    0.021903
     24          6           0       -8.875153   -0.494994   -0.293972
     25          6           0        8.051794    2.318750    0.150455
     26          6           0       -7.636925   -1.118387   -0.655222
     27          6           0        7.945854    3.754473    0.536996
     28          6           0       -7.632342   -2.487964   -1.196656
     29          6           0        6.924570    1.623818    0.046294
     30          6           0       -6.437099   -0.611130   -0.365579
     31          6           0        5.629726    2.039283    0.135226
     32          6           0       -5.012233   -1.015913   -0.651092
     33          6           0        4.549152    1.295738   -0.175954
     34          6           0       -3.952661   -0.274386   -0.438202
     35          6           0        3.175223    1.628745    0.004497
     36          6           0       -2.583629   -0.641309   -0.688177
     37          6           0        2.832110    3.044822    0.516503
     38          6           0       -2.294869   -2.076827   -1.201341
     39          6           0        2.160256    0.791540   -0.351577
     40          6           0       -1.531992    0.318024   -0.471294
     41          6           0        0.857617    0.954915   -0.155940
     42          6           0       -0.140832   -0.007474   -0.540442
     43          1           0       13.432870   -1.223290    1.683845
     44          1           0       12.688097   -2.936830    1.689646
     45          1           0      -14.439406   -0.867344    1.250236
     46          1           0      -14.106843   -0.283097   -0.431930
     47          1           0       12.563420   -2.577560   -1.020674
     48          1           0      -12.853676    0.946979    1.960269
     49          1           0       14.161111   -0.109405   -0.477779
     50          1           0       13.576875   -0.806081   -1.790669
     51          1           0      -13.376060    1.993459   -0.943846
     52          1           0      -12.475013    2.876281    0.369886
     53          1           0       11.064519   -1.756748    3.405300
     54          1           0        9.600424   -1.020796    2.889748
     55          1           0       11.120703   -0.034124    2.831407
     56          1           0       10.553011   -3.112977   -0.161357
     57          1           0       10.134755   -3.375369    1.449205
     58          1           0        9.145168   -2.258720    0.575734
     59          1           0      -11.743992   -0.258911    2.514481
     60          1           0      -11.036585   -1.693445    2.046993
     61          1           0      -12.554468   -1.907047    2.612590
     62          1           0      -13.629964   -2.804693    0.515471
     63          1           0      -11.745477   -3.035916    0.131319
     64          1           0      -12.773468   -2.238761   -1.021978
     65          1           0        8.701359   -0.270617    0.195739
     66          1           0      -10.126776   -2.067048   -0.598085
     67          1           0       10.859965    1.665757   -2.116456
     68          1           0       12.616094    2.032133   -1.552753
     69          1           0       12.385033    1.082260   -2.798972
     70          1           0      -11.160493    2.545001   -1.954512
     71          1           0      -10.152038    0.853024   -2.107310
     72          1           0       -9.864035    2.422022   -0.759307
     73          1           0       14.644562   -3.242757    0.120910
     74          1           0      -15.598249    1.201266    1.713309
     75          1           0       10.236006    2.343520    0.080677
     76          1           0       -8.700765    0.593173    0.089238
     77          1           0        9.014321    4.113914    0.615775
     78          1           0        7.557306    4.399218   -0.253877
     79          1           0        7.589969    3.846600    1.511130
     80          1           0       -7.928056   -3.633273   -0.752693
     81          1           0       -8.152504   -2.468046   -2.058738
     82          1           0       -6.727398   -2.876344   -1.752165
     83          1           0        7.007872    0.584579   -0.360939
     84          1           0       -6.341556    0.381333    0.156303
     85          1           0        5.682830    3.181407    0.715396
     86          1           0       -4.979589   -2.005480   -1.044674
     87          1           0        4.712245    0.323099   -0.353556
     88          1           0       -4.005734    0.628060    0.073720
     89          1           0        3.596540    3.166039    1.380078
     90          1           0        1.745634    3.212103    0.898453
     91          1           0        3.259832    3.766406   -0.186984
     92          1           0       -2.307497   -2.803490   -0.355321
     93          1           0       -2.735458   -2.139827   -2.179840
     94          1           0       -1.251445   -1.962069   -1.615361
     95          1           0        2.585594   -0.175838   -0.674833
     96          1           0       -1.890059    1.336658   -0.352605
     97          1           0        0.474407    1.862862    0.199495
     98          1           0        0.203692   -0.936812   -0.915873
 ---------------------------------------------------------------------

 SCF Done:  E(RCAM-B3LYP) =  -1706.91306564     A.U. after   15 cycles

 Excitation energies and oscillator strengths:

 Excited State   1:      Singlet-A      2.2934 eV  540.62 nm  f=3.7232  <S**2>=0.000
     155 ->158         0.14153
     156 ->157         0.69101
 This state for optimization and/or second-order correction.
 Total Energy, E(TD-HF/TD-DFT) =  -1706.82878644
 Copying the excited state density for this state as the 1-particle RhoCI density.

 The electronic state is 1-A.
 Alpha  occ. eigenvalues --  -19.21380 -19.20425 -10.30649 -10.29804 -10.28977
 Alpha  occ. eigenvalues --  -10.27821 -10.27792 -10.27277 -10.27092 -10.27056
 Alpha  occ. eigenvalues --  -10.27010 -10.27003 -10.26928 -10.26923 -10.26782
 Alpha  occ. eigenvalues --  -10.26591 -10.26562 -10.26562 -10.26552 -10.26487
 Alpha  occ. eigenvalues --  -10.26359 -10.26354 -10.26316 -10.26263 -10.25988
 Alpha  occ. eigenvalues --  -10.25932 -10.25823 -10.25799 -10.25700 -10.25657
 Alpha  occ. eigenvalues --  -10.25479 -10.25462 -10.25405 -10.25399 -10.25167
 Alpha  occ. eigenvalues --  -10.25113 -10.24922 -10.24613 -10.24603 -10.24195
 Alpha  occ. eigenvalues --  -10.23903 -10.21892  -1.13126  -1.06406  -0.93855
 Alpha  occ. eigenvalues --   -0.93239  -0.92913  -0.91805  -0.91410  -0.90064
 Alpha  occ. eigenvalues --   -0.87845  -0.86969  -0.86072  -0.85742  -0.85158
 Alpha  occ. eigenvalues --   -0.83896  -0.82015  -0.80946  -0.79586  -0.78204
 Alpha  occ. eigenvalues --   -0.77030  -0.76759  -0.76535  -0.76212  -0.75974
 Alpha  occ. eigenvalues --   -0.75376  -0.75159  -0.75059  -0.73669  -0.71300
 Alpha  occ. eigenvalues --   -0.69365  -0.67496  -0.66020  -0.65334  -0.64547
 Alpha  occ. eigenvalues --   -0.63376  -0.62714  -0.62242  -0.60615  -0.59984
 Alpha  occ. eigenvalues --   -0.59158  -0.59131  -0.58619  -0.57711  -0.56874
 Alpha  occ. eigenvalues --   -0.56096  -0.55376  -0.55085  -0.54541  -0.53609
 Alpha  occ. eigenvalues --   -0.53383  -0.53020  -0.52351  -0.51480  -0.51374
 Alpha  occ. eigenvalues --   -0.51094  -0.50818  -0.50496  -0.50089  -0.49943
 Alpha  occ. eigenvalues --   -0.49505  -0.48986  -0.48707  -0.48552  -0.48353
 Alpha  occ. eigenvalues --   -0.47819  -0.47557  -0.47114  -0.46725  -0.46641
 Alpha  occ. eigenvalues --   -0.46614  -0.45900  -0.45662  -0.45383  -0.44656
 Alpha  occ. eigenvalues --   -0.44352  -0.44245  -0.43617  -0.43286  -0.43175
 Alpha  occ. eigenvalues --   -0.42362  -0.41999  -0.41779  -0.41534  -0.41338
 Alpha  occ. eigenvalues --   -0.40980  -0.40560  -0.40518  -0.40319  -0.40288
 Alpha  occ. eigenvalues --   -0.40147  -0.40059  -0.39704  -0.39534  -0.39274
 Alpha  occ. eigenvalues --   -0.39034  -0.38933  -0.38851  -0.38177  -0.37776
 Alpha  occ. eigenvalues --   -0.37442  -0.37024  -0.36417  -0.36006  -0.35273
 Alpha  occ. eigenvalues --   -0.34660  -0.34107  -0.33953  -0.32912  -0.32396
 Alpha  occ. eigenvalues --   -0.30676  -0.30379  -0.29084  -0.26208  -0.23967
 Alpha  occ. eigenvalues --   -0.19676
 Alpha virt. eigenvalues --   -0.05747  -0.00981   0.02099   0.05829   0.07922
 Alpha virt. eigenvalues --    0.09774   0.10440   0.11567   0.11772   0.11971
 Alpha virt. eigenvalues --    0.12717   0.13146   0.13748   0.14246   0.14445

 Mulliken charges:
               1
     1  O   -0.524356
     2  O   -0.609264
     3  C    0.023764
     4  C   -0.087474
     5  C   -0.176020
     6  C   -0.165079
     7  C    0.165064
     8  C    0.222033
     9  C    0.009242
    10  C    0.109385
    11  C   -0.228157
    12  C   -0.195809
    13  C    0.083762
    14  C    0.005708
    15  C   -0.310623
    16  C   -0.298333
    17  C   -0.285259
    18  C   -0.297272
    19  C   -0.078791
    20  C   -0.175058
    21  C   -0.357940
    22  C   -0.341958
    23  C   -0.117417
    24  C   -0.080799
    25  C    0.088990
    26  C    0.137665
    27  C   -0.393161
    28  C   -0.397944
    29  C   -0.103788
    30  C   -0.141123
    31  C   -0.063925
    32  C   -0.078527
    33  C   -0.128711
    34  C   -0.076171
    35  C    0.105735
    36  C    0.053205
    37  C   -0.370781
    38  C   -0.367913
    39  C   -0.100449
    40  C   -0.124957
    41  C   -0.079166
    42  C   -0.095311
    43  H    0.080108
    44  H    0.056154
    45  H    0.077391
    46  H    0.075931
    47  H    0.055258
    48  H    0.065788
    49  H    0.115559
    50  H    0.113153
    51  H    0.130775
    52  H    0.084966
    53  H    0.102709
    54  H    0.071243
    55  H    0.113077
    56  H    0.118098
    57  H    0.098633
    58  H    0.092616
    59  H    0.101720
    60  H    0.110559
    61  H    0.102537
    62  H    0.084907
    63  H    0.109450
    64  H    0.109154
    65  H    0.086520
    66  H    0.096300
    67  H    0.096352
    68  H    0.093076
    69  H    0.130454
    70  H    0.100195
    71  H    0.097365
    72  H    0.128425
    73  H    0.288110
    74  H    0.309930
    75  H    0.089159
    76  H    0.084770
    77  H    0.097684
    78  H    0.133662
    79  H    0.141892
    80  H    0.093618
    81  H    0.131572
    82  H    0.101574
    83  H    0.066756
    84  H    0.063506
    85  H    0.065220
    86  H    0.082233
    87  H    0.080580
    88  H    0.078744
    89  H    0.105981
    90  H    0.107213
    91  H    0.130676
    92  H    0.136507
    93  H    0.134753
    94  H    0.098470
    95  H    0.068065
    96  H    0.090488
    97  H    0.076821
    98  H    0.090528
 Sum of Mulliken charges =  -0.00000

 Dipole moment (field-independent basis, Debye):
    X=              1.6228    Y=             -1.8111    Z=              0.6344  Tot=              2.5131
 Quadrupole moment (field-independent basis, Debye-Ang):
   XX=           -265.3538   YY=           -245.1439   ZZ=           -261.2797
   XY=             12.4432   XZ=             -0.9093   YZ=              0.7730

 Normal termination of Gaussian 16 at Thu Jul 18 19:41:18 2019.
