 Gaussian 16, Revision A.03,
 Gaussian 16:  ES64L-G16RevA.03 25-Dec-2016

 -------------------------------------
 # td=(NStates=1) CAM-B3LYP/6-31G(d,p)
 -------------------------------------

 --
 TD
 --
 Symbolic Z-matrix:
 Charge =  0 Multiplicity = 1

                         Standard orientation:
 ---------------------------------------------------------------------
 Center     Atomic      Atomic             Coordinates (Angstroms)
 Number     Number       Type             X           Y           Z
 ---------------------------------------------------------------------
      1          8           0       14.736114   -2.102454   -0.234683
      2          8           0      -14.619018    1.916382    1.223554
      3          6           0       11.241862   -1.412332    1.192577
      4          6           0      -12.258272   -1.049290    0.668687
      5          6           0       12.712420   -1.785537    1.083143
      6          6           0      -13.589838   -0.273372    0.722430
      7          6           0       13.304158   -1.922392   -0.372090
      8          6           0      -13.332831    1.281089    1.114281
      9          6           0       10.949490   -0.290040    0.078515
     10          6           0      -11.251783   -0.259824   -0.123634
     11          6           0       13.124095   -0.584407   -1.010541
     12          6           0      -12.603109    1.864224   -0.152677
     13          6           0       11.842987    0.056658   -0.869980
     14          6           0      -11.488365    0.963385   -0.508169
     15          6           0       10.955385   -1.002460    2.594452
     16          6           0       10.361379   -2.606322    0.762698
     17          6           0      -11.751714   -1.407903    2.081300
     18          6           0      -12.689668   -2.337590   -0.022893
     19          6           0        9.668949    0.329469    0.321906
     20          6           0      -10.030770   -0.992380   -0.540456
     21          6           0       11.495445    1.195696   -1.831582
     22          6           0      -10.527784    1.883949   -1.320466
     23          6           0        9.305492    1.653038    0.080548
     24          6           0       -8.802344   -0.534897   -0.395987
     25          6           0        7.927016    2.230889    0.076989
     26          6           0       -7.570626   -1.265290   -0.661372
     27          6           0        7.869799    3.675862    0.407299
     28          6           0       -7.617747   -2.711830   -1.270449
     29          6           0        6.801588    1.580915    0.020862
     30          6           0       -6.388810   -0.645041   -0.417849
     31          6           0        5.562596    2.011467    0.084814
     32          6           0       -5.070095   -1.143967   -0.690189
     33          6           0        4.409985    1.257155   -0.019201
     34          6           0       -3.991739   -0.461499   -0.491470
     35          6           0        3.151940    1.645081   -0.019561
     36          6           0       -2.599071   -0.770931   -0.589897
     37          6           0        2.819692    3.117338    0.313072
     38          6           0       -2.376941   -2.223317   -1.026903
     39          6           0        2.095619    0.760511   -0.341801
     40          6           0       -1.649531    0.143258   -0.315222
     41          6           0        0.693410    1.068851   -0.227270
     42          6           0       -0.203257    0.050373   -0.353464
     43          1           0       13.397054   -1.051369    1.638676
     44          1           0       13.041433   -2.685762    1.511694
     45          1           0      -14.441180   -0.785133    1.427451
     46          1           0      -14.120061   -0.108136   -0.295519
     47          1           0       12.594328   -2.595805   -0.903801
     48          1           0      -12.549349    1.453025    2.012669
     49          1           0       13.759148    0.047950   -0.598336
     50          1           0       13.508481   -0.833881   -2.125685
     51          1           0      -13.311922    2.068009   -0.985870
     52          1           0      -12.344926    2.920396    0.273629
     53          1           0       11.092830   -1.655293    3.623953
     54          1           0        9.983642   -0.819524    2.778535
     55          1           0       11.579989   -0.258077    2.728137
     56          1           0       10.656786   -3.086296   -0.268861
     57          1           0       10.205666   -3.404786    1.434025
     58          1           0        9.256266   -2.243348    0.718067
     59          1           0      -11.491622   -0.400629    2.593022
     60          1           0      -10.798220   -1.724961    1.965128
     61          1           0      -12.528344   -1.937558    2.683421
     62          1           0      -13.707361   -2.755419    0.432527
     63          1           0      -12.056678   -2.998846   -0.054815
     64          1           0      -13.196235   -2.124580   -1.054705
     65          1           0        8.953718   -0.412308    0.401265
     66          1           0      -10.212916   -2.091516   -0.593275
     67          1           0       10.517869    1.502762   -1.874501
     68          1           0       12.044066    2.089601   -1.544897
     69          1           0       12.015231    0.827545   -2.623909
     70          1           0      -10.920796    2.911401   -1.859991
     71          1           0       -9.897666    1.378314   -1.929867
     72          1           0       -9.742134    2.346247   -0.687495
     73          1           0       14.894586   -3.028879   -0.106337
     74          1           0      -15.052238    1.228032    1.888256
     75          1           0       10.077646    2.259031    0.198971
     76          1           0       -8.860743    0.559490   -0.036822
     77          1           0        8.801553    4.227995    0.425674
     78          1           0        7.185277    4.186379   -0.127205
     79          1           0        7.502533    3.681728    1.436247
     80          1           0       -8.064626   -3.277463   -0.437142
     81          1           0       -8.405994   -2.772254   -1.991275
     82          1           0       -6.556652   -3.076306   -1.318069
     83          1           0        6.928765    0.527857   -0.325394
     84          1           0       -6.329083    0.357041    0.120477
     85          1           0        5.143580    3.099250    0.379126
     86          1           0       -4.745608   -2.272135   -1.161510
     87          1           0        4.690721    0.145499   -0.236511
     88          1           0       -4.149350    0.630567   -0.277759
     89          1           0        3.556790    3.737404    1.159232
     90          1           0        1.752461    3.426182    0.819824
     91          1           0        3.033498    3.583622   -0.636554
     92          1           0       -3.057273   -2.875886   -0.375903
     93          1           0       -2.816882   -2.226082   -2.176756
     94          1           0       -1.203303   -2.643031   -0.862491
     95          1           0        2.247092   -0.248978   -0.615198
     96          1           0       -2.164768    1.103187   -0.067489
     97          1           0        0.375571    2.033379   -0.073873
     98          1           0       -0.001455   -0.980602   -0.515873
 ---------------------------------------------------------------------

 SCF Done:  E(RCAM-B3LYP) =  -1706.89114356     A.U. after   15 cycles

 Excitation energies and oscillator strengths:

 Excited State   1:      Singlet-A      2.3979 eV  517.05 nm  f=3.5178  <S**2>=0.000
     155 ->158        -0.14353
     156 ->157         0.69068
 This state for optimization and/or second-order correction.
 Total Energy, E(TD-HF/TD-DFT) =  -1706.80302254
 Copying the excited state density for this state as the 1-particle RhoCI density.

 The electronic state is 1-A.
 Alpha  occ. eigenvalues --  -19.22396 -19.21916 -10.31194 -10.30802 -10.29007
 Alpha  occ. eigenvalues --  -10.28785 -10.27876 -10.27571 -10.27511 -10.27371
 Alpha  occ. eigenvalues --  -10.27221 -10.27025 -10.27011 -10.26865 -10.26652
 Alpha  occ. eigenvalues --  -10.26615 -10.26535 -10.26502 -10.26436 -10.26400
 Alpha  occ. eigenvalues --  -10.26315 -10.26273 -10.26262 -10.25972 -10.25916
 Alpha  occ. eigenvalues --  -10.25826 -10.25666 -10.25651 -10.25595 -10.25516
 Alpha  occ. eigenvalues --  -10.25490 -10.25445 -10.25399 -10.25183 -10.24852
 Alpha  occ. eigenvalues --  -10.24562 -10.24299 -10.24163 -10.24067 -10.23605
 Alpha  occ. eigenvalues --  -10.23381 -10.23237  -1.09942  -1.07662  -0.94305
 Alpha  occ. eigenvalues --   -0.94056  -0.93115  -0.92442  -0.91111  -0.90228
 Alpha  occ. eigenvalues --   -0.88153  -0.87935  -0.87221  -0.86177  -0.85213
 Alpha  occ. eigenvalues --   -0.83222  -0.82077  -0.80732  -0.79037  -0.77981
 Alpha  occ. eigenvalues --   -0.77187  -0.77121  -0.76767  -0.76665  -0.76044
 Alpha  occ. eigenvalues --   -0.75681  -0.75458  -0.74310  -0.74189  -0.71318
 Alpha  occ. eigenvalues --   -0.69642  -0.67938  -0.66021  -0.65482  -0.64556
 Alpha  occ. eigenvalues --   -0.64135  -0.63678  -0.61808  -0.60404  -0.60240
 Alpha  occ. eigenvalues --   -0.59105  -0.58939  -0.58112  -0.56968  -0.56113
 Alpha  occ. eigenvalues --   -0.55643  -0.55242  -0.55013  -0.54201  -0.53797
 Alpha  occ. eigenvalues --   -0.53010  -0.52837  -0.52469  -0.52060  -0.52020
 Alpha  occ. eigenvalues --   -0.50861  -0.50673  -0.49887  -0.49660  -0.49365
 Alpha  occ. eigenvalues --   -0.49299  -0.49118  -0.48759  -0.48546  -0.48037
 Alpha  occ. eigenvalues --   -0.47884  -0.47735  -0.47066  -0.47017  -0.46715
 Alpha  occ. eigenvalues --   -0.46268  -0.45776  -0.45686  -0.45447  -0.44950
 Alpha  occ. eigenvalues --   -0.44290  -0.44126  -0.44041  -0.43829  -0.43484
 Alpha  occ. eigenvalues --   -0.43317  -0.43040  -0.42973  -0.42300  -0.42059
 Alpha  occ. eigenvalues --   -0.41797  -0.41683  -0.41248  -0.41019  -0.40644
 Alpha  occ. eigenvalues --   -0.40409  -0.40086  -0.39829  -0.39629  -0.39424
 Alpha  occ. eigenvalues --   -0.39226  -0.38975  -0.38638  -0.38272  -0.38059
 Alpha  occ. eigenvalues --   -0.37372  -0.37120  -0.36883  -0.36391  -0.36093
 Alpha  occ. eigenvalues --   -0.35750  -0.34212  -0.33316  -0.32592  -0.31837
 Alpha  occ. eigenvalues --   -0.31298  -0.30727  -0.28965  -0.26987  -0.24170
 Alpha  occ. eigenvalues --   -0.19932
 Alpha virt. eigenvalues --   -0.05441  -0.00822   0.02647   0.05768   0.08473
 Alpha virt. eigenvalues --    0.09969   0.10549   0.11111   0.11580   0.12186
 Alpha virt. eigenvalues --    0.12539   0.12831   0.13173   0.13350   0.14076

 Mulliken charges:
               1
     1  O   -0.552334
     2  O   -0.555465
     3  C   -0.002182
     4  C   -0.025030
     5  C   -0.179357
     6  C   -0.204963
     7  C    0.120690
     8  C    0.148488
     9  C    0.025788
    10  C    0.070465
    11  C   -0.195706
    12  C   -0.230896
    13  C    0.034893
    14  C    0.068631
    15  C   -0.284857
    16  C   -0.302578
    17  C   -0.289170
    18  C   -0.271385
    19  C   -0.080663
    20  C   -0.138614
    21  C   -0.343136
    22  C   -0.377291
    23  C   -0.137444
    24  C   -0.076915
    25  C    0.087235
    26  C    0.077920
    27  C   -0.380209
    28  C   -0.363530
    29  C   -0.118847
    30  C   -0.136804
    31  C   -0.062071
    32  C   -0.076324
    33  C   -0.111774
    34  C   -0.108257
    35  C    0.114659
    36  C    0.145201
    37  C   -0.378330
    38  C   -0.373821
    39  C   -0.129152
    40  C   -0.149240
    41  C   -0.054704
    42  C   -0.076345
    43  H    0.086018
    44  H    0.076748
    45  H    0.051109
    46  H    0.107616
    47  H    0.092766
    48  H    0.067262
    49  H    0.138495
    50  H    0.081865
    51  H    0.124977
    52  H    0.106305
    53  H    0.073343
    54  H    0.111801
    55  H    0.116000
    56  H    0.085127
    57  H    0.107683
    58  H    0.082883
    59  H    0.085904
    60  H    0.117147
    61  H    0.108358
    62  H    0.080564
    63  H    0.095820
    64  H    0.093529
    65  H    0.085999
    66  H    0.072245
    67  H    0.133834
    68  H    0.111772
    69  H    0.108057
    70  H    0.091160
    71  H    0.126053
    72  H    0.114016
    73  H    0.308745
    74  H    0.306958
    75  H    0.088289
    76  H    0.090047
    77  H    0.103696
    78  H    0.127892
    79  H    0.128326
    80  H    0.120845
    81  H    0.134160
    82  H    0.120298
    83  H    0.076094
    84  H    0.089905
    85  H    0.064662
    86  H    0.065228
    87  H    0.064783
    88  H    0.067518
    89  H    0.088711
    90  H    0.107058
    91  H    0.146962
    92  H    0.124105
    93  H    0.114017
    94  H    0.089099
    95  H    0.086293
    96  H    0.067392
    97  H    0.084723
    98  H    0.073162
 Sum of Mulliken charges =  -0.00000

 Dipole moment (field-independent basis, Debye):
    X=              1.4391    Y=             -2.1668    Z=              0.9121  Tot=              2.7564
 Quadrupole moment (field-independent basis, Debye-Ang):
   XX=           -280.1975   YY=           -243.3877   ZZ=           -263.5876
   XY=             11.0930   XZ=             -6.7899   YZ=              1.1238

 Normal termination of Gaussian 16 at Wed Jul 17 08:44:46 2019.
