 Gaussian 16, Revision A.03,
 Gaussian 16:  ES64L-G16RevA.03 25-Dec-2016

 -------------------------------------
 # td=(NStates=1) CAM-B3LYP/6-31G(d,p)
 -------------------------------------

 --
 TD
 --
 Symbolic Z-matrix:
 Charge =  0 Multiplicity = 1

                         Standard orientation:
 ---------------------------------------------------------------------
 Center     Atomic      Atomic             Coordinates (Angstroms)
 Number     Number       Type             X           Y           Z
 ---------------------------------------------------------------------
      1          8           0       14.665982   -2.266713    0.107220
      2          8           0      -14.652761    1.853341    1.251974
      3          6           0       11.120674   -1.472344    1.029173
      4          6           0      -12.291429   -1.093595    0.577778
      5          6           0       12.598722   -1.822706    1.120141
      6          6           0      -13.580465   -0.337849    0.838122
      7          6           0       13.375992   -1.869758   -0.151904
      8          6           0      -13.458231    1.190701    1.122342
      9          6           0       10.849840   -0.414945   -0.042756
     10          6           0      -11.218288   -0.195835   -0.142766
     11          6           0       13.298971   -0.526615   -0.742736
     12          6           0      -12.653426    1.848752    0.013190
     13          6           0       11.909357    0.114845   -0.766388
     14          6           0      -11.499466    1.026624   -0.447656
     15          6           0       10.619638   -1.041302    2.356978
     16          6           0       10.350225   -2.759809    0.598706
     17          6           0      -11.752297   -1.510381    1.922790
     18          6           0      -12.608126   -2.350409   -0.135136
     19          6           0        9.566989    0.198817    0.075809
     20          6           0      -10.047286   -0.997846   -0.487824
     21          6           0       11.686551    1.157170   -1.860475
     22          6           0      -10.491059    1.952618   -1.207219
     23          6           0        9.256462    1.512840    0.029186
     24          6           0       -8.787280   -0.522438   -0.348612
     25          6           0        8.053214    2.216671    0.081499
     26          6           0       -7.633963   -1.293221   -0.607975
     27          6           0        8.158906    3.716478    0.451699
     28          6           0       -7.664265   -2.697403   -1.239230
     29          6           0        6.831640    1.538075   -0.042099
     30          6           0       -6.417181   -0.598503   -0.343724
     31          6           0        5.538627    2.103161    0.059466
     32          6           0       -5.153952   -1.067055   -0.770345
     33          6           0        4.472033    1.367709   -0.106700
     34          6           0       -3.971228   -0.386459   -0.408773
     35          6           0        3.146660    1.828419    0.057341
     36          6           0       -2.626391   -0.797512   -0.641055
     37          6           0        2.821094    3.190021    0.349778
     38          6           0       -2.246710   -2.161118   -1.220553
     39          6           0        2.095011    0.821739   -0.287101
     40          6           0       -1.640888    0.240873   -0.300403
     41          6           0        0.733703    1.132098   -0.196931
     42          6           0       -0.279528    0.199695   -0.472382
     43          1           0       13.135170   -1.058379    1.386364
     44          1           0       12.658728   -2.738003    1.768835
     45          1           0      -14.170128   -0.830469    1.541506
     46          1           0      -14.204589   -0.441180   -0.091712
     47          1           0       12.822702   -2.571923   -0.796136
     48          1           0      -12.860982    1.199942    1.968407
     49          1           0       13.804355    0.271399   -0.341243
     50          1           0       13.525896   -0.735914   -1.737164
     51          1           0      -13.326806    2.088480   -0.835222
     52          1           0      -12.127438    2.689878    0.305321
     53          1           0       10.586654   -1.871208    3.160289
     54          1           0        9.456913   -0.722343    2.248028
     55          1           0       11.322646   -0.285434    2.718944
     56          1           0       10.941381   -3.169402   -0.373976
     57          1           0       10.297941   -3.426045    1.461516
     58          1           0        9.443079   -2.294718    0.419704
     59          1           0      -11.420178   -0.717852    2.513344
     60          1           0      -10.764916   -2.097177    1.721660
     61          1           0      -12.559745   -2.158972    2.491694
     62          1           0      -13.537577   -2.748261    0.451622
     63          1           0      -11.636159   -2.928994   -0.125300
     64          1           0      -13.080296   -2.229037   -1.211243
     65          1           0        8.736855   -0.489557    0.158094
     66          1           0      -10.301365   -2.064344   -1.020955
     67          1           0       10.616495    1.422159   -1.990087
     68          1           0       12.000451    2.124626   -1.496095
     69          1           0       12.092153    0.901106   -2.842934
     70          1           0      -10.932043    2.641711   -1.981858
     71          1           0       -9.554416    1.381629   -1.741819
     72          1           0       -9.968914    2.596198   -0.367767
     73          1           0       14.627856   -2.878563    0.913640
     74          1           0      -14.948254    1.814534    2.091494
     75          1           0       10.145481    2.090614    0.393784
     76          1           0       -8.585866    0.472198    0.174103
     77          1           0        9.349740    3.890463    0.395331
     78          1           0        7.475623    4.349736   -0.306125
     79          1           0        7.515367    3.935062    1.450311
     80          1           0       -8.334500   -3.260624   -0.741212
     81          1           0       -8.038893   -2.726818   -2.421024
     82          1           0       -6.620039   -3.210943   -1.345023
     83          1           0        6.835698    0.418263   -0.262936
     84          1           0       -6.402577    0.283848   -0.084768
     85          1           0        5.362093    3.113425    0.200916
     86          1           0       -5.066392   -2.032402   -1.232942
     87          1           0        4.708517    0.319356   -0.436081
     88          1           0       -4.009080    0.782742    0.008780
     89          1           0        2.895079    3.369652    1.482345
     90          1           0        1.734859    3.314445    0.016161
     91          1           0        3.460771    3.895503   -0.094287
     92          1           0       -3.142774   -2.615028   -0.541973
     93          1           0       -2.345254   -2.419428   -2.286050
     94          1           0       -1.166543   -2.372478   -0.793694
     95          1           0        2.477319   -0.103550   -0.701130
     96          1           0       -2.064730    1.285095    0.140236
     97          1           0        0.244909    2.083626    0.179446
     98          1           0        0.012857   -0.870907   -0.714220
 ---------------------------------------------------------------------

 SCF Done:  E(RCAM-B3LYP) =  -1706.94799574     A.U. after   16 cycles

 Excitation energies and oscillator strengths:

 Excited State   1:      Singlet-A      1.8265 eV  678.81 nm  f=3.7046  <S**2>=0.000
     155 ->158        -0.13767
     156 ->157         0.69883
     156 <-157        -0.11406
 This state for optimization and/or second-order correction.
 Total Energy, E(TD-HF/TD-DFT) =  -1706.88087289
 Copying the excited state density for this state as the 1-particle RhoCI density.

 The electronic state is 1-A.
 Alpha  occ. eigenvalues --  -19.21729 -19.20982 -10.29636 -10.29513 -10.28970
 Alpha  occ. eigenvalues --  -10.28906 -10.28290 -10.27892 -10.27855 -10.27740
 Alpha  occ. eigenvalues --  -10.27710 -10.27461 -10.27425 -10.27317 -10.27284
 Alpha  occ. eigenvalues --  -10.27166 -10.26829 -10.26827 -10.26451 -10.26434
 Alpha  occ. eigenvalues --  -10.26313 -10.26261 -10.26236 -10.26083 -10.25947
 Alpha  occ. eigenvalues --  -10.25855 -10.25753 -10.25680 -10.25662 -10.25611
 Alpha  occ. eigenvalues --  -10.25497 -10.25482 -10.24803 -10.24799 -10.24793
 Alpha  occ. eigenvalues --  -10.24744 -10.24712 -10.24697 -10.24194 -10.23963
 Alpha  occ. eigenvalues --  -10.23523 -10.23170  -1.12546  -1.10783  -0.94557
 Alpha  occ. eigenvalues --   -0.94035  -0.92683  -0.91471  -0.90512  -0.89886
 Alpha  occ. eigenvalues --   -0.87828  -0.87664  -0.87567  -0.86138  -0.85158
 Alpha  occ. eigenvalues --   -0.83790  -0.82346  -0.80216  -0.79271  -0.78642
 Alpha  occ. eigenvalues --   -0.77015  -0.76504  -0.75803  -0.75530  -0.75517
 Alpha  occ. eigenvalues --   -0.75306  -0.75108  -0.74600  -0.72783  -0.70832
 Alpha  occ. eigenvalues --   -0.69436  -0.68227  -0.66461  -0.65499  -0.63796
 Alpha  occ. eigenvalues --   -0.62998  -0.62618  -0.61485  -0.61324  -0.61186
 Alpha  occ. eigenvalues --   -0.60301  -0.59762  -0.58970  -0.57835  -0.56816
 Alpha  occ. eigenvalues --   -0.55928  -0.55350  -0.55153  -0.54936  -0.53997
 Alpha  occ. eigenvalues --   -0.53440  -0.52858  -0.52353  -0.51628  -0.51000
 Alpha  occ. eigenvalues --   -0.50560  -0.50307  -0.50005  -0.49560  -0.49278
 Alpha  occ. eigenvalues --   -0.48793  -0.48549  -0.48335  -0.48153  -0.47818
 Alpha  occ. eigenvalues --   -0.47531  -0.47475  -0.47411  -0.46384  -0.46229
 Alpha  occ. eigenvalues --   -0.46062  -0.45844  -0.45450  -0.45079  -0.44868
 Alpha  occ. eigenvalues --   -0.44669  -0.44370  -0.44164  -0.43781  -0.43584
 Alpha  occ. eigenvalues --   -0.43250  -0.42743  -0.42631  -0.42315  -0.42195
 Alpha  occ. eigenvalues --   -0.41635  -0.41524  -0.41317  -0.40974  -0.40844
 Alpha  occ. eigenvalues --   -0.40454  -0.40203  -0.40155  -0.40085  -0.39716
 Alpha  occ. eigenvalues --   -0.39463  -0.38980  -0.38608  -0.38285  -0.38054
 Alpha  occ. eigenvalues --   -0.37616  -0.36919  -0.36523  -0.36214  -0.36068
 Alpha  occ. eigenvalues --   -0.35381  -0.34512  -0.34109  -0.32240  -0.31836
 Alpha  occ. eigenvalues --   -0.31616  -0.30007  -0.28893  -0.26008  -0.23018
 Alpha  occ. eigenvalues --   -0.18236
 Alpha virt. eigenvalues --   -0.07040  -0.01474   0.02072   0.06053   0.08304
 Alpha virt. eigenvalues --    0.09382   0.11526   0.11640   0.11855   0.12039
 Alpha virt. eigenvalues --    0.12243   0.12532   0.12852   0.13137   0.13331

 Mulliken charges:
               1
     1  O   -0.559374
     2  O   -0.527130
     3  C   -0.045401
     4  C   -0.033912
     5  C   -0.198603
     6  C   -0.195758
     7  C    0.191203
     8  C    0.160578
     9  C    0.093529
    10  C    0.097213
    11  C   -0.213864
    12  C   -0.201747
    13  C   -0.011542
    14  C    0.027271
    15  C   -0.278327
    16  C   -0.275477
    17  C   -0.275922
    18  C   -0.274014
    19  C   -0.120831
    20  C   -0.160962
    21  C   -0.367291
    22  C   -0.364188
    23  C   -0.138215
    24  C   -0.096730
    25  C    0.104498
    26  C    0.101772
    27  C   -0.356154
    28  C   -0.356827
    29  C   -0.135479
    30  C   -0.070027
    31  C   -0.053699
    32  C   -0.111316
    33  C   -0.094174
    34  C   -0.108339
    35  C    0.092769
    36  C    0.084375
    37  C   -0.379120
    38  C   -0.346171
    39  C   -0.116671
    40  C   -0.121073
    41  C   -0.093294
    42  C   -0.085071
    43  H    0.102339
    44  H    0.066403
    45  H    0.080526
    46  H    0.082818
    47  H    0.062881
    48  H    0.077463
    49  H    0.128902
    50  H    0.121272
    51  H    0.119010
    52  H    0.111501
    53  H    0.084619
    54  H    0.090049
    55  H    0.106062
    56  H    0.087439
    57  H    0.096951
    58  H    0.101583
    59  H    0.106121
    60  H    0.087104
    61  H    0.080794
    62  H    0.088808
    63  H    0.092124
    64  H    0.090107
    65  H    0.086042
    66  H    0.097179
    67  H    0.125232
    68  H    0.115755
    69  H    0.111205
    70  H    0.108533
    71  H    0.102477
    72  H    0.095059
    73  H    0.314002
    74  H    0.295165
    75  H    0.077904
    76  H    0.098754
    77  H    0.105852
    78  H    0.107186
    79  H    0.116347
    80  H    0.132229
    81  H    0.096496
    82  H    0.105443
    83  H    0.079346
    84  H    0.053058
    85  H    0.066529
    86  H    0.080551
    87  H    0.074532
    88  H    0.073047
    89  H    0.119881
    90  H    0.114650
    91  H    0.128695
    92  H    0.107032
    93  H    0.138309
    94  H    0.111444
    95  H    0.097102
    96  H    0.062391
    97  H    0.092106
    98  H    0.059085
 Sum of Mulliken charges =  -0.00000

 Dipole moment (field-independent basis, Debye):
    X=             -0.5051    Y=             -0.0240    Z=              1.9796  Tot=              2.0432
 Quadrupole moment (field-independent basis, Debye-Ang):
   XX=           -287.7995   YY=           -248.5155   ZZ=           -258.2865
   XY=              7.3949   XZ=             -4.3987   YZ=              3.9879

 Normal termination of Gaussian 16 at Fri Jul 12 08:59:51 2019.
