 Gaussian 16, Revision A.03,
 Gaussian 16:  ES64L-G16RevA.03 25-Dec-2016

 -------------------------------------
 # td=(NStates=1) CAM-B3LYP/6-31G(d,p)
 -------------------------------------

 --
 TD
 --
 Symbolic Z-matrix:
 Charge =  0 Multiplicity = 1

                         Standard orientation:
 ---------------------------------------------------------------------
 Center     Atomic      Atomic             Coordinates (Angstroms)
 Number     Number       Type             X           Y           Z
 ---------------------------------------------------------------------
      1          8           0       14.573535   -2.293866   -0.343533
      2          8           0      -14.566192    1.958181    0.929444
      3          6           0       11.152840   -1.333203    0.981744
      4          6           0      -12.349198   -1.000102    0.496806
      5          6           0       12.630603   -1.751191    1.048669
      6          6           0      -13.617204   -0.177559    0.642625
      7          6           0       13.155333   -1.927148   -0.364314
      8          6           0      -13.322564    1.354135    0.916786
      9          6           0       10.970454   -0.229359    0.040608
     10          6           0      -11.259076   -0.255794   -0.247318
     11          6           0       13.155849   -0.521941   -1.011821
     12          6           0      -12.568020    1.920309   -0.242587
     13          6           0       11.798369    0.050173   -0.874919
     14          6           0      -11.440545    1.072095   -0.709374
     15          6           0       10.756124   -0.921543    2.394706
     16          6           0       10.403953   -2.703382    0.532308
     17          6           0      -11.802478   -1.371997    1.893540
     18          6           0      -12.725048   -2.346940   -0.194308
     19          6           0        9.696984    0.503313    0.125426
     20          6           0      -10.004056   -1.005818   -0.446137
     21          6           0       11.689326    1.105160   -1.994500
     22          6           0      -10.433572    1.698963   -1.562027
     23          6           0        9.314601    1.698956    0.082281
     24          6           0       -8.765030   -0.496924   -0.256923
     25          6           0        8.003580    2.293454    0.143424
     26          6           0       -7.511334   -1.226887   -0.641432
     27          6           0        7.922284    3.769417    0.181940
     28          6           0       -7.671852   -2.643703   -1.011907
     29          6           0        6.791853    1.534964    0.024600
     30          6           0       -6.301879   -0.646521   -0.352550
     31          6           0        5.535490    2.117677    0.187215
     32          6           0       -5.058728   -1.204134   -0.374113
     33          6           0        4.407664    1.347734    0.091287
     34          6           0       -3.917690   -0.467532   -0.222089
     35          6           0        2.971168    1.686580    0.171676
     36          6           0       -2.645217   -0.873774   -0.390055
     37          6           0        2.828191    3.144906    0.544726
     38          6           0       -2.355273   -2.248668   -0.847181
     39          6           0        2.015321    0.668130    0.079773
     40          6           0       -1.523700    0.021518   -0.125708
     41          6           0        0.668630    0.890236    0.166798
     42          6           0       -0.229683   -0.140260   -0.141169
     43          1           0       13.440893   -1.113751    1.563578
     44          1           0       12.431773   -2.653587    1.591183
     45          1           0      -14.365594   -0.385433    1.376275
     46          1           0      -14.002292   -0.296263   -0.325298
     47          1           0       12.743616   -2.567848   -0.955592
     48          1           0      -12.833076    1.406552    1.926573
     49          1           0       14.138433    0.025005   -0.643921
     50          1           0       13.466563   -0.807622   -1.961468
     51          1           0      -13.198843    2.179703   -1.187943
     52          1           0      -12.240998    2.955426    0.014025
     53          1           0       10.783991   -1.845510    3.053451
     54          1           0        9.704340   -0.473946    2.327008
     55          1           0       11.498276   -0.018350    2.749580
     56          1           0       10.682280   -2.848833   -0.476175
     57          1           0       10.792884   -3.574867    1.347226
     58          1           0        9.290552   -2.553205    0.627894
     59          1           0      -11.821894   -0.506859    2.761528
     60          1           0      -10.808206   -1.618172    1.850104
     61          1           0      -12.503623   -2.224008    2.655914
     62          1           0      -13.672337   -2.751189   -0.038136
     63          1           0      -11.934362   -3.050306   -0.159814
     64          1           0      -12.790039   -2.000682   -1.222589
     65          1           0        8.815442   -0.162903    0.337897
     66          1           0       -9.969325   -2.153808   -0.508928
     67          1           0       10.637306    1.600449   -2.288153
     68          1           0       12.458914    1.984846   -1.873286
     69          1           0       11.998530    0.417259   -2.888416
     70          1           0      -10.888406    2.477192   -2.033129
     71          1           0       -9.782434    1.074753   -2.192768
     72          1           0       -9.741689    2.422023   -0.844407
     73          1           0       14.538304   -2.993207    0.406925
     74          1           0      -15.288607    1.582709    1.722302
     75          1           0        9.983788    2.398369    0.327843
     76          1           0       -8.318105    0.679305   -0.008611
     77          1           0        8.860636    4.157662    0.174702
     78          1           0        7.174437    3.913700   -0.687444
     79          1           0        7.454666    4.271538    1.061562
     80          1           0       -8.010268   -3.323468   -0.237442
     81          1           0       -8.555902   -2.698494   -1.645705
     82          1           0       -6.498720   -3.094517   -1.338200
     83          1           0        6.721535    0.649898   -0.255834
     84          1           0       -6.618508    0.512032   -0.193156
     85          1           0        5.651609    3.109318    0.226393
     86          1           0       -4.832528   -2.369919   -0.626109
     87          1           0        4.552462    0.281517    0.141535
     88          1           0       -4.053792    0.511070    0.084844
     89          1           0        3.241596    3.399786    1.426960
     90          1           0        1.815033    3.412569    0.544854
     91          1           0        3.382084    3.570033   -0.218052
     92          1           0       -3.019605   -2.999746   -0.230224
     93          1           0       -2.500688   -2.366948   -1.940460
     94          1           0       -1.245818   -2.471034   -0.627291
     95          1           0        2.400270   -0.446348   -0.208390
     96          1           0       -1.827577    0.900573    0.258260
     97          1           0        0.135443    2.010381    0.251709
     98          1           0        0.270016   -1.147398   -0.099516
 ---------------------------------------------------------------------

 SCF Done:  E(RCAM-B3LYP) =  -1706.83371862     A.U. after   15 cycles

 Excitation energies and oscillator strengths:

 Excited State   1:      Singlet-A      1.9106 eV  648.91 nm  f=3.7048  <S**2>=0.000
     155 ->158         0.13413
     156 ->157         0.69926
     156 <-157        -0.11747
 This state for optimization and/or second-order correction.
 Total Energy, E(TD-HF/TD-DFT) =  -1706.76350367
 Copying the excited state density for this state as the 1-particle RhoCI density.

 The electronic state is 1-A.
 Alpha  occ. eigenvalues --  -19.21618 -19.20830 -10.30287 -10.28568 -10.28080
 Alpha  occ. eigenvalues --  -10.28058 -10.27846 -10.27792 -10.27529 -10.27509
 Alpha  occ. eigenvalues --  -10.27488 -10.27230 -10.27180 -10.26947 -10.26898
 Alpha  occ. eigenvalues --  -10.26843 -10.26762 -10.26688 -10.26643 -10.26552
 Alpha  occ. eigenvalues --  -10.26486 -10.26378 -10.26306 -10.26233 -10.26214
 Alpha  occ. eigenvalues --  -10.26127 -10.26052 -10.25989 -10.25729 -10.25330
 Alpha  occ. eigenvalues --  -10.25288 -10.25246 -10.25114 -10.25085 -10.25027
 Alpha  occ. eigenvalues --  -10.24799 -10.24789 -10.23906 -10.23894 -10.23838
 Alpha  occ. eigenvalues --  -10.23326 -10.23322  -1.08012  -1.07303  -0.95502
 Alpha  occ. eigenvalues --   -0.93255  -0.92999  -0.92462  -0.91308  -0.90261
 Alpha  occ. eigenvalues --   -0.88602  -0.87526  -0.87289  -0.86709  -0.84956
 Alpha  occ. eigenvalues --   -0.83889  -0.82304  -0.81005  -0.80347  -0.79275
 Alpha  occ. eigenvalues --   -0.76657  -0.76439  -0.76389  -0.75888  -0.75799
 Alpha  occ. eigenvalues --   -0.75663  -0.74787  -0.74281  -0.73318  -0.71207
 Alpha  occ. eigenvalues --   -0.69284  -0.67322  -0.66444  -0.65575  -0.64364
 Alpha  occ. eigenvalues --   -0.63882  -0.63497  -0.62173  -0.61417  -0.59759
 Alpha  occ. eigenvalues --   -0.59471  -0.58920  -0.57706  -0.57184  -0.57044
 Alpha  occ. eigenvalues --   -0.55857  -0.55552  -0.55047  -0.54638  -0.54317
 Alpha  occ. eigenvalues --   -0.53776  -0.53266  -0.51885  -0.51465  -0.51028
 Alpha  occ. eigenvalues --   -0.50402  -0.50242  -0.49991  -0.49930  -0.49018
 Alpha  occ. eigenvalues --   -0.48882  -0.48648  -0.48563  -0.48491  -0.48076
 Alpha  occ. eigenvalues --   -0.47902  -0.47821  -0.47074  -0.46630  -0.46415
 Alpha  occ. eigenvalues --   -0.45946  -0.45658  -0.45407  -0.45318  -0.45071
 Alpha  occ. eigenvalues --   -0.44913  -0.44606  -0.44491  -0.44120  -0.43892
 Alpha  occ. eigenvalues --   -0.42907  -0.42718  -0.42527  -0.42403  -0.42270
 Alpha  occ. eigenvalues --   -0.41833  -0.41417  -0.41373  -0.41256  -0.41200
 Alpha  occ. eigenvalues --   -0.40825  -0.40041  -0.39903  -0.39686  -0.39520
 Alpha  occ. eigenvalues --   -0.38809  -0.38699  -0.38388  -0.37892  -0.37633
 Alpha  occ. eigenvalues --   -0.37488  -0.37215  -0.36542  -0.35841  -0.35750
 Alpha  occ. eigenvalues --   -0.35680  -0.34850  -0.34573  -0.33025  -0.32219
 Alpha  occ. eigenvalues --   -0.30213  -0.29903  -0.28704  -0.25719  -0.23499
 Alpha  occ. eigenvalues --   -0.18504
 Alpha virt. eigenvalues --   -0.07058  -0.01246   0.02187   0.05454   0.07362
 Alpha virt. eigenvalues --    0.08230   0.09304   0.09680   0.10838   0.10976
 Alpha virt. eigenvalues --    0.12054   0.12549   0.12781   0.13553   0.13983

 Mulliken charges:
               1
     1  O   -0.583458
     2  O   -0.572070
     3  C   -0.073145
     4  C   -0.016396
     5  C   -0.180178
     6  C   -0.173471
     7  C    0.155980
     8  C    0.193348
     9  C    0.141802
    10  C    0.056485
    11  C   -0.226597
    12  C   -0.237064
    13  C    0.032234
    14  C    0.080065
    15  C   -0.281356
    16  C   -0.295038
    17  C   -0.271053
    18  C   -0.310039
    19  C   -0.129572
    20  C   -0.189254
    21  C   -0.337008
    22  C   -0.352687
    23  C   -0.062323
    24  C   -0.051131
    25  C    0.046248
    26  C    0.101106
    27  C   -0.375553
    28  C   -0.370896
    29  C   -0.078853
    30  C   -0.094722
    31  C   -0.044924
    32  C   -0.114568
    33  C   -0.141863
    34  C   -0.077888
    35  C    0.075840
    36  C    0.108579
    37  C   -0.350761
    38  C   -0.377419
    39  C   -0.132948
    40  C   -0.113869
    41  C   -0.082402
    42  C   -0.073138
    43  H    0.102176
    44  H    0.073558
    45  H    0.069236
    46  H    0.097674
    47  H    0.096030
    48  H    0.081559
    49  H    0.117235
    50  H    0.116590
    51  H    0.119023
    52  H    0.112290
    53  H    0.093172
    54  H    0.102403
    55  H    0.088580
    56  H    0.123081
    57  H    0.081312
    58  H    0.108712
    59  H    0.064154
    60  H    0.117090
    61  H    0.041352
    62  H    0.114567
    63  H    0.103133
    64  H    0.099742
    65  H    0.070387
    66  H    0.088957
    67  H    0.098796
    68  H    0.108744
    69  H    0.098255
    70  H    0.111219
    71  H    0.133451
    72  H    0.083070
    73  H    0.300517
    74  H    0.303549
    75  H    0.066607
    76  H    0.063978
    77  H    0.114210
    78  H    0.128570
    79  H    0.120587
    80  H    0.128457
    81  H    0.119875
    82  H    0.076395
    83  H    0.048969
    84  H    0.065212
    85  H    0.061637
    86  H    0.079866
    87  H    0.075984
    88  H    0.075689
    89  H    0.138613
    90  H    0.102189
    91  H    0.130910
    92  H    0.104718
    93  H    0.130634
    94  H    0.098795
    95  H    0.088430
    96  H    0.070322
    97  H    0.084539
    98  H    0.085162
 Sum of Mulliken charges =  -0.00000

 Dipole moment (field-independent basis, Debye):
    X=              0.4092    Y=             -0.2805    Z=              1.5200  Tot=              1.5989
 Quadrupole moment (field-independent basis, Debye-Ang):
   XX=           -284.1770   YY=           -245.6664   ZZ=           -263.5803
   XY=              6.7564   XZ=              2.5497   YZ=              0.6008

 Normal termination of Gaussian 16 at Thu Jul 18 16:53:40 2019.
