 Gaussian 16, Revision A.03,
 Gaussian 16:  ES64L-G16RevA.03 25-Dec-2016

 -------------------------------------
 # td=(NStates=1) CAM-B3LYP/6-31G(d,p)
 -------------------------------------

 --
 TD
 --
 Symbolic Z-matrix:
 Charge =  0 Multiplicity = 1

                         Standard orientation:
 ---------------------------------------------------------------------
 Center     Atomic      Atomic             Coordinates (Angstroms)
 Number     Number       Type             X           Y           Z
 ---------------------------------------------------------------------
      1          8           0       14.855130   -2.128434   -0.102339
      2          8           0      -14.878577    1.971735    0.805201
      3          6           0       11.177703   -1.527600    0.916416
      4          6           0      -12.361358   -0.960246    0.531103
      5          6           0       12.705136   -1.858568    0.982835
      6          6           0      -13.708380   -0.205015    0.480465
      7          6           0       13.454709   -1.808616   -0.313280
      8          6           0      -13.540124    1.320926    0.747561
      9          6           0       10.990804   -0.276030    0.022819
     10          6           0      -11.327836   -0.213503   -0.138108
     11          6           0       13.451295   -0.347938   -0.809767
     12          6           0      -12.617722    1.908117   -0.277310
     13          6           0       11.945145    0.243165   -0.793245
     14          6           0      -11.411538    1.054340   -0.526283
     15          6           0       10.527293   -1.298146    2.301890
     16          6           0       10.348647   -2.639992    0.107471
     17          6           0      -12.071653   -1.307562    1.998298
     18          6           0      -12.682576   -2.267713   -0.177086
     19          6           0        9.670604    0.346916    0.047657
     20          6           0      -10.034413   -0.957872   -0.419837
     21          6           0       11.798583    1.467127   -1.688615
     22          6           0      -10.397402    1.865220   -1.266494
     23          6           0        9.326029    1.746283    0.145067
     24          6           0       -8.746483   -0.511714   -0.158359
     25          6           0        7.965486    2.305611    0.292560
     26          6           0       -7.588777   -1.297278   -0.370865
     27          6           0        7.897627    3.777968    0.583993
     28          6           0       -7.691307   -2.703542   -0.935336
     29          6           0        6.832880    1.562422    0.029728
     30          6           0       -6.406916   -0.742697   -0.180766
     31          6           0        5.542963    2.020526    0.038589
     32          6           0       -5.060511   -1.235127   -0.401434
     33          6           0        4.476342    1.177377   -0.021707
     34          6           0       -3.909279   -0.411200   -0.216889
     35          6           0        3.073997    1.540234    0.059598
     36          6           0       -2.534068   -0.830240   -0.446629
     37          6           0        2.867219    2.967367    0.539745
     38          6           0       -2.278251   -2.257705   -0.961514
     39          6           0        2.105928    0.703660   -0.309629
     40          6           0       -1.552419    0.074244   -0.190043
     41          6           0        0.746588    0.764668   -0.116561
     42          6           0       -0.226846   -0.109847   -0.377729
     43          1           0       13.285352   -1.168145    1.866818
     44          1           0       12.705361   -2.956583    1.353313
     45          1           0      -14.365965   -0.617312    1.237528
     46          1           0      -14.090862   -0.320822   -0.478112
     47          1           0       13.148053   -2.469560   -1.262918
     48          1           0      -13.346017    1.518766    1.869466
     49          1           0       14.262494    0.097945   -0.133870
     50          1           0       13.734238   -0.183821   -1.866116
     51          1           0      -13.221326    2.203883   -1.157202
     52          1           0      -12.395331    2.983690    0.111893
     53          1           0       10.854773   -2.081032    3.173253
     54          1           0        9.548222   -1.266073    2.191296
     55          1           0       10.996365   -0.516768    2.834419
     56          1           0       10.747315   -2.935844   -0.914946
     57          1           0       10.279971   -3.470122    0.753247
     58          1           0        9.357760   -2.404103   -0.060435
     59          1           0      -11.976335   -0.343409    2.794735
     60          1           0      -11.110902   -1.862094    2.012822
     61          1           0      -12.976306   -1.925147    2.277865
     62          1           0      -13.592448   -2.680087    0.052022
     63          1           0      -12.136065   -3.163877    0.094057
     64          1           0      -12.606527   -2.263465   -1.240946
     65          1           0        8.856092   -0.383436    0.172427
     66          1           0      -10.120274   -1.931610   -0.735549
     67          1           0       10.730634    1.683450   -1.604163
     68          1           0       12.108968    2.398462   -1.103243
     69          1           0       11.972837    1.415368   -2.841705
     70          1           0      -11.001007    2.277883   -1.960233
     71          1           0       -9.644800    1.305792   -1.828231
     72          1           0      -10.057343    2.605138   -0.653386
     73          1           0       14.708073   -2.953844    0.469909
     74          1           0      -15.408958    1.733501    1.702387
     75          1           0       10.190533    2.345954    0.144440
     76          1           0       -8.627847    0.648920    0.152586
     77          1           0        8.777467    4.323164    0.674896
     78          1           0        7.303905    4.292639   -0.163992
     79          1           0        7.413090    3.816606    1.467278
     80          1           0       -8.462896   -3.134913   -0.313354
     81          1           0       -8.016687   -2.707144   -2.041748
     82          1           0       -6.900930   -3.215524   -0.890193
     83          1           0        7.213481    0.631046   -0.477018
     84          1           0       -6.398834    0.221963   -0.063726
     85          1           0        5.201288    3.184702    0.090628
     86          1           0       -5.052188   -2.246638   -0.761909
     87          1           0        4.790060    0.119463   -0.314450
     88          1           0       -4.016294    0.600602    0.033058
     89          1           0        3.425888    3.074194    1.499320
     90          1           0        1.834274    3.074179    0.514532
     91          1           0        3.227954    3.852571   -0.314464
     92          1           0       -2.384180   -3.014344   -0.198202
     93          1           0       -3.268507   -2.529520   -1.617851
     94          1           0       -1.189063   -2.401185   -1.524408
     95          1           0        2.678466   -0.187507   -0.636268
     96          1           0       -1.803480    1.029059    0.165687
     97          1           0        0.437179    1.861627    0.009128
     98          1           0        0.026159   -1.181176   -0.553113
 ---------------------------------------------------------------------

 SCF Done:  E(RCAM-B3LYP) =  -1706.97692260     A.U. after   14 cycles

 Excitation energies and oscillator strengths:

 Excited State   1:      Singlet-A      2.4021 eV  516.15 nm  f=3.7512  <S**2>=0.000
     155 ->158         0.18651
     156 ->157         0.67759
 This state for optimization and/or second-order correction.
 Total Energy, E(TD-HF/TD-DFT) =  -1706.88864752
 Copying the excited state density for this state as the 1-particle RhoCI density.

 The electronic state is 1-A.
 Alpha  occ. eigenvalues --  -19.21267 -19.20249 -10.31214 -10.30599 -10.29218
 Alpha  occ. eigenvalues --  -10.28372 -10.28089 -10.27764 -10.27630 -10.27243
 Alpha  occ. eigenvalues --  -10.27092 -10.27026 -10.26987 -10.26980 -10.26978
 Alpha  occ. eigenvalues --  -10.26943 -10.26833 -10.26701 -10.26635 -10.26462
 Alpha  occ. eigenvalues --  -10.26436 -10.26365 -10.26300 -10.26210 -10.26115
 Alpha  occ. eigenvalues --  -10.26102 -10.25639 -10.25624 -10.25610 -10.25596
 Alpha  occ. eigenvalues --  -10.25549 -10.25448 -10.25426 -10.25074 -10.25034
 Alpha  occ. eigenvalues --  -10.24818 -10.24546 -10.23856 -10.23793 -10.23770
 Alpha  occ. eigenvalues --  -10.23436 -10.23009  -1.08166  -1.04718  -0.94521
 Alpha  occ. eigenvalues --   -0.93040  -0.92862  -0.92047  -0.91404  -0.90253
 Alpha  occ. eigenvalues --   -0.88269  -0.87291  -0.86158  -0.85110  -0.84326
 Alpha  occ. eigenvalues --   -0.83449  -0.82020  -0.80334  -0.79710  -0.78840
 Alpha  occ. eigenvalues --   -0.77885  -0.77321  -0.76561  -0.76543  -0.76157
 Alpha  occ. eigenvalues --   -0.75690  -0.75257  -0.75161  -0.74523  -0.71419
 Alpha  occ. eigenvalues --   -0.68914  -0.67174  -0.65589  -0.65291  -0.64621
 Alpha  occ. eigenvalues --   -0.63560  -0.62979  -0.61949  -0.61047  -0.60029
 Alpha  occ. eigenvalues --   -0.58893  -0.58066  -0.57152  -0.56843  -0.56270
 Alpha  occ. eigenvalues --   -0.55642  -0.55029  -0.54615  -0.54253  -0.53905
 Alpha  occ. eigenvalues --   -0.53064  -0.52792  -0.52415  -0.52130  -0.51298
 Alpha  occ. eigenvalues --   -0.50939  -0.50471  -0.50028  -0.49880  -0.49539
 Alpha  occ. eigenvalues --   -0.49232  -0.49029  -0.48637  -0.48457  -0.48205
 Alpha  occ. eigenvalues --   -0.47899  -0.47276  -0.47040  -0.46960  -0.46638
 Alpha  occ. eigenvalues --   -0.46238  -0.45943  -0.45787  -0.45580  -0.45291
 Alpha  occ. eigenvalues --   -0.44953  -0.44428  -0.44236  -0.44056  -0.43910
 Alpha  occ. eigenvalues --   -0.42879  -0.42796  -0.42613  -0.42289  -0.42191
 Alpha  occ. eigenvalues --   -0.42075  -0.41981  -0.41803  -0.41096  -0.40916
 Alpha  occ. eigenvalues --   -0.40593  -0.40386  -0.40135  -0.39778  -0.39505
 Alpha  occ. eigenvalues --   -0.39393  -0.39306  -0.38764  -0.38305  -0.37637
 Alpha  occ. eigenvalues --   -0.37470  -0.37011  -0.36869  -0.36770  -0.35928
 Alpha  occ. eigenvalues --   -0.35133  -0.34714  -0.34009  -0.32433  -0.32030
 Alpha  occ. eigenvalues --   -0.30314  -0.30083  -0.28772  -0.26410  -0.23369
 Alpha  occ. eigenvalues --   -0.20182
 Alpha virt. eigenvalues --   -0.05384  -0.01442   0.02179   0.05869   0.08111
 Alpha virt. eigenvalues --    0.09453   0.09738   0.11351   0.12000   0.12070
 Alpha virt. eigenvalues --    0.12393   0.12516   0.12986   0.13603   0.13738

 Mulliken charges:
               1
     1  O   -0.558090
     2  O   -0.605534
     3  C   -0.014065
     4  C   -0.031696
     5  C   -0.201205
     6  C   -0.168706
     7  C    0.163546
     8  C    0.170716
     9  C    0.095296
    10  C    0.097515
    11  C   -0.204182
    12  C   -0.242374
    13  C    0.016581
    14  C    0.037216
    15  C   -0.292054
    16  C   -0.322111
    17  C   -0.274403
    18  C   -0.330041
    19  C   -0.134574
    20  C   -0.160656
    21  C   -0.381810
    22  C   -0.352317
    23  C   -0.120722
    24  C   -0.095064
    25  C    0.071059
    26  C    0.109110
    27  C   -0.370222
    28  C   -0.343712
    29  C   -0.127746
    30  C   -0.106955
    31  C   -0.081093
    32  C   -0.102708
    33  C   -0.123721
    34  C   -0.114363
    35  C    0.108208
    36  C    0.118372
    37  C   -0.354914
    38  C   -0.369275
    39  C   -0.102270
    40  C   -0.102297
    41  C   -0.109829
    42  C   -0.062673
    43  H    0.093412
    44  H    0.076466
    45  H    0.074416
    46  H    0.108461
    47  H    0.080739
    48  H    0.070740
    49  H    0.113995
    50  H    0.100666
    51  H    0.129490
    52  H    0.101152
    53  H    0.071401
    54  H    0.118644
    55  H    0.122160
    56  H    0.108174
    57  H    0.106451
    58  H    0.115037
    59  H    0.074905
    60  H    0.107894
    61  H    0.094720
    62  H    0.109946
    63  H    0.093226
    64  H    0.111969
    65  H    0.078247
    66  H    0.085036
    67  H    0.120143
    68  H    0.116905
    69  H    0.109321
    70  H    0.117818
    71  H    0.117438
    72  H    0.125427
    73  H    0.300105
    74  H    0.305339
    75  H    0.088173
    76  H    0.086300
    77  H    0.112785
    78  H    0.122817
    79  H    0.137213
    80  H    0.114937
    81  H    0.112938
    82  H    0.109337
    83  H    0.094349
    84  H    0.058534
    85  H    0.088385
    86  H    0.075000
    87  H    0.071924
    88  H    0.087983
    89  H    0.130707
    90  H    0.107934
    91  H    0.083546
    92  H    0.137095
    93  H    0.097907
    94  H    0.102155
    95  H    0.070392
    96  H    0.074680
    97  H    0.073850
    98  H    0.074979
 Sum of Mulliken charges =  -0.00000

 Dipole moment (field-independent basis, Debye):
    X=             -1.1893    Y=             -1.3623    Z=              1.3607  Tot=              2.2631
 Quadrupole moment (field-independent basis, Debye-Ang):
   XX=           -306.2341   YY=           -242.8634   ZZ=           -258.8555
   XY=             15.4751   XZ=              1.6036   YZ=              2.3286

 Normal termination of Gaussian 16 at Wed Jul 10 19:23:51 2019.
