 Gaussian 16, Revision A.03,
 Gaussian 16:  ES64L-G16RevA.03 25-Dec-2016

 -------------------------------------
 # td=(NStates=1) CAM-B3LYP/6-31G(d,p)
 -------------------------------------

 --
 TD
 --
 Symbolic Z-matrix:
 Charge =  0 Multiplicity = 1

                         Standard orientation:
 ---------------------------------------------------------------------
 Center     Atomic      Atomic             Coordinates (Angstroms)
 Number     Number       Type             X           Y           Z
 ---------------------------------------------------------------------
      1          8           0       14.589083   -2.451160   -0.470484
      2          8           0      -14.971753    1.677152    0.941389
      3          6           0       11.222198   -1.451299    1.067840
      4          6           0      -12.439604   -1.124815    0.572082
      5          6           0       12.689319   -1.795027    1.014134
      6          6           0      -13.766107   -0.348394    0.564211
      7          6           0       13.279223   -1.932910   -0.372914
      8          6           0      -13.702013    1.092114    0.925752
      9          6           0       10.934177   -0.240652    0.104839
     10          6           0      -11.263834   -0.198736   -0.171795
     11          6           0       13.169700   -0.475972   -1.031422
     12          6           0      -12.872053    1.832093   -0.148911
     13          6           0       11.764634    0.052235   -0.929244
     14          6           0      -11.473780    1.142075   -0.415511
     15          6           0       10.989019   -1.025133    2.621736
     16          6           0       10.356536   -2.659960    0.796142
     17          6           0      -11.969154   -1.291436    1.953780
     18          6           0      -12.734948   -2.379703   -0.182365
     19          6           0        9.728898    0.383559    0.264096
     20          6           0      -10.027010   -0.987859   -0.400215
     21          6           0       11.421889    1.034841   -1.947650
     22          6           0      -10.579892    1.945857   -1.204696
     23          6           0        9.348350    1.664990    0.011105
     24          6           0       -8.744160   -0.483354   -0.331138
     25          6           0        8.089248    2.387466    0.156728
     26          6           0       -7.542228   -1.185886   -0.500609
     27          6           0        8.005549    3.889623    0.309767
     28          6           0       -7.666315   -2.620790   -1.041860
     29          6           0        6.962624    1.608377    0.119453
     30          6           0       -6.319069   -0.639495   -0.390116
     31          6           0        5.704344    2.079341    0.198666
     32          6           0       -5.054881   -1.063074   -0.581853
     33          6           0        4.569641    1.327751   -0.037867
     34          6           0       -3.770452   -0.361568   -0.388794
     35          6           0        3.201860    1.663505    0.121887
     36          6           0       -2.465057   -0.775011   -0.532316
     37          6           0        2.759247    3.161606    0.489024
     38          6           0       -2.252134   -2.104915   -1.093723
     39          6           0        2.208208    0.752032   -0.123430
     40          6           0       -1.491805    0.190558   -0.237780
     41          6           0        0.796592    0.965597   -0.058289
     42          6           0       -0.097496   -0.086406   -0.137491
     43          1           0       13.414101   -1.170346    1.665680
     44          1           0       12.910554   -2.794049    1.539875
     45          1           0      -14.788846   -0.862454    1.175071
     46          1           0      -14.055716   -0.182093   -0.501761
     47          1           0       12.630633   -2.750816   -0.905561
     48          1           0      -13.237165    1.301479    1.905768
     49          1           0       13.987272   -0.192623   -0.541789
     50          1           0       13.604074   -0.484185   -1.990805
     51          1           0      -13.267402    1.884920   -1.184135
     52          1           0      -12.491380    2.789703    0.245006
     53          1           0       11.177233   -2.136494    3.079000
     54          1           0        9.754770   -0.859620    2.635280
     55          1           0       11.703644   -0.206744    2.881008
     56          1           0       10.258517   -2.908935   -0.263724
     57          1           0       10.881437   -3.417312    1.393063
     58          1           0        9.325502   -2.382138    1.060191
     59          1           0      -11.710347   -0.429250    2.416717
     60          1           0      -11.106199   -1.848741    1.971496
     61          1           0      -12.791911   -1.717485    2.616657
     62          1           0      -13.477665   -3.130990    0.226103
     63          1           0      -11.761387   -2.852702   -0.030226
     64          1           0      -13.051231   -2.344335   -1.208033
     65          1           0        8.955273   -0.231618    0.563011
     66          1           0       -9.986381   -2.138889   -0.641246
     67          1           0       10.395101    1.343591   -2.006806
     68          1           0       12.068817    1.903630   -1.822768
     69          1           0       11.992906    0.919179   -2.827699
     70          1           0      -11.131276    2.345535   -2.128282
     71          1           0       -9.749895    1.616701   -1.643754
     72          1           0      -10.308555    2.828913   -0.553019
     73          1           0       14.537771   -3.315315   -0.222850
     74          1           0      -15.465470    1.087689    1.601789
     75          1           0       10.080274    2.487334   -0.251544
     76          1           0       -8.655519    0.656375   -0.051062
     77          1           0        9.017422    4.368920    0.519693
     78          1           0        7.563497    4.339641   -0.536692
     79          1           0        7.420168    4.086302    1.173802
     80          1           0       -8.408823   -3.407271   -0.558142
     81          1           0       -8.022914   -2.591019   -2.212319
     82          1           0       -6.693953   -3.064456   -0.989790
     83          1           0        7.071879    0.498275   -0.168546
     84          1           0       -6.208539    0.401415   -0.095106
     85          1           0        5.615259    3.162515    0.554775
     86          1           0       -5.033900   -1.994056   -1.187426
     87          1           0        4.739522    0.138583   -0.189359
     88          1           0       -3.945343    0.702884   -0.165985
     89          1           0        3.442482    3.474139    1.322331
     90          1           0        1.650788    3.208065    0.640617
     91          1           0        3.140274    4.084700   -0.122428
     92          1           0       -2.488660   -2.890597   -0.460902
     93          1           0       -2.569746   -2.293986   -2.041881
     94          1           0       -1.106684   -2.224148   -1.149300
     95          1           0        2.420453   -0.218876   -0.414533
     96          1           0       -1.714030    1.150620    0.008598
     97          1           0        0.377535    1.992504    0.036905
     98          1           0        0.337558   -1.187363   -0.119701
 ---------------------------------------------------------------------

 SCF Done:  E(RCAM-B3LYP) =  -1706.98248724     A.U. after   15 cycles

 Excitation energies and oscillator strengths:

 Excited State   1:      Singlet-A      1.9791 eV  626.46 nm  f=3.9795  <S**2>=0.000
     155 ->158         0.16149
     156 ->157         0.68858
 This state for optimization and/or second-order correction.
 Total Energy, E(TD-HF/TD-DFT) =  -1706.90975582
 Copying the excited state density for this state as the 1-particle RhoCI density.

 The electronic state is 1-A.
 Alpha  occ. eigenvalues --  -19.21163 -19.21001 -10.31282 -10.29774 -10.28271
 Alpha  occ. eigenvalues --  -10.27793 -10.27711 -10.27620 -10.27485 -10.27457
 Alpha  occ. eigenvalues --  -10.27379 -10.27311 -10.27293 -10.27155 -10.27059
 Alpha  occ. eigenvalues --  -10.26991 -10.26990 -10.26973 -10.26968 -10.26957
 Alpha  occ. eigenvalues --  -10.26882 -10.26521 -10.26509 -10.26309 -10.26263
 Alpha  occ. eigenvalues --  -10.26188 -10.26125 -10.26054 -10.26024 -10.25880
 Alpha  occ. eigenvalues --  -10.25760 -10.25447 -10.25186 -10.25155 -10.25037
 Alpha  occ. eigenvalues --  -10.25007 -10.24545 -10.24526 -10.24322 -10.24110
 Alpha  occ. eigenvalues --  -10.23826 -10.22697  -1.11502  -1.09412  -0.94246
 Alpha  occ. eigenvalues --   -0.92912  -0.92545  -0.92062  -0.91099  -0.90185
 Alpha  occ. eigenvalues --   -0.88199  -0.87852  -0.87159  -0.86010  -0.85048
 Alpha  occ. eigenvalues --   -0.83257  -0.82356  -0.81206  -0.79652  -0.78918
 Alpha  occ. eigenvalues --   -0.77643  -0.77439  -0.76577  -0.76491  -0.75781
 Alpha  occ. eigenvalues --   -0.75411  -0.74756  -0.74451  -0.73361  -0.71343
 Alpha  occ. eigenvalues --   -0.69784  -0.67082  -0.65946  -0.65392  -0.63983
 Alpha  occ. eigenvalues --   -0.63339  -0.62630  -0.62247  -0.60351  -0.59976
 Alpha  occ. eigenvalues --   -0.59534  -0.59229  -0.58696  -0.58047  -0.57077
 Alpha  occ. eigenvalues --   -0.56421  -0.55723  -0.55399  -0.55101  -0.54058
 Alpha  occ. eigenvalues --   -0.53706  -0.52972  -0.52287  -0.51683  -0.51490
 Alpha  occ. eigenvalues --   -0.51196  -0.50744  -0.50569  -0.50299  -0.49913
 Alpha  occ. eigenvalues --   -0.49773  -0.49552  -0.48750  -0.48658  -0.48028
 Alpha  occ. eigenvalues --   -0.47458  -0.46652  -0.46577  -0.46546  -0.46333
 Alpha  occ. eigenvalues --   -0.45740  -0.45552  -0.45385  -0.45185  -0.44920
 Alpha  occ. eigenvalues --   -0.44842  -0.44560  -0.44500  -0.44413  -0.43680
 Alpha  occ. eigenvalues --   -0.43348  -0.43129  -0.43042  -0.42967  -0.42613
 Alpha  occ. eigenvalues --   -0.42390  -0.41589  -0.41339  -0.41035  -0.40775
 Alpha  occ. eigenvalues --   -0.40190  -0.40002  -0.39890  -0.39874  -0.39623
 Alpha  occ. eigenvalues --   -0.39146  -0.39023  -0.38451  -0.38312  -0.37714
 Alpha  occ. eigenvalues --   -0.37662  -0.37042  -0.36728  -0.35948  -0.35461
 Alpha  occ. eigenvalues --   -0.35244  -0.34784  -0.34387  -0.33144  -0.31929
 Alpha  occ. eigenvalues --   -0.31527  -0.30503  -0.27978  -0.26072  -0.22521
 Alpha  occ. eigenvalues --   -0.18919
 Alpha virt. eigenvalues --   -0.06631  -0.02142   0.02328   0.05207   0.07819
 Alpha virt. eigenvalues --    0.10394   0.10890   0.10990   0.11968   0.12081
 Alpha virt. eigenvalues --    0.12766   0.12970   0.13354   0.13521   0.13832

 Mulliken charges:
               1
     1  O   -0.544612
     2  O   -0.553584
     3  C   -0.038542
     4  C   -0.009068
     5  C   -0.183967
     6  C   -0.172994
     7  C    0.142057
     8  C    0.181316
     9  C    0.083411
    10  C    0.035859
    11  C   -0.229957
    12  C   -0.213404
    13  C    0.092728
    14  C    0.018164
    15  C   -0.266365
    16  C   -0.286020
    17  C   -0.283109
    18  C   -0.296292
    19  C   -0.106129
    20  C   -0.140980
    21  C   -0.380203
    22  C   -0.348836
    23  C   -0.130337
    24  C   -0.098283
    25  C    0.058532
    26  C    0.122148
    27  C   -0.378236
    28  C   -0.373386
    29  C   -0.088895
    30  C   -0.098425
    31  C   -0.079739
    32  C   -0.114819
    33  C   -0.136946
    34  C   -0.135246
    35  C    0.125505
    36  C    0.127526
    37  C   -0.365983
    38  C   -0.374146
    39  C   -0.125375
    40  C   -0.111875
    41  C   -0.087048
    42  C   -0.094210
    43  H    0.090134
    44  H    0.057696
    45  H    0.033297
    46  H    0.101194
    47  H    0.053429
    48  H    0.070481
    49  H    0.134253
    50  H    0.101945
    51  H    0.125326
    52  H    0.109045
    53  H    0.079717
    54  H    0.081201
    55  H    0.120050
    56  H    0.112811
    57  H    0.104709
    58  H    0.101157
    59  H    0.117722
    60  H    0.108506
    61  H    0.082552
    62  H    0.094834
    63  H    0.090493
    64  H    0.114161
    65  H    0.071840
    66  H    0.091561
    67  H    0.132809
    68  H    0.113431
    69  H    0.104757
    70  H    0.097924
    71  H    0.131581
    72  H    0.102960
    73  H    0.300307
    74  H    0.300354
    75  H    0.074431
    76  H    0.075946
    77  H    0.107750
    78  H    0.139839
    79  H    0.136367
    80  H    0.103154
    81  H    0.102457
    82  H    0.112985
    83  H    0.080851
    84  H    0.066819
    85  H    0.074170
    86  H    0.068555
    87  H    0.070246
    88  H    0.074534
    89  H    0.113596
    90  H    0.111530
    91  H    0.108006
    92  H    0.134135
    93  H    0.140741
    94  H    0.085780
    95  H    0.079763
    96  H    0.088975
    97  H    0.085281
    98  H    0.091616
 Sum of Mulliken charges =  -0.00000

 Dipole moment (field-independent basis, Debye):
    X=              2.0755    Y=             -0.8217    Z=              0.3264  Tot=              2.2559
 Quadrupole moment (field-independent basis, Debye-Ang):
   XX=           -290.9433   YY=           -241.0642   ZZ=           -263.8711
   XY=             15.3554   XZ=             -2.7289   YZ=              0.6226

 Normal termination of Gaussian 16 at Mon Jul  8 13:20:28 2019.
