 Gaussian 16, Revision A.03,
 Gaussian 16:  ES64L-G16RevA.03 25-Dec-2016

 -------------------------------------
 # td=(NStates=1) CAM-B3LYP/6-31G(d,p)
 -------------------------------------

 --
 TD
 --
 Symbolic Z-matrix:
 Charge =  0 Multiplicity = 1

                         Standard orientation:
 ---------------------------------------------------------------------
 Center     Atomic      Atomic             Coordinates (Angstroms)
 Number     Number       Type             X           Y           Z
 ---------------------------------------------------------------------
      1          8           0       14.718502   -2.289187    0.048867
      2          8           0      -14.672920    1.816216    1.222570
      3          6           0       11.028483   -1.460905    0.999106
      4          6           0      -12.328013   -1.073473    0.592988
      5          6           0       12.594504   -2.014308    1.150871
      6          6           0      -13.648189   -0.269796    0.797739
      7          6           0       13.316772   -1.844419   -0.126854
      8          6           0      -13.322781    1.201979    1.046029
      9          6           0       10.910301   -0.276034    0.017482
     10          6           0      -11.198989   -0.209662   -0.070512
     11          6           0       13.251538   -0.532193   -0.788679
     12          6           0      -12.599333    1.806323   -0.049500
     13          6           0       11.886573    0.054084   -0.800211
     14          6           0      -11.420201    1.042787   -0.362236
     15          6           0       10.575238   -1.243494    2.369712
     16          6           0       10.224282   -2.687116    0.418912
     17          6           0      -11.843533   -1.531104    1.956295
     18          6           0      -12.702389   -2.290453   -0.299222
     19          6           0        9.599723    0.363138    0.144832
     20          6           0      -10.058269   -1.032048   -0.484649
     21          6           0       11.738943    1.167226   -1.785231
     22          6           0      -10.553060    1.910949   -1.210645
     23          6           0        9.325379    1.737131    0.165687
     24          6           0       -8.800953   -0.561652   -0.346559
     25          6           0        8.088692    2.364989    0.132997
     26          6           0       -7.521478   -1.193850   -0.711991
     27          6           0        8.172764    3.743173    0.608662
     28          6           0       -7.722023   -2.582641   -1.266030
     29          6           0        6.879520    1.581170   -0.174038
     30          6           0       -6.338733   -0.566337   -0.393066
     31          6           0        5.558776    2.082767   -0.083001
     32          6           0       -4.990078   -1.107034   -0.666444
     33          6           0        4.416440    1.334449   -0.299636
     34          6           0       -3.972028   -0.428336   -0.199119
     35          6           0        3.128503    1.703178   -0.171372
     36          6           0       -2.688469   -0.759206   -0.419378
     37          6           0        2.929710    3.209039    0.401527
     38          6           0       -2.334374   -2.034304   -1.211669
     39          6           0        2.054493    0.884293   -0.306057
     40          6           0       -1.600601    0.105269   -0.218510
     41          6           0        0.726884    1.024800   -0.164708
     42          6           0       -0.240845    0.005091   -0.380512
     43          1           0       13.217861   -1.599144    2.206733
     44          1           0       12.643796   -3.091871    1.499440
     45          1           0      -14.066608   -0.761543    1.704457
     46          1           0      -14.452992   -0.298858   -0.123035
     47          1           0       12.673473   -2.475388   -0.943901
     48          1           0      -12.803744    1.441988    2.006653
     49          1           0       13.979925   -0.040306   -0.215028
     50          1           0       13.818504   -0.402969   -1.809376
     51          1           0      -13.415569    1.813962   -0.772187
     52          1           0      -12.599149    2.893805    0.171116
     53          1           0       11.117847   -2.166768    3.013840
     54          1           0        9.526841   -1.025124    2.485291
     55          1           0       10.951617   -0.341060    2.643360
     56          1           0       10.600819   -2.777453   -0.640547
     57          1           0       10.433485   -3.573994    1.124829
     58          1           0        9.168218   -2.447932    0.627389
     59          1           0      -12.191170   -0.566979    2.697802
     60          1           0      -10.631476   -1.600440    2.038563
     61          1           0      -12.381144   -2.376216    2.398675
     62          1           0      -13.452739   -2.820873    0.316987
     63          1           0      -11.950129   -3.193453   -0.108579
     64          1           0      -12.839580   -2.055797   -1.477403
     65          1           0        8.731179   -0.373603    0.059271
     66          1           0      -10.176549   -2.003335   -1.002384
     67          1           0       10.570872    1.512446   -1.947506
     68          1           0       12.268709    2.073702   -1.495296
     69          1           0       12.107738    0.926517   -2.796724
     70          1           0      -11.349547    2.552758   -1.937385
     71          1           0      -10.051942    1.104972   -1.912739
     72          1           0       -9.863336    2.720083   -0.814254
     73          1           0       14.593435   -3.242901    0.405449
     74          1           0      -14.994216    1.625911    2.124343
     75          1           0       10.160195    2.248693    0.308270
     76          1           0       -8.621622    0.367626    0.238515
     77          1           0        9.213582    4.217802    1.033105
     78          1           0        7.883510    4.442404   -0.147058
     79          1           0        7.453169    3.843653    1.425742
     80          1           0       -8.024615   -3.272782   -0.362291
     81          1           0       -8.569007   -2.426331   -2.117417
     82          1           0       -6.747951   -3.112230   -1.742485
     83          1           0        7.000389    0.631995   -0.459472
     84          1           0       -6.270449    0.287513    0.077495
     85          1           0        5.338221    3.114408    0.218520
     86          1           0       -4.870767   -2.090079   -1.043072
     87          1           0        4.665850    0.236388   -0.513529
     88          1           0       -4.041556    0.452720    0.233786
     89          1           0        2.923325    3.229736    1.503764
     90          1           0        1.922117    3.632434    0.064224
     91          1           0        3.608750    3.945902   -0.121118
     92          1           0       -2.747715   -3.008854   -0.727564
     93          1           0       -2.828113   -1.939625   -2.074032
     94          1           0       -1.262315   -2.200965   -1.437514
     95          1           0        2.479156   -0.105569   -0.499418
     96          1           0       -1.908528    0.984849    0.169995
     97          1           0        0.344525    2.007095    0.152387
     98          1           0        0.211706   -0.873971   -0.758234
 ---------------------------------------------------------------------

 SCF Done:  E(RCAM-B3LYP) =  -1706.94155579     A.U. after   16 cycles

 Excitation energies and oscillator strengths:

 Excited State   1:      Singlet-A      1.9355 eV  640.57 nm  f=3.6754  <S**2>=0.000
     155 ->158        -0.13886
     156 ->157         0.69863
     156 <-157        -0.11561
 This state for optimization and/or second-order correction.
 Total Energy, E(TD-HF/TD-DFT) =  -1706.87042658
 Copying the excited state density for this state as the 1-particle RhoCI density.

 The electronic state is 1-A.
 Alpha  occ. eigenvalues --  -19.21962 -19.19803 -10.31344 -10.29728 -10.28720
 Alpha  occ. eigenvalues --  -10.28065 -10.27691 -10.27662 -10.27585 -10.27370
 Alpha  occ. eigenvalues --  -10.27189 -10.27145 -10.26988 -10.26962 -10.26844
 Alpha  occ. eigenvalues --  -10.26751 -10.26675 -10.26639 -10.26607 -10.26498
 Alpha  occ. eigenvalues --  -10.26490 -10.26467 -10.26451 -10.26262 -10.26166
 Alpha  occ. eigenvalues --  -10.26137 -10.26032 -10.26021 -10.25964 -10.25955
 Alpha  occ. eigenvalues --  -10.25784 -10.25761 -10.25615 -10.25571 -10.25489
 Alpha  occ. eigenvalues --  -10.25410 -10.25232 -10.25201 -10.24995 -10.24317
 Alpha  occ. eigenvalues --  -10.24278 -10.24234  -1.07262  -1.06532  -0.94453
 Alpha  occ. eigenvalues --   -0.94072  -0.93548  -0.92390  -0.91072  -0.90347
 Alpha  occ. eigenvalues --   -0.88272  -0.87730  -0.87709  -0.86107  -0.85162
 Alpha  occ. eigenvalues --   -0.84183  -0.82329  -0.80378  -0.79818  -0.78730
 Alpha  occ. eigenvalues --   -0.76888  -0.76688  -0.75905  -0.75715  -0.75305
 Alpha  occ. eigenvalues --   -0.75267  -0.74886  -0.74234  -0.74128  -0.71496
 Alpha  occ. eigenvalues --   -0.69428  -0.67704  -0.65497  -0.64453  -0.64041
 Alpha  occ. eigenvalues --   -0.63567  -0.63094  -0.62810  -0.61700  -0.60793
 Alpha  occ. eigenvalues --   -0.59701  -0.58835  -0.58186  -0.58117  -0.56512
 Alpha  occ. eigenvalues --   -0.56004  -0.55259  -0.54893  -0.54230  -0.53977
 Alpha  occ. eigenvalues --   -0.53316  -0.52949  -0.52372  -0.52135  -0.50843
 Alpha  occ. eigenvalues --   -0.50486  -0.50281  -0.49609  -0.49338  -0.49227
 Alpha  occ. eigenvalues --   -0.48924  -0.48906  -0.48834  -0.48452  -0.48222
 Alpha  occ. eigenvalues --   -0.48106  -0.47903  -0.47844  -0.47054  -0.46840
 Alpha  occ. eigenvalues --   -0.46213  -0.45958  -0.45524  -0.45334  -0.44934
 Alpha  occ. eigenvalues --   -0.44758  -0.44406  -0.44033  -0.43417  -0.43250
 Alpha  occ. eigenvalues --   -0.42783  -0.42399  -0.42336  -0.42037  -0.41907
 Alpha  occ. eigenvalues --   -0.41410  -0.41257  -0.41140  -0.40653  -0.40381
 Alpha  occ. eigenvalues --   -0.40255  -0.39786  -0.39502  -0.39242  -0.39099
 Alpha  occ. eigenvalues --   -0.39004  -0.38855  -0.38605  -0.38496  -0.38230
 Alpha  occ. eigenvalues --   -0.37704  -0.37391  -0.36942  -0.36414  -0.36144
 Alpha  occ. eigenvalues --   -0.34924  -0.34299  -0.33788  -0.32458  -0.31900
 Alpha  occ. eigenvalues --   -0.31079  -0.30417  -0.29161  -0.27001  -0.24111
 Alpha  occ. eigenvalues --   -0.18822
 Alpha virt. eigenvalues --   -0.07146  -0.01567   0.02205   0.06076   0.07868
 Alpha virt. eigenvalues --    0.09200   0.10873   0.11089   0.11308   0.12163
 Alpha virt. eigenvalues --    0.12707   0.13139   0.13186   0.13473   0.13701

 Mulliken charges:
               1
     1  O   -0.570759
     2  O   -0.589030
     3  C   -0.038637
     4  C    0.011446
     5  C   -0.181697
     6  C   -0.172553
     7  C    0.163801
     8  C    0.128880
     9  C    0.059882
    10  C    0.058581
    11  C   -0.216761
    12  C   -0.223061
    13  C    0.079447
    14  C    0.090065
    15  C   -0.279396
    16  C   -0.278510
    17  C   -0.300037
    18  C   -0.301256
    19  C   -0.131994
    20  C   -0.147820
    21  C   -0.380504
    22  C   -0.357274
    23  C   -0.094392
    24  C   -0.084398
    25  C    0.096316
    26  C    0.104708
    27  C   -0.389504
    28  C   -0.360683
    29  C   -0.101834
    30  C   -0.108362
    31  C   -0.076779
    32  C   -0.091178
    33  C   -0.116957
    34  C   -0.057369
    35  C    0.112043
    36  C    0.102491
    37  C   -0.383466
    38  C   -0.380514
    39  C   -0.110588
    40  C   -0.127223
    41  C   -0.086651
    42  C   -0.072305
    43  H    0.062510
    44  H    0.083709
    45  H    0.083790
    46  H    0.094414
    47  H    0.055415
    48  H    0.083155
    49  H    0.132203
    50  H    0.101908
    51  H    0.129055
    52  H    0.116800
    53  H    0.075453
    54  H    0.099760
    55  H    0.116237
    56  H    0.104251
    57  H    0.090010
    58  H    0.101532
    59  H    0.061454
    60  H    0.103153
    61  H    0.105725
    62  H    0.102489
    63  H    0.075816
    64  H    0.105496
    65  H    0.086430
    66  H    0.105033
    67  H    0.100583
    68  H    0.119865
    69  H    0.106766
    70  H    0.073983
    71  H    0.106069
    72  H    0.118384
    73  H    0.310894
    74  H    0.303591
    75  H    0.082154
    76  H    0.084071
    77  H    0.103662
    78  H    0.133040
    79  H    0.131412
    80  H    0.125168
    81  H    0.108608
    82  H    0.092422
    83  H    0.076407
    84  H    0.069910
    85  H    0.078975
    86  H    0.088524
    87  H    0.068981
    88  H    0.069873
    89  H    0.132866
    90  H    0.098655
    91  H    0.113579
    92  H    0.095388
    93  H    0.138070
    94  H    0.108734
    95  H    0.070563
    96  H    0.061066
    97  H    0.079314
    98  H    0.076455
 Sum of Mulliken charges =  -0.00000

 Dipole moment (field-independent basis, Debye):
    X=             -0.4436    Y=             -0.8085    Z=              1.5375  Tot=              1.7929
 Quadrupole moment (field-independent basis, Debye-Ang):
   XX=           -307.1247   YY=           -243.9147   ZZ=           -260.3107
   XY=             16.9848   XZ=             -8.3442   YZ=              3.0218

 Normal termination of Gaussian 16 at Mon Jul 15 21:32:51 2019.
