 Gaussian 16, Revision A.03,
 Gaussian 16:  ES64L-G16RevA.03 25-Dec-2016

 -------------------------------------
 # td=(NStates=1) CAM-B3LYP/6-31G(d,p)
 -------------------------------------

 --
 TD
 --
 Symbolic Z-matrix:
 Charge =  0 Multiplicity = 1

                         Standard orientation:
 ---------------------------------------------------------------------
 Center     Atomic      Atomic             Coordinates (Angstroms)
 Number     Number       Type             X           Y           Z
 ---------------------------------------------------------------------
      1          8           0       14.817331   -2.078033   -0.187443
      2          8           0      -14.823427    1.953184    0.893554
      3          6           0       11.265211   -1.434101    0.903858
      4          6           0      -12.482524   -1.055315    0.437898
      5          6           0       12.761337   -1.790715    1.027699
      6          6           0      -13.773616   -0.219207    0.474762
      7          6           0       13.348934   -1.848572   -0.327827
      8          6           0      -13.519785    1.279964    0.892136
      9          6           0       10.892343   -0.294685   -0.060636
     10          6           0      -11.272204   -0.175367   -0.199319
     11          6           0       13.263372   -0.527956   -1.026906
     12          6           0      -12.636644    1.868996   -0.177305
     13          6           0       11.901271    0.157626   -0.917919
     14          6           0      -11.344489    1.162574   -0.540471
     15          6           0       10.822582   -0.972830    2.432491
     16          6           0       10.425797   -2.668305    0.514626
     17          6           0      -12.057105   -1.423346    1.923115
     18          6           0      -12.747780   -2.244723   -0.402091
     19          6           0        9.665173    0.352052    0.162953
     20          6           0      -10.066257   -0.926953   -0.422415
     21          6           0       11.715225    1.368860   -1.907146
     22          6           0      -10.403885    2.002801   -1.175255
     23          6           0        9.328469    1.646658    0.048110
     24          6           0       -8.794322   -0.508229   -0.293062
     25          6           0        8.040398    2.243232    0.144469
     26          6           0       -7.571938   -1.253153   -0.595846
     27          6           0        7.987232    3.703725    0.468374
     28          6           0       -7.674729   -2.754327   -1.108440
     29          6           0        6.863158    1.463054   -0.138163
     30          6           0       -6.321437   -0.653386   -0.165335
     31          6           0        5.552870    2.003644    0.055501
     32          6           0       -5.065088   -1.101660   -0.372988
     33          6           0        4.445537    1.213734   -0.114853
     34          6           0       -3.940959   -0.385727   -0.096548
     35          6           0        3.154585    1.598984    0.086544
     36          6           0       -2.692528   -0.838049   -0.244155
     37          6           0        2.848904    2.983563    0.608582
     38          6           0       -2.494075   -2.287512   -0.642720
     39          6           0        2.060203    0.649112   -0.107750
     40          6           0       -1.597858    0.152027   -0.164155
     41          6           0        0.791037    0.896192   -0.107018
     42          6           0       -0.173503   -0.090013   -0.366191
     43          1           0       13.394371   -1.088256    1.571869
     44          1           0       12.584253   -2.808188    1.587619
     45          1           0      -14.521644   -0.664067    1.135500
     46          1           0      -14.269552   -0.193668   -0.395349
     47          1           0       12.908437   -2.652077   -0.910485
     48          1           0      -12.978018    1.308886    1.815700
     49          1           0       13.897852    0.113527   -0.485677
     50          1           0       13.472933   -0.681251   -2.109735
     51          1           0      -13.418234    2.091402   -0.885872
     52          1           0      -12.202545    2.790344    0.109494
     53          1           0       11.070708   -1.785908    3.345992
     54          1           0        9.630077   -0.826177    2.350849
     55          1           0       11.441989   -0.053675    2.575160
     56          1           0       10.659573   -3.088486   -0.524110
     57          1           0       10.841346   -3.452739    1.184954
     58          1           0        9.407942   -2.338282    0.500967
     59          1           0      -11.952893   -0.517562    2.606642
     60          1           0      -11.256049   -2.075976    1.826608
     61          1           0      -12.886081   -1.986675    2.321284
     62          1           0      -13.486686   -2.771132    0.031995
     63          1           0      -11.842798   -2.946486   -0.202990
     64          1           0      -12.807367   -2.074315   -1.492215
     65          1           0        8.732465   -0.365566    0.496542
     66          1           0      -10.228632   -1.914060   -0.959203
     67          1           0       10.710662    1.892819   -2.092010
     68          1           0       12.387819    2.000342   -1.356351
     69          1           0       12.355078    1.088082   -2.855315
     70          1           0      -11.071248    2.717990   -1.807287
     71          1           0       -9.471655    1.516737   -1.842641
     72          1           0       -9.990318    2.439474   -0.226395
     73          1           0       14.919406   -2.953803    0.369557
     74          1           0      -15.588055    1.231703    1.210964
     75          1           0       10.055710    2.455084    0.054372
     76          1           0       -8.681983    0.402933    0.118504
     77          1           0        8.970717    4.022183    0.586169
     78          1           0        7.465340    4.197647   -0.313921
     79          1           0        7.546743    3.783555    1.529520
     80          1           0       -8.141326   -3.223926   -0.290391
     81          1           0       -8.313212   -2.723728   -1.912428
     82          1           0       -6.683447   -3.147071   -1.436296
     83          1           0        6.981971    0.461923   -0.506845
     84          1           0       -6.396029    0.207973    0.298283
     85          1           0        5.691369    3.090317    0.347953
     86          1           0       -4.888702   -2.048907   -0.901759
     87          1           0        4.822579    0.194844   -0.514838
     88          1           0       -4.174813    0.607416    0.479650
     89          1           0        3.081886    3.040180    1.674879
     90          1           0        1.908269    3.194445    0.427145
     91          1           0        3.549259    3.593186    0.196837
     92          1           0       -3.021482   -3.055316   -0.073548
     93          1           0       -2.902504   -2.611674   -1.516512
     94          1           0       -1.368377   -2.583359   -0.807379
     95          1           0        2.517044   -0.452056   -0.486510
     96          1           0       -1.939743    1.174841    0.052955
     97          1           0        0.395214    1.882375   -0.009165
     98          1           0        0.113673   -1.173028   -0.581261
 ---------------------------------------------------------------------

 SCF Done:  E(RCAM-B3LYP) =  -1706.97997044     A.U. after   17 cycles

 Excitation energies and oscillator strengths:

 Excited State   1:      Singlet-A      1.6835 eV  736.46 nm  f=3.8659  <S**2>=0.000
     155 ->158         0.12867
     156 ->157         0.70541
     156 <-157        -0.13941
 This state for optimization and/or second-order correction.
 Total Energy, E(TD-HF/TD-DFT) =  -1706.91810211
 Copying the excited state density for this state as the 1-particle RhoCI density.

 The electronic state is 1-A.
 Alpha  occ. eigenvalues --  -19.22037 -19.21210 -10.30281 -10.30113 -10.28305
 Alpha  occ. eigenvalues --  -10.27960 -10.27713 -10.27674 -10.27455 -10.27371
 Alpha  occ. eigenvalues --  -10.27274 -10.27244 -10.27123 -10.27078 -10.27011
 Alpha  occ. eigenvalues --  -10.27007 -10.26859 -10.26658 -10.26626 -10.26348
 Alpha  occ. eigenvalues --  -10.26059 -10.25969 -10.25941 -10.25845 -10.25636
 Alpha  occ. eigenvalues --  -10.25573 -10.25550 -10.25428 -10.25427 -10.25418
 Alpha  occ. eigenvalues --  -10.25290 -10.25263 -10.25227 -10.25081 -10.24734
 Alpha  occ. eigenvalues --  -10.24622 -10.24598 -10.24449 -10.24449 -10.24155
 Alpha  occ. eigenvalues --  -10.24119 -10.23463  -1.06286  -1.06035  -0.93587
 Alpha  occ. eigenvalues --   -0.93247  -0.92200  -0.91772  -0.90616  -0.89112
 Alpha  occ. eigenvalues --   -0.88566  -0.87815  -0.86473  -0.85782  -0.85148
 Alpha  occ. eigenvalues --   -0.83103  -0.82358  -0.80426  -0.80343  -0.78833
 Alpha  occ. eigenvalues --   -0.77010  -0.76830  -0.76712  -0.76384  -0.76180
 Alpha  occ. eigenvalues --   -0.75902  -0.75696  -0.73970  -0.72484  -0.70364
 Alpha  occ. eigenvalues --   -0.68648  -0.67054  -0.65672  -0.64897  -0.63498
 Alpha  occ. eigenvalues --   -0.62772  -0.62283  -0.61403  -0.60894  -0.60537
 Alpha  occ. eigenvalues --   -0.59513  -0.59101  -0.58375  -0.57532  -0.55860
 Alpha  occ. eigenvalues --   -0.55672  -0.55400  -0.54602  -0.54094  -0.53572
 Alpha  occ. eigenvalues --   -0.52782  -0.52455  -0.51883  -0.51471  -0.51264
 Alpha  occ. eigenvalues --   -0.51104  -0.50717  -0.50472  -0.49635  -0.49520
 Alpha  occ. eigenvalues --   -0.49175  -0.48843  -0.48573  -0.48452  -0.47690
 Alpha  occ. eigenvalues --   -0.47386  -0.47284  -0.46965  -0.46857  -0.46472
 Alpha  occ. eigenvalues --   -0.46165  -0.46030  -0.45684  -0.45190  -0.45005
 Alpha  occ. eigenvalues --   -0.44910  -0.44464  -0.44208  -0.43816  -0.43705
 Alpha  occ. eigenvalues --   -0.43354  -0.43229  -0.42914  -0.42550  -0.42228
 Alpha  occ. eigenvalues --   -0.41977  -0.41873  -0.41637  -0.41251  -0.40373
 Alpha  occ. eigenvalues --   -0.40278  -0.40235  -0.39944  -0.39850  -0.39600
 Alpha  occ. eigenvalues --   -0.39040  -0.39002  -0.38718  -0.38694  -0.38210
 Alpha  occ. eigenvalues --   -0.37992  -0.37886  -0.36894  -0.36523  -0.35617
 Alpha  occ. eigenvalues --   -0.35418  -0.34904  -0.34449  -0.32192  -0.31888
 Alpha  occ. eigenvalues --   -0.31800  -0.29625  -0.27759  -0.25610  -0.22519
 Alpha  occ. eigenvalues --   -0.17082
 Alpha virt. eigenvalues --   -0.07065  -0.01144   0.02369   0.06056   0.08326
 Alpha virt. eigenvalues --    0.09783   0.10107   0.10666   0.11791   0.12384
 Alpha virt. eigenvalues --    0.12583   0.12721   0.13221   0.13250   0.13873

 Mulliken charges:
               1
     1  O   -0.580861
     2  O   -0.585593
     3  C   -0.063736
     4  C   -0.017860
     5  C   -0.176455
     6  C   -0.200223
     7  C    0.154676
     8  C    0.173048
     9  C    0.112430
    10  C    0.034945
    11  C   -0.202190
    12  C   -0.220352
    13  C   -0.014485
    14  C    0.066041
    15  C   -0.276854
    16  C   -0.285273
    17  C   -0.298303
    18  C   -0.298808
    19  C   -0.116978
    20  C   -0.140070
    21  C   -0.346196
    22  C   -0.365553
    23  C   -0.114119
    24  C   -0.079608
    25  C    0.046650
    26  C    0.035241
    27  C   -0.375598
    28  C   -0.360291
    29  C   -0.114054
    30  C   -0.099686
    31  C   -0.083230
    32  C   -0.062697
    33  C   -0.115807
    34  C   -0.118933
    35  C    0.060397
    36  C    0.118457
    37  C   -0.344207
    38  C   -0.391024
    39  C   -0.099844
    40  C   -0.138112
    41  C   -0.069080
    42  C   -0.098490
    43  H    0.106122
    44  H    0.075450
    45  H    0.067421
    46  H    0.106016
    47  H    0.090864
    48  H    0.084130
    49  H    0.136913
    50  H    0.120731
    51  H    0.123801
    52  H    0.099931
    53  H    0.071975
    54  H    0.090339
    55  H    0.109930
    56  H    0.092938
    57  H    0.094866
    58  H    0.109663
    59  H    0.105069
    60  H    0.116099
    61  H    0.095543
    62  H    0.108852
    63  H    0.080810
    64  H    0.117396
    65  H    0.073125
    66  H    0.076174
    67  H    0.129865
    68  H    0.128833
    69  H    0.093685
    70  H    0.114180
    71  H    0.114825
    72  H    0.131187
    73  H    0.302015
    74  H    0.310447
    75  H    0.076895
    76  H    0.068156
    77  H    0.113261
    78  H    0.137493
    79  H    0.123733
    80  H    0.137554
    81  H    0.128722
    82  H    0.108034
    83  H    0.079863
    84  H    0.059913
    85  H    0.083195
    86  H    0.064185
    87  H    0.083459
    88  H    0.074806
    89  H    0.125934
    90  H    0.111588
    91  H    0.122244
    92  H    0.120926
    93  H    0.137810
    94  H    0.093898
    95  H    0.064335
    96  H    0.081980
    97  H    0.092250
    98  H    0.083255
 Sum of Mulliken charges =  -0.00000

 Dipole moment (field-independent basis, Debye):
    X=              0.0480    Y=             -1.4503    Z=              0.4917  Tot=              1.5321
 Quadrupole moment (field-independent basis, Debye-Ang):
   XX=           -253.1005   YY=           -244.5701   ZZ=           -263.4814
   XY=             23.0014   XZ=              4.4152   YZ=              1.9291

 Normal termination of Gaussian 16 at Sun Jul 14 17:09:58 2019.
