 Gaussian 16, Revision A.03,
 Gaussian 16:  ES64L-G16RevA.03 25-Dec-2016

 -------------------------------------
 # td=(NStates=1) CAM-B3LYP/6-31G(d,p)
 -------------------------------------

 --
 TD
 --
 Symbolic Z-matrix:
 Charge =  0 Multiplicity = 1

                         Standard orientation:
 ---------------------------------------------------------------------
 Center     Atomic      Atomic             Coordinates (Angstroms)
 Number     Number       Type             X           Y           Z
 ---------------------------------------------------------------------
      1          8           0       14.831371   -2.270832   -0.169161
      2          8           0      -14.888841    1.736228    0.989686
      3          6           0       11.251174   -1.559903    0.906737
      4          6           0      -12.386877   -1.066592    0.651089
      5          6           0       12.725706   -1.903895    1.005734
      6          6           0      -13.733442   -0.353429    0.707431
      7          6           0       13.429582   -1.915097   -0.318399
      8          6           0      -13.625707    1.145432    0.874647
      9          6           0       10.943671   -0.331487   -0.017181
     10          6           0      -11.291271   -0.220283   -0.180135
     11          6           0       13.330701   -0.629487   -1.005422
     12          6           0      -12.825943    1.712978   -0.306903
     13          6           0       11.986525    0.144423   -0.751242
     14          6           0      -11.540639    1.044998   -0.558518
     15          6           0       10.612429   -1.275566    2.262409
     16          6           0       10.354756   -2.762515    0.382769
     17          6           0      -11.914566   -1.254065    1.980584
     18          6           0      -12.696890   -2.382507   -0.063299
     19          6           0        9.655234    0.372765    0.075820
     20          6           0      -10.095726   -0.987250   -0.451798
     21          6           0       11.813187    1.205369   -1.846056
     22          6           0      -10.619584    1.762106   -1.594131
     23          6           0        9.357112    1.772704    0.105056
     24          6           0       -8.764126   -0.569019   -0.431314
     25          6           0        8.088926    2.341386    0.159189
     26          6           0       -7.559911   -1.312253   -0.492099
     27          6           0        7.922662    3.659518    0.669911
     28          6           0       -7.773474   -2.690984   -0.974235
     29          6           0        6.928617    1.611024   -0.005297
     30          6           0       -6.379588   -0.570204   -0.408522
     31          6           0        5.656994    2.036942    0.287331
     32          6           0       -5.012639   -0.999715   -0.477241
     33          6           0        4.488197    1.294858   -0.118756
     34          6           0       -3.958903   -0.182277   -0.405715
     35          6           0        3.176826    1.778322    0.108599
     36          6           0       -2.576418   -0.598675   -0.480647
     37          6           0        2.972866    3.209621    0.598936
     38          6           0       -2.261540   -2.071956   -0.893865
     39          6           0        2.185849    0.832175   -0.124366
     40          6           0       -1.588261    0.293128   -0.279501
     41          6           0        0.736639    1.086675   -0.038569
     42          6           0       -0.148290    0.085995   -0.213950
     43          1           0       12.941227   -1.099097    1.803405
     44          1           0       12.905578   -2.893666    1.383898
     45          1           0      -14.319988   -0.858654    1.599486
     46          1           0      -14.401646   -0.517319   -0.264042
     47          1           0       12.889050   -2.714650   -0.988509
     48          1           0      -13.059864    1.400970    1.873644
     49          1           0       14.139770    0.184142   -0.480259
     50          1           0       13.421239   -0.670015   -1.969807
     51          1           0      -13.526774    1.767244   -1.316497
     52          1           0      -12.545428    2.696393   -0.032177
     53          1           0       10.558966   -2.048517    3.115600
     54          1           0        9.538839   -0.773909    2.171408
     55          1           0       11.281674   -0.386532    2.916224
     56          1           0       10.521738   -3.136459   -0.649659
     57          1           0       10.559908   -3.590891    0.982492
     58          1           0        9.155561   -2.610358    0.517263
     59          1           0      -11.557037   -0.285828    2.568958
     60          1           0      -10.868923   -2.177478    2.046769
     61          1           0      -12.699919   -1.599293    2.601577
     62          1           0      -13.587978   -2.764999    0.329153
     63          1           0      -12.043855   -3.177519   -0.252997
     64          1           0      -13.097706   -2.358137   -1.127188
     65          1           0        8.749207   -0.366416    0.024741
     66          1           0      -10.434646   -2.185600   -0.314926
     67          1           0       10.822293    1.367122   -1.874603
     68          1           0       12.276862    2.231290   -1.568774
     69          1           0       12.220023    0.879967   -2.901186
     70          1           0      -11.429023    2.351404   -2.162804
     71          1           0       -9.918651    1.028797   -2.041446
     72          1           0      -10.042619    2.630389   -1.116845
     73          1           0       14.821202   -3.179902    0.263051
     74          1           0      -15.231308    1.373182    1.833996
     75          1           0       10.141796    2.468313    0.043366
     76          1           0       -8.625031    0.525136   -0.239202
     77          1           0        8.838582    4.104687    0.507522
     78          1           0        7.189292    4.260240    0.097682
     79          1           0        7.606205    3.791165    1.764417
     80          1           0       -8.619403   -3.137834   -0.474314
     81          1           0       -8.080800   -2.668868   -1.887763
     82          1           0       -6.732719   -3.289295   -0.759930
     83          1           0        6.908343    0.563260   -0.237281
     84          1           0       -6.210734    0.629875   -0.328853
     85          1           0        5.354718    3.019137    0.590011
     86          1           0       -4.866548   -2.037839   -0.654128
     87          1           0        4.664997    0.304077   -0.547369
     88          1           0       -4.076859    1.000762   -0.245580
     89          1           0        2.908099    3.188645    1.749965
     90          1           0        1.999706    3.751984    0.049856
     91          1           0        4.210216    3.688385    0.435003
     92          1           0       -2.313874   -2.736073   -0.120799
     93          1           0       -2.802621   -2.355885   -1.595633
     94          1           0       -1.219608   -1.991298   -1.169442
     95          1           0        2.358357   -0.034506   -0.606568
     96          1           0       -1.916725    1.144067    0.087320
     97          1           0        0.358140    2.115506    0.244701
     98          1           0        0.165301   -1.062038   -0.271614
 ---------------------------------------------------------------------

 SCF Done:  E(RCAM-B3LYP) =  -1706.88874605     A.U. after   15 cycles

 Excitation energies and oscillator strengths:

 Excited State   1:      Singlet-A      2.2568 eV  549.38 nm  f=3.4790  <S**2>=0.000
     155 ->158        -0.18086
     156 ->157         0.67943
 This state for optimization and/or second-order correction.
 Total Energy, E(TD-HF/TD-DFT) =  -1706.80581074
 Copying the excited state density for this state as the 1-particle RhoCI density.

 The electronic state is 1-A.
 Alpha  occ. eigenvalues --  -19.21626 -19.21521 -10.31322 -10.31048 -10.29842
 Alpha  occ. eigenvalues --  -10.28501 -10.27891 -10.27865 -10.27758 -10.27690
 Alpha  occ. eigenvalues --  -10.27615 -10.27573 -10.27393 -10.27366 -10.27254
 Alpha  occ. eigenvalues --  -10.27217 -10.27165 -10.27134 -10.26989 -10.26900
 Alpha  occ. eigenvalues --  -10.26726 -10.26597 -10.26321 -10.26277 -10.26224
 Alpha  occ. eigenvalues --  -10.26192 -10.26142 -10.26068 -10.25868 -10.25763
 Alpha  occ. eigenvalues --  -10.25740 -10.25733 -10.25657 -10.25549 -10.25406
 Alpha  occ. eigenvalues --  -10.25344 -10.25052 -10.24836 -10.24797 -10.24489
 Alpha  occ. eigenvalues --  -10.24268 -10.23181  -1.10473  -1.08069  -0.94070
 Alpha  occ. eigenvalues --   -0.93481  -0.92536  -0.92161  -0.91138  -0.90473
 Alpha  occ. eigenvalues --   -0.88062  -0.87424  -0.86628  -0.85494  -0.84783
 Alpha  occ. eigenvalues --   -0.83698  -0.82563  -0.79912  -0.79309  -0.79143
 Alpha  occ. eigenvalues --   -0.77484  -0.77311  -0.76328  -0.76043  -0.75700
 Alpha  occ. eigenvalues --   -0.75038  -0.74789  -0.74196  -0.73820  -0.70453
 Alpha  occ. eigenvalues --   -0.69354  -0.67415  -0.65651  -0.64816  -0.64248
 Alpha  occ. eigenvalues --   -0.63246  -0.62660  -0.61617  -0.61214  -0.60540
 Alpha  occ. eigenvalues --   -0.59614  -0.58462  -0.58260  -0.57678  -0.56495
 Alpha  occ. eigenvalues --   -0.55954  -0.55255  -0.54995  -0.54041  -0.53920
 Alpha  occ. eigenvalues --   -0.53232  -0.52776  -0.52111  -0.51750  -0.50824
 Alpha  occ. eigenvalues --   -0.50378  -0.50269  -0.49988  -0.49670  -0.49500
 Alpha  occ. eigenvalues --   -0.49112  -0.48714  -0.48435  -0.48186  -0.47943
 Alpha  occ. eigenvalues --   -0.47858  -0.47685  -0.47272  -0.46964  -0.46353
 Alpha  occ. eigenvalues --   -0.46089  -0.45946  -0.45525  -0.45151  -0.44839
 Alpha  occ. eigenvalues --   -0.44493  -0.44081  -0.43867  -0.43749  -0.43712
 Alpha  occ. eigenvalues --   -0.43365  -0.43266  -0.42854  -0.42577  -0.42122
 Alpha  occ. eigenvalues --   -0.41777  -0.41690  -0.40816  -0.40734  -0.40539
 Alpha  occ. eigenvalues --   -0.40287  -0.40107  -0.39856  -0.39450  -0.38959
 Alpha  occ. eigenvalues --   -0.38916  -0.38717  -0.38402  -0.37806  -0.37437
 Alpha  occ. eigenvalues --   -0.37373  -0.36656  -0.36475  -0.36207  -0.36164
 Alpha  occ. eigenvalues --   -0.35949  -0.34868  -0.34182  -0.32744  -0.32438
 Alpha  occ. eigenvalues --   -0.31966  -0.30392  -0.28668  -0.26522  -0.22585
 Alpha  occ. eigenvalues --   -0.19796
 Alpha virt. eigenvalues --   -0.05627  -0.02150   0.02171   0.05566   0.07986
 Alpha virt. eigenvalues --    0.09404   0.09904   0.10336   0.11164   0.11617
 Alpha virt. eigenvalues --    0.11783   0.12103   0.12445   0.13229   0.13624

 Mulliken charges:
               1
     1  O   -0.561855
     2  O   -0.549189
     3  C   -0.015488
     4  C    0.005724
     5  C   -0.171846
     6  C   -0.199173
     7  C    0.169294
     8  C    0.166504
     9  C    0.113311
    10  C    0.084447
    11  C   -0.175077
    12  C   -0.219761
    13  C   -0.005606
    14  C    0.040079
    15  C   -0.292490
    16  C   -0.305733
    17  C   -0.250058
    18  C   -0.325496
    19  C   -0.146508
    20  C   -0.140265
    21  C   -0.354399
    22  C   -0.355592
    23  C   -0.098970
    24  C   -0.110106
    25  C    0.093983
    26  C    0.086179
    27  C   -0.371068
    28  C   -0.347764
    29  C   -0.094397
    30  C   -0.118454
    31  C   -0.085688
    32  C   -0.073972
    33  C   -0.109370
    34  C   -0.119215
    35  C    0.112978
    36  C    0.086947
    37  C   -0.347876
    38  C   -0.350018
    39  C   -0.116035
    40  C   -0.115541
    41  C   -0.094644
    42  C   -0.090140
    43  H    0.106393
    44  H    0.079502
    45  H    0.064318
    46  H    0.097759
    47  H    0.068701
    48  H    0.059466
    49  H    0.095376
    50  H    0.113501
    51  H    0.100683
    52  H    0.118459
    53  H    0.100360
    54  H    0.110011
    55  H    0.051506
    56  H    0.099586
    57  H    0.107809
    58  H    0.080740
    59  H    0.100041
    60  H    0.045138
    61  H    0.103211
    62  H    0.107501
    63  H    0.110914
    64  H    0.099129
    65  H    0.088695
    66  H    0.060295
    67  H    0.129196
    68  H    0.099885
    69  H    0.095415
    70  H    0.102020
    71  H    0.129094
    72  H    0.102570
    73  H    0.303919
    74  H    0.308868
    75  H    0.082933
    76  H    0.093350
    77  H    0.103566
    78  H    0.113047
    79  H    0.119248
    80  H    0.119870
    81  H    0.148972
    82  H    0.083686
    83  H    0.071514
    84  H    0.075702
    85  H    0.060092
    86  H    0.077501
    87  H    0.085737
    88  H    0.074933
    89  H    0.133041
    90  H    0.111540
    91  H    0.079559
    92  H    0.127822
    93  H    0.124078
    94  H    0.102049
    95  H    0.085533
    96  H    0.068108
    97  H    0.085506
    98  H    0.084895
 Sum of Mulliken charges =  -0.00000

 Dipole moment (field-independent basis, Debye):
    X=             -1.6013    Y=             -2.0955    Z=              1.2528  Tot=              2.9197
 Quadrupole moment (field-independent basis, Debye-Ang):
   XX=           -293.3028   YY=           -243.6797   ZZ=           -261.8860
   XY=              5.3440   XZ=             -9.1822   YZ=              3.2174

 Normal termination of Gaussian 16 at Thu Jul 11 16:48:06 2019.
