 Gaussian 16, Revision A.03,
 Gaussian 16:  ES64L-G16RevA.03 25-Dec-2016

 -------------------------------------
 # td=(NStates=1) CAM-B3LYP/6-31G(d,p)
 -------------------------------------

 --
 TD
 --
 Symbolic Z-matrix:
 Charge =  0 Multiplicity = 1

                         Standard orientation:
 ---------------------------------------------------------------------
 Center     Atomic      Atomic             Coordinates (Angstroms)
 Number     Number       Type             X           Y           Z
 ---------------------------------------------------------------------
      1          8           0       14.782006   -2.209886   -0.220703
      2          8           0      -14.893259    1.853212    0.895033
      3          6           0       11.285757   -1.433770    0.893615
      4          6           0      -12.420044   -1.011998    0.562445
      5          6           0       12.759647   -1.773646    1.068007
      6          6           0      -13.719550   -0.273025    0.510288
      7          6           0       13.390013   -1.828344   -0.365007
      8          6           0      -13.638069    1.157558    0.819119
      9          6           0       11.019509   -0.249257   -0.018900
     10          6           0      -11.325740   -0.226948   -0.260301
     11          6           0       13.358854   -0.528931   -1.072970
     12          6           0      -12.766200    1.702343   -0.385103
     13          6           0       11.929499    0.052935   -0.942442
     14          6           0      -11.530706    0.979306   -0.610940
     15          6           0       10.785966   -1.059706    2.366831
     16          6           0       10.418081   -2.642161    0.424929
     17          6           0      -11.853900   -1.215884    2.023868
     18          6           0      -12.606426   -2.465948    0.013380
     19          6           0        9.649708    0.290875    0.066985
     20          6           0      -10.023517   -0.854636   -0.354643
     21          6           0       11.703493    1.179666   -1.956558
     22          6           0      -10.686528    1.799758   -1.599914
     23          6           0        9.413676    1.623573    0.033215
     24          6           0       -8.754109   -0.397585   -0.376957
     25          6           0        8.115934    2.351057    0.025551
     26          6           0       -7.600385   -1.228728   -0.534132
     27          6           0        8.061197    3.802554    0.502203
     28          6           0       -7.751962   -2.654458   -0.878672
     29          6           0        6.918631    1.598552   -0.008719
     30          6           0       -6.403718   -0.610126   -0.432329
     31          6           0        5.495977    2.013657    0.235196
     32          6           0       -5.140791   -1.056489   -0.567235
     33          6           0        4.486007    1.132796    0.101167
     34          6           0       -4.027646   -0.235824   -0.227628
     35          6           0        3.170048    1.552037    0.297628
     36          6           0       -2.698887   -0.679877   -0.495922
     37          6           0        2.802045    3.080280    0.784591
     38          6           0       -2.388181   -2.112956   -0.934090
     39          6           0        2.200691    0.629538    0.074515
     40          6           0       -1.627944    0.148887   -0.155383
     41          6           0        0.791084    0.888881    0.164631
     42          6           0       -0.200960   -0.084705   -0.116132
     43          1           0       13.337630   -0.972291    1.601002
     44          1           0       12.954001   -2.796332    1.491705
     45          1           0      -14.310789   -0.698979    1.305739
     46          1           0      -14.104871   -0.307302   -0.359175
     47          1           0       12.917719   -2.575289   -0.871836
     48          1           0      -13.065025    1.499990    1.572092
     49          1           0       14.226703    0.328413   -0.722519
     50          1           0       13.894855   -0.535814   -2.104765
     51          1           0      -13.557453    1.630495   -1.233950
     52          1           0      -12.630571    2.877507   -0.223166
     53          1           0       10.692533   -2.047249    2.920748
     54          1           0        9.655689   -0.663325    2.210339
     55          1           0       11.727264   -0.349668    2.842543
     56          1           0       10.819395   -2.963146   -0.519196
     57          1           0       10.368408   -3.479638    1.214613
     58          1           0        9.352026   -2.357537    0.457281
     59          1           0      -11.562291   -0.178830    2.630945
     60          1           0      -10.872031   -1.818161    1.865458
     61          1           0      -12.531650   -1.950028    2.485169
     62          1           0      -13.596379   -2.770747    0.382495
     63          1           0      -11.923466   -3.282350    0.174380
     64          1           0      -12.803793   -2.401370   -0.875483
     65          1           0        8.840663   -0.433377    0.220390
     66          1           0      -10.139043   -2.001277   -0.390511
     67          1           0       10.688795    1.417100   -2.473425
     68          1           0       12.047660    2.157659   -1.872918
     69          1           0       12.265103    0.666016   -2.913997
     70          1           0      -11.453714    2.358567   -2.254667
     71          1           0       -9.989446    1.153683   -2.187979
     72          1           0      -10.126712    2.427534   -0.892662
     73          1           0       14.815676   -3.013986    0.323386
     74          1           0      -15.294437    1.636802    1.694382
     75          1           0       10.381921    2.327103    0.013143
     76          1           0       -8.495355    0.724294   -0.152589
     77          1           0        9.053828    4.167196    0.442490
     78          1           0        7.252978    4.280214   -0.223813
     79          1           0        7.622319    3.874997    1.423416
     80          1           0       -8.243718   -3.165559   -0.153111
     81          1           0       -8.142022   -2.854958   -1.884487
     82          1           0       -6.872592   -3.230574   -0.932111
     83          1           0        6.769724    0.550421   -0.377173
     84          1           0       -6.361154    0.491945   -0.120200
     85          1           0        5.237761    3.014638    0.207731
     86          1           0       -4.839692   -2.088825   -0.806714
     87          1           0        4.540691    0.246509   -0.191072
     88          1           0       -4.084496    0.881837    0.200507
     89          1           0        3.650258    3.409144    1.643625
     90          1           0        1.767084    3.384825    1.253675
     91          1           0        2.957255    3.888543   -0.118053
     92          1           0       -3.070930   -2.768353   -0.309214
     93          1           0       -2.654491   -2.292847   -1.938982
     94          1           0       -1.256511   -2.415200   -0.776148
     95          1           0        2.500715   -0.371869   -0.191768
     96          1           0       -1.850646    1.144833    0.048442
     97          1           0        0.535555    1.905162    0.475727
     98          1           0        0.305764   -0.962673   -0.469495
 ---------------------------------------------------------------------

 SCF Done:  E(RCAM-B3LYP) =  -1706.94431088     A.U. after   15 cycles

 Excitation energies and oscillator strengths:

 Excited State   1:      Singlet-A      2.2707 eV  546.01 nm  f=3.8319  <S**2>=0.000
     155 ->158        -0.16542
     156 ->157         0.68571
 This state for optimization and/or second-order correction.
 Total Energy, E(TD-HF/TD-DFT) =  -1706.86086364
 Copying the excited state density for this state as the 1-particle RhoCI density.

 The electronic state is 1-A.
 Alpha  occ. eigenvalues --  -19.20771 -19.20129 -10.30056 -10.29390 -10.28840
 Alpha  occ. eigenvalues --  -10.28005 -10.27996 -10.27877 -10.27807 -10.27682
 Alpha  occ. eigenvalues --  -10.27623 -10.27329 -10.27278 -10.27109 -10.27065
 Alpha  occ. eigenvalues --  -10.27030 -10.26901 -10.26808 -10.26780 -10.26545
 Alpha  occ. eigenvalues --  -10.26499 -10.26436 -10.26390 -10.26320 -10.26228
 Alpha  occ. eigenvalues --  -10.26129 -10.26023 -10.25877 -10.25870 -10.25805
 Alpha  occ. eigenvalues --  -10.25687 -10.25600 -10.25582 -10.25469 -10.25444
 Alpha  occ. eigenvalues --  -10.25424 -10.25049 -10.24725 -10.24607 -10.24310
 Alpha  occ. eigenvalues --  -10.23132 -10.23072  -1.09792  -1.07888  -0.94714
 Alpha  occ. eigenvalues --   -0.93566  -0.92529  -0.92286  -0.90404  -0.89132
 Alpha  occ. eigenvalues --   -0.87854  -0.87068  -0.85970  -0.85790  -0.84733
 Alpha  occ. eigenvalues --   -0.83843  -0.81700  -0.80566  -0.79768  -0.77813
 Alpha  occ. eigenvalues --   -0.77243  -0.76529  -0.75899  -0.75538  -0.75408
 Alpha  occ. eigenvalues --   -0.75192  -0.75137  -0.73768  -0.73555  -0.71267
 Alpha  occ. eigenvalues --   -0.69201  -0.67712  -0.66301  -0.64927  -0.64104
 Alpha  occ. eigenvalues --   -0.63419  -0.63196  -0.62319  -0.61524  -0.60511
 Alpha  occ. eigenvalues --   -0.59832  -0.58923  -0.58534  -0.57830  -0.56332
 Alpha  occ. eigenvalues --   -0.55951  -0.55363  -0.54770  -0.54053  -0.53968
 Alpha  occ. eigenvalues --   -0.53041  -0.52371  -0.51779  -0.51138  -0.50921
 Alpha  occ. eigenvalues --   -0.50404  -0.50177  -0.49799  -0.49781  -0.49700
 Alpha  occ. eigenvalues --   -0.49272  -0.49055  -0.48672  -0.48343  -0.48042
 Alpha  occ. eigenvalues --   -0.47496  -0.46922  -0.46746  -0.46377  -0.45974
 Alpha  occ. eigenvalues --   -0.45616  -0.45343  -0.44947  -0.44802  -0.44586
 Alpha  occ. eigenvalues --   -0.44451  -0.44225  -0.43868  -0.43670  -0.43461
 Alpha  occ. eigenvalues --   -0.43232  -0.43168  -0.42736  -0.42228  -0.42008
 Alpha  occ. eigenvalues --   -0.41685  -0.41496  -0.41400  -0.40723  -0.40541
 Alpha  occ. eigenvalues --   -0.40256  -0.39967  -0.39911  -0.39893  -0.39612
 Alpha  occ. eigenvalues --   -0.39312  -0.39114  -0.38847  -0.38244  -0.37976
 Alpha  occ. eigenvalues --   -0.37219  -0.36867  -0.36766  -0.36653  -0.35857
 Alpha  occ. eigenvalues --   -0.35594  -0.34488  -0.33675  -0.32923  -0.32472
 Alpha  occ. eigenvalues --   -0.31006  -0.30233  -0.28755  -0.26563  -0.23415
 Alpha  occ. eigenvalues --   -0.19663
 Alpha virt. eigenvalues --   -0.05723  -0.01328   0.02563   0.05794   0.07759
 Alpha virt. eigenvalues --    0.09808   0.11459   0.11886   0.12123   0.12675
 Alpha virt. eigenvalues --    0.12702   0.13233   0.13278   0.13785   0.14061

 Mulliken charges:
               1
     1  O   -0.580249
     2  O   -0.562945
     3  C   -0.049391
     4  C   -0.037557
     5  C   -0.190030
     6  C   -0.145262
     7  C    0.175819
     8  C    0.153402
     9  C    0.093076
    10  C    0.116377
    11  C   -0.206317
    12  C   -0.271682
    13  C    0.051200
    14  C    0.036761
    15  C   -0.274777
    16  C   -0.302800
    17  C   -0.283529
    18  C   -0.310034
    19  C   -0.108962
    20  C   -0.151576
    21  C   -0.368182
    22  C   -0.343604
    23  C   -0.093923
    24  C   -0.097676
    25  C    0.038254
    26  C    0.127262
    27  C   -0.349033
    28  C   -0.381086
    29  C   -0.117841
    30  C   -0.124430
    31  C   -0.106349
    32  C   -0.092465
    33  C   -0.047482
    34  C   -0.123776
    35  C    0.124375
    36  C    0.125758
    37  C   -0.364280
    38  C   -0.374826
    39  C   -0.144694
    40  C   -0.137674
    41  C   -0.080336
    42  C   -0.089002
    43  H    0.109242
    44  H    0.075931
    45  H    0.077748
    46  H    0.105071
    47  H    0.095248
    48  H    0.088380
    49  H    0.091459
    50  H    0.116109
    51  H    0.107354
    52  H    0.088733
    53  H    0.091077
    54  H    0.089612
    55  H    0.080025
    56  H    0.112124
    57  H    0.089537
    58  H    0.103911
    59  H    0.084014
    60  H    0.097563
    61  H    0.099450
    62  H    0.093212
    63  H    0.109042
    64  H    0.115433
    65  H    0.097242
    66  H    0.067730
    67  H    0.109678
    68  H    0.127574
    69  H    0.068578
    70  H    0.108050
    71  H    0.117213
    72  H    0.119286
    73  H    0.297429
    74  H    0.301114
    75  H    0.076665
    76  H    0.080373
    77  H    0.114393
    78  H    0.104815
    79  H    0.144984
    80  H    0.130259
    81  H    0.124557
    82  H    0.108410
    83  H    0.079590
    84  H    0.073210
    85  H    0.086437
    86  H    0.084711
    87  H    0.058092
    88  H    0.086815
    89  H    0.096822
    90  H    0.117381
    91  H    0.105550
    92  H    0.112288
    93  H    0.133879
    94  H    0.105377
    95  H    0.082161
    96  H    0.075967
    97  H    0.076297
    98  H    0.076286
 Sum of Mulliken charges =  -0.00000

 Dipole moment (field-independent basis, Debye):
    X=             -1.7953    Y=             -2.0509    Z=              1.1225  Tot=              2.9478
 Quadrupole moment (field-independent basis, Debye-Ang):
   XX=           -294.7600   YY=           -241.2861   ZZ=           -264.0727
   XY=             13.5062   XZ=             -6.7768   YZ=              3.1942

 Normal termination of Gaussian 16 at Sun Jul 14 04:06:18 2019.
