 Gaussian 16, Revision A.03,
 Gaussian 16:  ES64L-G16RevA.03 25-Dec-2016

 -------------------------------------
 # td=(NStates=1) CAM-B3LYP/6-31G(d,p)
 -------------------------------------

 --
 TD
 --
 Symbolic Z-matrix:
 Charge =  0 Multiplicity = 1

                         Standard orientation:
 ---------------------------------------------------------------------
 Center     Atomic      Atomic             Coordinates (Angstroms)
 Number     Number       Type             X           Y           Z
 ---------------------------------------------------------------------
      1          8           0       14.572627   -2.359146   -0.162449
      2          8           0      -14.790684    1.728890    1.253493
      3          6           0       11.158350   -1.494199    0.997623
      4          6           0      -12.346868   -1.131242    0.591759
      5          6           0       12.679333   -1.982511    1.085826
      6          6           0      -13.661866   -0.355681    0.610827
      7          6           0       13.311811   -1.947602   -0.315995
      8          6           0      -13.468966    1.095569    1.041868
      9          6           0       11.001682   -0.296739    0.112636
     10          6           0      -11.317810   -0.312736   -0.161325
     11          6           0       13.260960   -0.424966   -0.835614
     12          6           0      -12.736994    1.855001   -0.012178
     13          6           0       11.948638    0.132583   -0.816183
     14          6           0      -11.516631    1.004986   -0.508746
     15          6           0       10.815913   -1.107913    2.419908
     16          6           0       10.379513   -2.670686    0.446173
     17          6           0      -11.929404   -1.486351    2.064844
     18          6           0      -12.622334   -2.426724   -0.129360
     19          6           0        9.752758    0.351983    0.172461
     20          6           0      -10.071724   -0.994593   -0.566597
     21          6           0       11.768887    1.249231   -1.791925
     22          6           0      -10.686710    1.794559   -1.490441
     23          6           0        9.345888    1.683643    0.057509
     24          6           0       -8.811555   -0.419203   -0.357745
     25          6           0        8.062566    2.231412    0.243407
     26          6           0       -7.586580   -1.210715   -0.586535
     27          6           0        7.987161    3.659885    0.503319
     28          6           0       -7.643766   -2.620604   -1.054457
     29          6           0        6.866699    1.500543    0.028790
     30          6           0       -6.483921   -0.485171   -0.403329
     31          6           0        5.621983    2.030767    0.121246
     32          6           0       -5.091245   -0.946121   -0.613553
     33          6           0        4.469977    1.316233   -0.129222
     34          6           0       -3.898176   -0.131726   -0.489583
     35          6           0        3.146828    1.741265    0.028132
     36          6           0       -2.573017   -0.628268   -0.478049
     37          6           0        2.906603    3.066923    0.581846
     38          6           0       -2.306132   -1.938085   -1.088335
     39          6           0        2.179307    0.781256   -0.331142
     40          6           0       -1.587885    0.320560   -0.331710
     41          6           0        0.720968    1.002795   -0.076927
     42          6           0       -0.254697    0.046341   -0.399805
     43          1           0       13.256547   -1.411426    1.771513
     44          1           0       12.635931   -3.013360    1.450731
     45          1           0      -14.373400   -0.807798    1.122856
     46          1           0      -14.105458   -0.323995   -0.437362
     47          1           0       12.684898   -2.719880   -0.966169
     48          1           0      -12.777949    1.147151    1.936802
     49          1           0       13.851979    0.185587   -0.174525
     50          1           0       13.586559   -0.540528   -1.892380
     51          1           0      -13.204959    2.208569   -0.914334
     52          1           0      -12.309075    2.882225    0.628679
     53          1           0       10.779911   -1.886161    3.162959
     54          1           0        9.696952   -0.958459    2.116988
     55          1           0       11.324057   -0.094467    2.734902
     56          1           0       10.810030   -3.268081   -0.470125
     57          1           0       10.092535   -3.440736    1.287527
     58          1           0        9.258682   -2.404588    0.049352
     59          1           0      -11.799699   -0.512031    2.539809
     60          1           0      -10.934137   -2.000862    2.180095
     61          1           0      -12.481971   -2.168441    2.441214
     62          1           0      -13.383949   -3.009346    0.424399
     63          1           0      -11.701969   -2.975461   -0.381134
     64          1           0      -12.983120   -2.277118   -1.171315
     65          1           0        8.976141   -0.277440    0.428859
     66          1           0      -10.092182   -2.073119   -0.552162
     67          1           0       10.686304    1.294691   -1.952709
     68          1           0       12.126019    2.033594   -1.406341
     69          1           0       12.090065    1.035679   -2.785131
     70          1           0      -11.201891    2.438307   -2.132464
     71          1           0      -10.043566    1.214734   -2.084055
     72          1           0      -10.050053    2.464072   -0.889246
     73          1           0       14.629012   -3.152520    0.297545
     74          1           0      -15.110084    1.579420    2.236268
     75          1           0       10.230737    2.165975   -0.116555
     76          1           0       -8.899006    0.530402   -0.290154
     77          1           0        9.097229    3.792314    0.916628
     78          1           0        7.792144    4.512908   -0.384264
     79          1           0        7.391915    4.034285    1.285932
     80          1           0       -8.249978   -3.208878   -0.234399
     81          1           0       -8.101243   -2.608310   -2.015598
     82          1           0       -6.739854   -3.053764   -1.151793
     83          1           0        7.054125    0.393435   -0.202349
     84          1           0       -6.262434    0.558509   -0.328250
     85          1           0        5.539823    3.108174    0.611907
     86          1           0       -4.746008   -2.007810   -0.529849
     87          1           0        4.532033    0.146978   -0.396744
     88          1           0       -4.237619    0.920951   -0.419083
     89          1           0        3.150674    3.022977    1.665048
     90          1           0        1.922094    3.432876    0.545593
     91          1           0        3.335067    3.796879   -0.109270
     92          1           0       -2.683658   -2.623305   -0.462521
     93          1           0       -2.990993   -2.181044   -1.973174
     94          1           0       -1.273166   -2.121690   -1.380197
     95          1           0        2.491377   -0.290485   -0.669142
     96          1           0       -1.942885    1.220727    0.145518
     97          1           0        0.584064    2.130654    0.101103
     98          1           0        0.080599   -0.921106   -0.774295
 ---------------------------------------------------------------------

 SCF Done:  E(RCAM-B3LYP) =  -1706.96048845     A.U. after   15 cycles

 Excitation energies and oscillator strengths:

 Excited State   1:      Singlet-A      2.0930 eV  592.37 nm  f=3.7028  <S**2>=0.000
     155 ->158         0.16335
     156 ->157         0.68767
 This state for optimization and/or second-order correction.
 Total Energy, E(TD-HF/TD-DFT) =  -1706.88357109
 Copying the excited state density for this state as the 1-particle RhoCI density.

 The electronic state is 1-A.
 Alpha  occ. eigenvalues --  -19.21119 -19.20585 -10.30834 -10.30464 -10.27505
 Alpha  occ. eigenvalues --  -10.27488 -10.27392 -10.27373 -10.27278 -10.27042
 Alpha  occ. eigenvalues --  -10.26888 -10.26828 -10.26749 -10.26592 -10.26556
 Alpha  occ. eigenvalues --  -10.26537 -10.26483 -10.26368 -10.26357 -10.26324
 Alpha  occ. eigenvalues --  -10.26318 -10.26254 -10.25905 -10.25747 -10.25716
 Alpha  occ. eigenvalues --  -10.25499 -10.25492 -10.25487 -10.25452 -10.25232
 Alpha  occ. eigenvalues --  -10.25231 -10.25039 -10.24873 -10.24844 -10.24751
 Alpha  occ. eigenvalues --  -10.24727 -10.24407 -10.24074 -10.23778 -10.23462
 Alpha  occ. eigenvalues --  -10.23348 -10.22993  -1.12949  -1.05742  -0.94337
 Alpha  occ. eigenvalues --   -0.93387  -0.92410  -0.91914  -0.90860  -0.90322
 Alpha  occ. eigenvalues --   -0.88296  -0.86869  -0.86470  -0.85433  -0.84627
 Alpha  occ. eigenvalues --   -0.82992  -0.81858  -0.80149  -0.80062  -0.78957
 Alpha  occ. eigenvalues --   -0.77532  -0.77273  -0.76913  -0.76546  -0.75840
 Alpha  occ. eigenvalues --   -0.75416  -0.75064  -0.74850  -0.73127  -0.70476
 Alpha  occ. eigenvalues --   -0.69354  -0.67315  -0.66008  -0.64933  -0.64226
 Alpha  occ. eigenvalues --   -0.63862  -0.62968  -0.61660  -0.60783  -0.59983
 Alpha  occ. eigenvalues --   -0.58980  -0.58720  -0.58470  -0.57787  -0.56284
 Alpha  occ. eigenvalues --   -0.56088  -0.55062  -0.54792  -0.54554  -0.53841
 Alpha  occ. eigenvalues --   -0.53259  -0.53091  -0.52461  -0.51669  -0.51477
 Alpha  occ. eigenvalues --   -0.51214  -0.51134  -0.50819  -0.49928  -0.49599
 Alpha  occ. eigenvalues --   -0.49273  -0.49074  -0.48773  -0.48423  -0.48217
 Alpha  occ. eigenvalues --   -0.48100  -0.47942  -0.47507  -0.47261  -0.46833
 Alpha  occ. eigenvalues --   -0.46343  -0.46067  -0.45694  -0.45485  -0.45116
 Alpha  occ. eigenvalues --   -0.44712  -0.44484  -0.44408  -0.43728  -0.43662
 Alpha  occ. eigenvalues --   -0.43249  -0.42367  -0.42173  -0.41896  -0.41653
 Alpha  occ. eigenvalues --   -0.41388  -0.41347  -0.40772  -0.40653  -0.40294
 Alpha  occ. eigenvalues --   -0.40203  -0.39943  -0.39632  -0.39374  -0.39224
 Alpha  occ. eigenvalues --   -0.39032  -0.38740  -0.38510  -0.38334  -0.38215
 Alpha  occ. eigenvalues --   -0.37632  -0.37235  -0.36369  -0.35992  -0.35771
 Alpha  occ. eigenvalues --   -0.35538  -0.34481  -0.33902  -0.32482  -0.31487
 Alpha  occ. eigenvalues --   -0.30015  -0.29777  -0.27880  -0.25465  -0.22474
 Alpha  occ. eigenvalues --   -0.18799
 Alpha virt. eigenvalues --   -0.05751  -0.01336   0.02286   0.05383   0.07899
 Alpha virt. eigenvalues --    0.09871   0.10970   0.11497   0.11864   0.12482
 Alpha virt. eigenvalues --    0.12868   0.13268   0.13516   0.14020   0.14209

 Mulliken charges:
               1
     1  O   -0.525650
     2  O   -0.581011
     3  C   -0.027736
     4  C   -0.033831
     5  C   -0.203425
     6  C   -0.152167
     7  C    0.182859
     8  C    0.152632
     9  C    0.109920
    10  C    0.079285
    11  C   -0.221365
    12  C   -0.185866
    13  C    0.015821
    14  C    0.011314
    15  C   -0.282957
    16  C   -0.306221
    17  C   -0.286214
    18  C   -0.309496
    19  C   -0.133768
    20  C   -0.155111
    21  C   -0.359920
    22  C   -0.365956
    23  C   -0.100919
    24  C   -0.042066
    25  C    0.088784
    26  C    0.080826
    27  C   -0.368325
    28  C   -0.349912
    29  C   -0.089649
    30  C   -0.101059
    31  C   -0.098339
    32  C   -0.128956
    33  C   -0.114728
    34  C   -0.126491
    35  C    0.120690
    36  C    0.096257
    37  C   -0.378827
    38  C   -0.379275
    39  C   -0.142890
    40  C   -0.091156
    41  C   -0.101864
    42  C   -0.091885
    43  H    0.100288
    44  H    0.074191
    45  H    0.084784
    46  H    0.094226
    47  H    0.046032
    48  H    0.084494
    49  H    0.127228
    50  H    0.106459
    51  H    0.123283
    52  H    0.063899
    53  H    0.105511
    54  H    0.083950
    55  H    0.103703
    56  H    0.107675
    57  H    0.091371
    58  H    0.082413
    59  H    0.099356
    60  H    0.091950
    61  H    0.108314
    62  H    0.097963
    63  H    0.097494
    64  H    0.100570
    65  H    0.068762
    66  H    0.068281
    67  H    0.126004
    68  H    0.135476
    69  H    0.110059
    70  H    0.110829
    71  H    0.123568
    72  H    0.112885
    73  H    0.298794
    74  H    0.306285
    75  H    0.073873
    76  H    0.068490
    77  H    0.088091
    78  H    0.095936
    79  H    0.128527
    80  H    0.106681
    81  H    0.137837
    82  H    0.121260
    83  H    0.077174
    84  H    0.083754
    85  H    0.088108
    86  H    0.059585
    87  H    0.073135
    88  H    0.076567
    89  H    0.136313
    90  H    0.111080
    91  H    0.129875
    92  H    0.136372
    93  H    0.118356
    94  H    0.112956
    95  H    0.080272
    96  H    0.087110
    97  H    0.083821
    98  H    0.087378
 Sum of Mulliken charges =  -0.00000

 Dipole moment (field-independent basis, Debye):
    X=              1.3207    Y=             -1.6629    Z=              1.6134  Tot=              2.6669
 Quadrupole moment (field-independent basis, Debye-Ang):
   XX=           -283.5003   YY=           -240.7353   ZZ=           -257.6208
   XY=              6.8234   XZ=             -5.6984   YZ=              1.5394

 Normal termination of Gaussian 16 at Sun Jul 14 08:33:54 2019.
