 Gaussian 16, Revision A.03,
 Gaussian 16:  ES64L-G16RevA.03 25-Dec-2016

 -------------------------------------
 # td=(NStates=1) CAM-B3LYP/6-31G(d,p)
 -------------------------------------

 --
 TD
 --
 Symbolic Z-matrix:
 Charge =  0 Multiplicity = 1

                         Standard orientation:
 ---------------------------------------------------------------------
 Center     Atomic      Atomic             Coordinates (Angstroms)
 Number     Number       Type             X           Y           Z
 ---------------------------------------------------------------------
      1          8           0       14.658994   -2.286288   -0.336555
      2          8           0      -14.783795    2.000464    0.729571
      3          6           0       11.177487   -1.501590    0.958312
      4          6           0      -12.499843   -1.028091    0.492783
      5          6           0       12.673067   -1.948351    0.977554
      6          6           0      -13.657315   -0.275717    0.465041
      7          6           0       13.315862   -2.026151   -0.389770
      8          6           0      -13.555014    1.195234    0.905845
      9          6           0       10.867654   -0.218720    0.011520
     10          6           0      -11.282876   -0.340392   -0.280581
     11          6           0       13.195449   -0.666933   -1.085529
     12          6           0      -12.642178    1.725277   -0.193642
     13          6           0       11.812272    0.060835   -0.939045
     14          6           0      -11.437943    1.005799   -0.552769
     15          6           0       10.842482   -1.017309    2.372110
     16          6           0       10.288587   -2.670420    0.555004
     17          6           0      -11.925426   -1.127312    1.965907
     18          6           0      -12.647349   -2.317052   -0.146765
     19          6           0        9.692668    0.327607    0.074132
     20          6           0      -10.009119   -1.083710   -0.410487
     21          6           0       11.692655    1.276146   -1.822989
     22          6           0      -10.489070    1.783480   -1.396256
     23          6           0        9.349831    1.663087    0.082167
     24          6           0       -8.804199   -0.462431   -0.256245
     25          6           0        8.141832    2.378931    0.161881
     26          6           0       -7.596865   -1.217852   -0.558333
     27          6           0        8.140495    3.840806    0.351925
     28          6           0       -7.632112   -2.722832   -0.930463
     29          6           0        6.894453    1.659733   -0.055534
     30          6           0       -6.321470   -0.524362   -0.394115
     31          6           0        5.567076    2.089312    0.045765
     32          6           0       -5.061241   -1.124597   -0.555780
     33          6           0        4.486116    1.253273    0.020964
     34          6           0       -3.955850   -0.400052   -0.407042
     35          6           0        3.102778    1.714244    0.159445
     36          6           0       -2.602690   -0.794803   -0.338841
     37          6           0        2.894016    3.172821    0.644851
     38          6           0       -2.290587   -2.321136   -0.497006
     39          6           0        2.079418    0.802252   -0.048554
     40          6           0       -1.618406    0.091767   -0.129670
     41          6           0        0.731371    1.031072    0.137182
     42          6           0       -0.191621    0.030020   -0.178403
     43          1           0       13.230455   -1.172530    1.645425
     44          1           0       12.754871   -2.873497    1.588920
     45          1           0      -14.646141   -0.747542    1.097133
     46          1           0      -14.149446   -0.385433   -0.559475
     47          1           0       12.886364   -2.767393   -1.138996
     48          1           0      -13.264991    1.271747    1.886248
     49          1           0       13.986630    0.058442   -0.694268
     50          1           0       13.657552   -0.703237   -2.233783
     51          1           0      -13.207067    1.811998   -1.261026
     52          1           0      -12.366319    2.751371   -0.038491
     53          1           0       11.039074   -1.985887    2.989980
     54          1           0        9.745551   -0.653607    2.647325
     55          1           0       11.414411   -0.107061    2.606732
     56          1           0       10.528535   -3.128787   -0.435761
     57          1           0       10.389106   -3.479181    1.274036
     58          1           0        9.232124   -2.364114    0.571749
     59          1           0      -11.750212   -0.093059    2.576951
     60          1           0      -11.047341   -1.795691    2.042720
     61          1           0      -12.844147   -1.655196    2.395014
     62          1           0      -13.632932   -2.840000    0.328566
     63          1           0      -11.832842   -2.920219   -0.003284
     64          1           0      -12.867436   -2.344817   -1.230610
     65          1           0        8.866402   -0.337341    0.454669
     66          1           0      -10.203173   -2.223899   -0.364196
     67          1           0       10.586609    1.666478   -1.972349
     68          1           0       12.243139    2.268002   -1.351147
     69          1           0       12.031946    1.220357   -2.862321
     70          1           0      -10.985968    2.659213   -2.036606
     71          1           0       -9.663806    0.949092   -1.976733
     72          1           0       -9.623593    2.397885   -0.936680
     73          1           0       14.630323   -3.180688   -0.146752
     74          1           0      -15.497674    1.574834    1.300391
     75          1           0        9.930825    2.325822   -0.022108
     76          1           0       -8.527156    0.463873    0.009246
     77          1           0        9.175102    4.033818    0.384205
     78          1           0        7.540213    4.511113   -0.349174
     79          1           0        7.591802    4.006668    1.382509
     80          1           0       -7.942892   -3.283841   -0.077194
     81          1           0       -8.292105   -3.015685   -1.760651
     82          1           0       -6.659302   -3.017743   -1.210463
     83          1           0        6.928185    0.606539    0.056356
     84          1           0       -6.380637    0.623009   -0.237034
     85          1           0        5.359263    3.128533    0.338100
     86          1           0       -5.111561   -2.247208   -1.190593
     87          1           0        4.718121    0.291443   -0.301358
     88          1           0       -4.012907    0.649966   -0.267921
     89          1           0        3.402222    3.337034    1.661801
     90          1           0        1.690622    3.396412    1.098086
     91          1           0        3.498328    3.889899   -0.118303
     92          1           0       -2.902761   -2.958355    0.198809
     93          1           0       -2.694969   -2.617843   -1.400178
     94          1           0       -1.216385   -2.580582   -0.373812
     95          1           0        2.346242   -0.213561   -0.328110
     96          1           0       -1.939439    1.241186    0.202522
     97          1           0        0.220442    1.929452    0.603735
     98          1           0        0.290783   -0.954874   -0.493395
 ---------------------------------------------------------------------

 SCF Done:  E(RCAM-B3LYP) =  -1706.90490484     A.U. after   15 cycles

 Excitation energies and oscillator strengths:

 Excited State   1:      Singlet-A      2.0433 eV  606.79 nm  f=3.7568  <S**2>=0.000
     155 ->158        -0.18651
     156 ->157         0.67955
 This state for optimization and/or second-order correction.
 Total Energy, E(TD-HF/TD-DFT) =  -1706.82981525
 Copying the excited state density for this state as the 1-particle RhoCI density.

 The electronic state is 1-A.
 Alpha  occ. eigenvalues --  -19.21490 -19.21299 -10.31127 -10.30547 -10.29302
 Alpha  occ. eigenvalues --  -10.28080 -10.28058 -10.28008 -10.27624 -10.27558
 Alpha  occ. eigenvalues --  -10.27513 -10.27288 -10.27250 -10.27243 -10.27191
 Alpha  occ. eigenvalues --  -10.27180 -10.27093 -10.26974 -10.26815 -10.26772
 Alpha  occ. eigenvalues --  -10.26536 -10.26459 -10.26456 -10.26361 -10.26347
 Alpha  occ. eigenvalues --  -10.26258 -10.26112 -10.26091 -10.25828 -10.25706
 Alpha  occ. eigenvalues --  -10.25639 -10.25569 -10.25528 -10.25524 -10.25368
 Alpha  occ. eigenvalues --  -10.25339 -10.25286 -10.25195 -10.25117 -10.25061
 Alpha  occ. eigenvalues --  -10.24929 -10.23815  -1.13384  -1.07125  -0.95067
 Alpha  occ. eigenvalues --   -0.94006  -0.91964  -0.91449  -0.90577  -0.89788
 Alpha  occ. eigenvalues --   -0.88066  -0.87687  -0.86704  -0.85593  -0.84962
 Alpha  occ. eigenvalues --   -0.83484  -0.82039  -0.80009  -0.79790  -0.77798
 Alpha  occ. eigenvalues --   -0.76665  -0.76532  -0.76204  -0.76046  -0.75123
 Alpha  occ. eigenvalues --   -0.74822  -0.74811  -0.74524  -0.73083  -0.70598
 Alpha  occ. eigenvalues --   -0.69991  -0.68250  -0.66017  -0.65191  -0.63648
 Alpha  occ. eigenvalues --   -0.62894  -0.62353  -0.61016  -0.60442  -0.60033
 Alpha  occ. eigenvalues --   -0.59725  -0.59320  -0.58589  -0.57617  -0.57040
 Alpha  occ. eigenvalues --   -0.56361  -0.55684  -0.55311  -0.54380  -0.53805
 Alpha  occ. eigenvalues --   -0.52927  -0.52589  -0.51872  -0.51799  -0.50825
 Alpha  occ. eigenvalues --   -0.50419  -0.50120  -0.49433  -0.48988  -0.48751
 Alpha  occ. eigenvalues --   -0.48672  -0.48301  -0.47926  -0.47764  -0.47497
 Alpha  occ. eigenvalues --   -0.47378  -0.47248  -0.47205  -0.46618  -0.46411
 Alpha  occ. eigenvalues --   -0.46349  -0.45597  -0.45213  -0.45193  -0.45045
 Alpha  occ. eigenvalues --   -0.44699  -0.44437  -0.43958  -0.43830  -0.43599
 Alpha  occ. eigenvalues --   -0.42960  -0.42892  -0.42532  -0.42037  -0.41732
 Alpha  occ. eigenvalues --   -0.41330  -0.41308  -0.41133  -0.40931  -0.40858
 Alpha  occ. eigenvalues --   -0.40608  -0.40350  -0.40023  -0.39412  -0.39358
 Alpha  occ. eigenvalues --   -0.39232  -0.39040  -0.38678  -0.37834  -0.37743
 Alpha  occ. eigenvalues --   -0.37555  -0.37213  -0.37065  -0.36873  -0.36203
 Alpha  occ. eigenvalues --   -0.35125  -0.34323  -0.33692  -0.32889  -0.32613
 Alpha  occ. eigenvalues --   -0.32062  -0.29711  -0.27961  -0.25353  -0.22005
 Alpha  occ. eigenvalues --   -0.18966
 Alpha virt. eigenvalues --   -0.05942  -0.02267   0.01608   0.05515   0.07575
 Alpha virt. eigenvalues --    0.09125   0.10190   0.10866   0.11161   0.11552
 Alpha virt. eigenvalues --    0.11993   0.12747   0.12978   0.13082   0.13364

 Mulliken charges:
               1
     1  O   -0.515879
     2  O   -0.572641
     3  C   -0.023142
     4  C    0.022255
     5  C   -0.190441
     6  C   -0.205896
     7  C    0.157083
     8  C    0.179542
     9  C    0.104637
    10  C    0.059326
    11  C   -0.220279
    12  C   -0.230761
    13  C    0.055110
    14  C    0.095731
    15  C   -0.293956
    16  C   -0.297384
    17  C   -0.286408
    18  C   -0.302367
    19  C   -0.121932
    20  C   -0.144944
    21  C   -0.367209
    22  C   -0.375306
    23  C   -0.025961
    24  C   -0.059319
    25  C    0.042967
    26  C    0.067132
    27  C   -0.363294
    28  C   -0.358652
    29  C   -0.122324
    30  C   -0.136095
    31  C   -0.073112
    32  C   -0.084346
    33  C   -0.108064
    34  C   -0.106003
    35  C    0.107233
    36  C    0.131705
    37  C   -0.363744
    38  C   -0.371382
    39  C   -0.127262
    40  C   -0.153296
    41  C   -0.060976
    42  C   -0.091374
    43  H    0.101323
    44  H    0.083480
    45  H    0.033172
    46  H    0.105902
    47  H    0.075624
    48  H    0.100227
    49  H    0.119627
    50  H    0.085007
    51  H    0.115063
    52  H    0.110451
    53  H    0.082976
    54  H    0.091530
    55  H    0.113187
    56  H    0.103060
    57  H    0.096106
    58  H    0.104006
    59  H    0.096672
    60  H    0.108016
    61  H    0.086781
    62  H    0.070593
    63  H    0.107709
    64  H    0.117913
    65  H    0.082830
    66  H    0.084954
    67  H    0.106603
    68  H    0.090856
    69  H    0.108977
    70  H    0.094407
    71  H    0.091904
    72  H    0.105518
    73  H    0.297740
    74  H    0.301631
    75  H    0.023528
    76  H    0.087935
    77  H    0.111594
    78  H    0.127123
    79  H    0.117206
    80  H    0.127700
    81  H    0.119499
    82  H    0.100955
    83  H    0.071150
    84  H    0.084194
    85  H    0.065072
    86  H    0.078362
    87  H    0.080092
    88  H    0.081007
    89  H    0.123588
    90  H    0.086353
    91  H    0.118171
    92  H    0.116090
    93  H    0.126845
    94  H    0.108641
    95  H    0.089254
    96  H    0.055197
    97  H    0.085919
    98  H    0.071711
 Sum of Mulliken charges =  -0.00000

 Dipole moment (field-independent basis, Debye):
    X=              0.2333    Y=             -2.2941    Z=              1.5029  Tot=              2.7525
 Quadrupole moment (field-independent basis, Debye-Ang):
   XX=           -265.8882   YY=           -242.1338   ZZ=           -264.9175
   XY=              8.2433   XZ=             -7.6081   YZ=              4.7158

 Normal termination of Gaussian 16 at Sun Jul 14 06:24:20 2019.
