 Gaussian 16, Revision A.03,
 Gaussian 16:  ES64L-G16RevA.03 25-Dec-2016

 -------------------------------------
 # td=(NStates=1) CAM-B3LYP/6-31G(d,p)
 -------------------------------------

 --
 TD
 --
 Symbolic Z-matrix:
 Charge =  0 Multiplicity = 1

                         Standard orientation:
 ---------------------------------------------------------------------
 Center     Atomic      Atomic             Coordinates (Angstroms)
 Number     Number       Type             X           Y           Z
 ---------------------------------------------------------------------
      1          8           0       14.618634   -2.351408   -0.488738
      2          8           0      -14.821620    1.813825    0.965822
      3          6           0       11.164982   -1.448741    1.007814
      4          6           0      -12.311002   -1.106685    0.640839
      5          6           0       12.638033   -1.898609    1.068340
      6          6           0      -13.768792   -0.336944    0.573431
      7          6           0       13.217556   -1.904011   -0.382789
      8          6           0      -13.617225    1.140524    0.853093
      9          6           0       11.071547   -0.246934    0.038081
     10          6           0      -11.238807   -0.223800   -0.175642
     11          6           0       13.266905   -0.604634   -0.946880
     12          6           0      -12.724706    1.733185   -0.215662
     13          6           0       11.928999    0.214067   -0.864081
     14          6           0      -11.504512    1.042724   -0.620567
     15          6           0       10.689236   -1.113120    2.513234
     16          6           0       10.348112   -2.684449    0.525595
     17          6           0      -11.770282   -1.414693    1.992875
     18          6           0      -12.523359   -2.382355   -0.020182
     19          6           0        9.675617    0.270369    0.174273
     20          6           0       -9.973455   -1.007659   -0.431541
     21          6           0       11.671193    1.276070   -1.743573
     22          6           0      -10.575726    1.724340   -1.486561
     23          6           0        9.396311    1.630548    0.120991
     24          6           0       -8.704873   -0.449785   -0.329523
     25          6           0        8.037561    2.214193    0.254994
     26          6           0       -7.570312   -1.107539   -0.634163
     27          6           0        7.946559    3.697880    0.678573
     28          6           0       -7.639525   -2.605189   -0.948840
     29          6           0        6.900557    1.602004   -0.073018
     30          6           0       -6.275302   -0.601519   -0.260476
     31          6           0        5.583065    2.054886    0.206482
     32          6           0       -5.054207   -1.054020   -0.496518
     33          6           0        4.434484    1.360321   -0.277628
     34          6           0       -3.990763   -0.249958   -0.263686
     35          6           0        3.117265    1.766911    0.012975
     36          6           0       -2.567989   -0.675161   -0.429473
     37          6           0        2.796381    3.148705    0.538593
     38          6           0       -2.298296   -2.087766   -1.016913
     39          6           0        2.159417    0.799136   -0.214190
     40          6           0       -1.554366    0.241185   -0.333101
     41          6           0        0.747510    0.995881   -0.117329
     42          6           0       -0.189690    0.084297   -0.393151
     43          1           0       13.430510   -1.158693    1.475956
     44          1           0       12.688467   -2.800283    1.495611
     45          1           0      -14.241632   -0.768071    1.601871
     46          1           0      -13.941951   -0.589431   -0.505375
     47          1           0       12.618035   -2.691624   -0.826029
     48          1           0      -13.272298    1.493910    1.861524
     49          1           0       14.094904    0.082169   -0.379682
     50          1           0       13.459171   -0.527755   -2.034647
     51          1           0      -13.534860    1.700434   -0.935646
     52          1           0      -12.321902    2.924358   -0.008227
     53          1           0       11.018016   -2.112674    3.261210
     54          1           0        9.654167   -0.853054    2.756728
     55          1           0       11.360661   -0.325352    2.759060
     56          1           0       10.471788   -3.325256   -0.339744
     57          1           0       10.337404   -3.241699    1.406971
     58          1           0        9.245095   -2.496111    0.501617
     59          1           0      -11.714992   -0.511712    2.627616
     60          1           0      -10.801791   -1.899901    1.872264
     61          1           0      -12.513020   -1.942032    2.507161
     62          1           0      -13.483279   -2.913757    0.238378
     63          1           0      -11.754611   -3.134115    0.350466
     64          1           0      -12.430036   -2.372672   -1.280659
     65          1           0        8.828985   -0.442351    0.368666
     66          1           0      -10.098360   -1.977387   -0.467563
     67          1           0       10.663816    1.739146   -1.702961
     68          1           0       12.324644    2.071378   -1.373146
     69          1           0       11.805509    0.837295   -2.935204
     70          1           0      -11.208495    2.840286   -1.768106
     71          1           0      -10.060915    1.008955   -2.408986
     72          1           0       -9.657902    1.989175   -0.906950
     73          1           0       14.550835   -3.345757   -0.137245
     74          1           0      -15.212179    1.690665    1.943397
     75          1           0       10.280830    2.457652    0.217830
     76          1           0       -8.725695    0.816206   -0.156221
     77          1           0        8.859592    4.059507    1.028623
     78          1           0        7.484003    4.044712   -0.170643
     79          1           0        7.384500    3.630893    1.671821
     80          1           0       -7.865609   -3.052427    0.197475
     81          1           0       -8.689953   -2.964126   -1.662937
     82          1           0       -6.802553   -3.247265   -1.375672
     83          1           0        6.990171    0.510282   -0.276714
     84          1           0       -6.429596    0.359406    0.334695
     85          1           0        5.457597    3.056776    0.497405
     86          1           0       -5.116632   -2.122839   -0.927232
     87          1           0        4.796512    0.521578   -0.777342
     88          1           0       -4.165354    0.873750    0.017261
     89          1           0        2.772450    3.375231    1.734775
     90          1           0        1.856341    3.551137    0.051520
     91          1           0        3.622876    3.869767    0.202172
     92          1           0       -2.857826   -2.856488   -0.314437
     93          1           0       -2.853252   -2.381006   -1.722943
     94          1           0       -1.298411   -2.210015   -1.083769
     95          1           0        2.311162   -0.134323   -0.852678
     96          1           0       -1.652899    1.403463   -0.169307
     97          1           0        0.170699    1.974160    0.231134
     98          1           0        0.162538   -0.945399   -0.678008
 ---------------------------------------------------------------------

 SCF Done:  E(RCAM-B3LYP) =  -1706.79874994     A.U. after   15 cycles

 Excitation energies and oscillator strengths:

 Excited State   1:      Singlet-A      2.2034 eV  562.70 nm  f=3.8407  <S**2>=0.000
     155 ->158        -0.17947
     156 ->157         0.68208
 This state for optimization and/or second-order correction.
 Total Energy, E(TD-HF/TD-DFT) =  -1706.71777784
 Copying the excited state density for this state as the 1-particle RhoCI density.

 The electronic state is 1-A.
 Alpha  occ. eigenvalues --  -19.21690 -19.21164 -10.30210 -10.30004 -10.29567
 Alpha  occ. eigenvalues --  -10.29074 -10.28263 -10.28101 -10.27977 -10.27912
 Alpha  occ. eigenvalues --  -10.27755 -10.27480 -10.27435 -10.27026 -10.27026
 Alpha  occ. eigenvalues --  -10.26925 -10.26893 -10.26870 -10.26852 -10.26816
 Alpha  occ. eigenvalues --  -10.26712 -10.26634 -10.26378 -10.26350 -10.26258
 Alpha  occ. eigenvalues --  -10.26240 -10.26211 -10.26184 -10.25988 -10.25926
 Alpha  occ. eigenvalues --  -10.25877 -10.25708 -10.25671 -10.25658 -10.25609
 Alpha  occ. eigenvalues --  -10.25093 -10.24863 -10.24797 -10.24743 -10.24689
 Alpha  occ. eigenvalues --  -10.24592 -10.23713  -1.09305  -1.06896  -0.93947
 Alpha  occ. eigenvalues --   -0.93324  -0.92368  -0.91850  -0.90887  -0.89797
 Alpha  occ. eigenvalues --   -0.88208  -0.88039  -0.87823  -0.85589  -0.84902
 Alpha  occ. eigenvalues --   -0.83136  -0.82330  -0.80468  -0.79335  -0.78676
 Alpha  occ. eigenvalues --   -0.76693  -0.76531  -0.76161  -0.75959  -0.75661
 Alpha  occ. eigenvalues --   -0.75173  -0.74498  -0.74166  -0.73158  -0.70678
 Alpha  occ. eigenvalues --   -0.68802  -0.66773  -0.65333  -0.64911  -0.64054
 Alpha  occ. eigenvalues --   -0.62904  -0.62063  -0.61390  -0.61013  -0.60157
 Alpha  occ. eigenvalues --   -0.59135  -0.58971  -0.58717  -0.57329  -0.56272
 Alpha  occ. eigenvalues --   -0.55820  -0.54872  -0.54392  -0.54093  -0.53514
 Alpha  occ. eigenvalues --   -0.53336  -0.52416  -0.52016  -0.51811  -0.51275
 Alpha  occ. eigenvalues --   -0.51164  -0.50971  -0.50448  -0.49696  -0.49471
 Alpha  occ. eigenvalues --   -0.49258  -0.48932  -0.48507  -0.48127  -0.47490
 Alpha  occ. eigenvalues --   -0.47296  -0.46657  -0.46469  -0.46317  -0.46236
 Alpha  occ. eigenvalues --   -0.45565  -0.45179  -0.45079  -0.44793  -0.44596
 Alpha  occ. eigenvalues --   -0.44218  -0.43773  -0.43519  -0.43497  -0.43396
 Alpha  occ. eigenvalues --   -0.43181  -0.42598  -0.42477  -0.42199  -0.41979
 Alpha  occ. eigenvalues --   -0.41669  -0.41271  -0.41131  -0.41027  -0.40830
 Alpha  occ. eigenvalues --   -0.40409  -0.39937  -0.39654  -0.39221  -0.38832
 Alpha  occ. eigenvalues --   -0.38769  -0.38673  -0.38446  -0.38125  -0.37804
 Alpha  occ. eigenvalues --   -0.37391  -0.37339  -0.36835  -0.35962  -0.35583
 Alpha  occ. eigenvalues --   -0.34262  -0.33992  -0.33231  -0.32233  -0.31576
 Alpha  occ. eigenvalues --   -0.31426  -0.29666  -0.28159  -0.26277  -0.22575
 Alpha  occ. eigenvalues --   -0.19448
 Alpha virt. eigenvalues --   -0.05794  -0.01832   0.02352   0.05625   0.07482
 Alpha virt. eigenvalues --    0.09177   0.09585   0.10426   0.10732   0.11172
 Alpha virt. eigenvalues --    0.11391   0.11855   0.12100   0.12335   0.12518

 Mulliken charges:
               1
     1  O   -0.564052
     2  O   -0.577727
     3  C   -0.032511
     4  C   -0.018790
     5  C   -0.176651
     6  C   -0.189632
     7  C    0.146487
     8  C    0.192388
     9  C    0.058483
    10  C    0.040991
    11  C   -0.189853
    12  C   -0.234044
    13  C    0.077739
    14  C    0.114724
    15  C   -0.291426
    16  C   -0.318161
    17  C   -0.292775
    18  C   -0.302017
    19  C   -0.111331
    20  C   -0.111282
    21  C   -0.367728
    22  C   -0.357917
    23  C   -0.134182
    24  C   -0.103995
    25  C    0.041321
    26  C    0.106936
    27  C   -0.359017
    28  C   -0.355090
    29  C   -0.116314
    30  C   -0.115213
    31  C   -0.097738
    32  C   -0.045533
    33  C   -0.100271
    34  C   -0.124158
    35  C    0.115291
    36  C    0.062924
    37  C   -0.365279
    38  C   -0.331208
    39  C   -0.136478
    40  C   -0.115040
    41  C   -0.087579
    42  C   -0.059974
    43  H    0.092994
    44  H    0.081169
    45  H    0.072595
    46  H    0.123407
    47  H    0.088020
    48  H    0.062486
    49  H    0.102004
    50  H    0.109358
    51  H    0.125307
    52  H    0.071482
    53  H    0.060253
    54  H    0.118078
    55  H    0.123084
    56  H    0.114186
    57  H    0.112613
    58  H    0.093132
    59  H    0.096478
    60  H    0.111063
    61  H    0.098816
    62  H    0.104570
    63  H    0.092216
    64  H    0.077150
    65  H    0.101071
    66  H    0.076351
    67  H    0.136470
    68  H    0.121800
    69  H    0.077816
    70  H    0.068264
    71  H    0.110249
    72  H    0.123202
    73  H    0.297730
    74  H    0.315398
    75  H    0.082396
    76  H    0.067242
    77  H    0.108582
    78  H    0.143810
    79  H    0.118701
    80  H    0.103993
    81  H    0.072491
    82  H    0.116370
    83  H    0.066691
    84  H    0.073603
    85  H    0.077930
    86  H    0.080270
    87  H    0.083341
    88  H    0.096390
    89  H    0.111958
    90  H    0.122627
    91  H    0.111287
    92  H    0.087367
    93  H    0.135564
    94  H    0.112801
    95  H    0.094090
    96  H    0.066011
    97  H    0.068492
    98  H    0.064863
 Sum of Mulliken charges =  -0.00000

 Dipole moment (field-independent basis, Debye):
    X=              0.4921    Y=             -1.6653    Z=              2.0663  Tot=              2.6991
 Quadrupole moment (field-independent basis, Debye-Ang):
   XX=           -296.5781   YY=           -242.7640   ZZ=           -261.5143
   XY=              9.5058   XZ=            -13.3180   YZ=              5.8099

 Normal termination of Gaussian 16 at Fri Jul 19 00:43:03 2019.
