 Gaussian 16, Revision A.03,
 Gaussian 16:  ES64L-G16RevA.03 25-Dec-2016

 -------------------------------------
 # td=(NStates=1) CAM-B3LYP/6-31G(d,p)
 -------------------------------------

 --
 TD
 --
 Symbolic Z-matrix:
 Charge =  0 Multiplicity = 1

                         Standard orientation:
 ---------------------------------------------------------------------
 Center     Atomic      Atomic             Coordinates (Angstroms)
 Number     Number       Type             X           Y           Z
 ---------------------------------------------------------------------
      1          8           0       14.736240   -2.285800   -0.253183
      2          8           0      -14.687355    1.981416    0.936526
      3          6           0       11.183512   -1.502508    0.845572
      4          6           0      -12.333928   -0.986309    0.764269
      5          6           0       12.650916   -1.924465    0.933121
      6          6           0      -13.700448   -0.255520    0.787210
      7          6           0       13.416914   -1.938853   -0.356036
      8          6           0      -13.512535    1.216046    0.968840
      9          6           0       11.075509   -0.215248   -0.054541
     10          6           0      -11.283507   -0.226186   -0.150145
     11          6           0       13.302837   -0.410666   -0.820591
     12          6           0      -12.723782    1.867672   -0.227580
     13          6           0       12.002241    0.198629   -0.841260
     14          6           0      -11.471419    1.055795   -0.633183
     15          6           0       10.792728   -1.153894    2.306477
     16          6           0       10.207791   -2.626417    0.441090
     17          6           0      -11.812951   -1.089514    2.251316
     18          6           0      -12.754410   -2.452859    0.203794
     19          6           0        9.759222    0.405408    0.168284
     20          6           0      -10.055125   -1.027870   -0.458967
     21          6           0       11.950461    1.500758   -1.607625
     22          6           0      -10.512712    1.796248   -1.560458
     23          6           0        9.395039    1.687620    0.090490
     24          6           0       -8.783187   -0.497656   -0.500454
     25          6           0        8.078394    2.192642    0.338639
     26          6           0       -7.712638   -1.317283   -0.674157
     27          6           0        7.931942    3.699451    0.669901
     28          6           0       -7.717986   -2.867413   -0.960225
     29          6           0        6.910677    1.543982    0.132689
     30          6           0       -6.446367   -0.699080   -0.486550
     31          6           0        5.528540    2.016694    0.287795
     32          6           0       -5.133107   -1.160099   -0.625991
     33          6           0        4.411153    1.216326    0.091567
     34          6           0       -3.977240   -0.337017   -0.477728
     35          6           0        3.123255    1.615545    0.114072
     36          6           0       -2.647759   -0.726856   -0.567526
     37          6           0        2.815831    3.100792    0.337746
     38          6           0       -2.380868   -2.241712   -0.914798
     39          6           0        2.084490    0.783560   -0.229242
     40          6           0       -1.596067    0.147426   -0.373527
     41          6           0        0.681288    0.882499   -0.255365
     42          6           0       -0.249060    0.021123   -0.482730
     43          1           0       13.151360   -1.251045    1.821641
     44          1           0       12.607519   -3.104017    1.548350
     45          1           0      -14.146272   -0.519659    1.657098
     46          1           0      -14.113226   -0.371834   -0.234280
     47          1           0       12.845379   -2.604021   -0.992156
     48          1           0      -12.902042    1.383506    1.833431
     49          1           0       14.115029    0.124076   -0.190146
     50          1           0       13.808361   -0.604882   -1.830547
     51          1           0      -13.448344    1.871709   -0.844627
     52          1           0      -12.489116    2.907754   -0.320702
     53          1           0       11.032248   -2.045698    2.951457
     54          1           0        9.744966   -1.004055    2.570761
     55          1           0       11.476684   -0.360570    2.768773
     56          1           0       10.635829   -3.159664   -0.530470
     57          1           0       10.167224   -3.531165    1.124851
     58          1           0        9.167295   -2.231399    0.410370
     59          1           0      -11.633512   -0.045418    2.574600
     60          1           0      -10.993308   -1.603986    2.175106
     61          1           0      -12.628968   -1.524642    2.787562
     62          1           0      -13.537787   -2.735283    0.733927
     63          1           0      -11.977913   -3.115020    0.351286
     64          1           0      -12.992338   -2.360503   -0.897833
     65          1           0        8.728870   -0.381638    0.452631
     66          1           0      -10.275732   -2.026677   -0.581920
     67          1           0       11.030389    1.918324   -1.872564
     68          1           0       12.314916    2.357249   -1.019881
     69          1           0       12.670968    1.383043   -2.569935
     70          1           0      -11.031089    2.346324   -2.466898
     71          1           0      -10.077426    1.128214   -2.255539
     72          1           0       -9.877301    2.483660   -1.111194
     73          1           0       14.575452   -3.322749   -0.127851
     74          1           0      -15.290379    1.909390    1.771724
     75          1           0       10.220480    2.429627   -0.086276
     76          1           0       -8.691101    0.654107   -0.496609
     77          1           0        8.861365    4.174263    0.628591
     78          1           0        7.273473    4.311928   -0.049776
     79          1           0        7.383053    4.026913    1.502260
     80          1           0       -8.317774   -3.336811   -0.288061
     81          1           0       -8.157915   -3.137929   -2.172488
     82          1           0       -6.557011   -3.215271   -0.852899
     83          1           0        6.986799    0.480583    0.025006
     84          1           0       -6.475223    0.382954   -0.432268
     85          1           0        5.539988    3.029182    0.466720
     86          1           0       -4.947041   -2.199125   -0.779846
     87          1           0        4.656257    0.174764    0.073787
     88          1           0       -4.090882    0.772340   -0.336013
     89          1           0        3.106238    3.257857    1.482576
     90          1           0        1.739788    3.368935   -0.126993
     91          1           0        3.588674    3.818311   -0.169961
     92          1           0       -2.809615   -3.124279   -0.225731
     93          1           0       -2.871468   -2.311389   -1.913730
     94          1           0       -1.316970   -2.610894   -1.111649
     95          1           0        2.420663   -0.213776   -0.481460
     96          1           0       -1.919408    1.150032   -0.073668
     97          1           0        0.309415    1.872877   -0.053659
     98          1           0        0.033515   -0.974195   -0.526803
 ---------------------------------------------------------------------

 SCF Done:  E(RCAM-B3LYP) =  -1706.95064738     A.U. after   15 cycles

 Excitation energies and oscillator strengths:

 Excited State   1:      Singlet-A      2.1310 eV  581.82 nm  f=3.9933  <S**2>=0.000
     155 ->158         0.15889
     156 ->157         0.68919
 This state for optimization and/or second-order correction.
 Total Energy, E(TD-HF/TD-DFT) =  -1706.87233525
 Copying the excited state density for this state as the 1-particle RhoCI density.

 The electronic state is 1-A.
 Alpha  occ. eigenvalues --  -19.23180 -19.21490 -10.30699 -10.29542 -10.28582
 Alpha  occ. eigenvalues --  -10.27935 -10.27898 -10.27868 -10.27824 -10.27802
 Alpha  occ. eigenvalues --  -10.27626 -10.27367 -10.27235 -10.27204 -10.26981
 Alpha  occ. eigenvalues --  -10.26920 -10.26749 -10.26552 -10.26400 -10.26351
 Alpha  occ. eigenvalues --  -10.26345 -10.26207 -10.26190 -10.26150 -10.26130
 Alpha  occ. eigenvalues --  -10.26114 -10.25883 -10.25804 -10.25765 -10.25752
 Alpha  occ. eigenvalues --  -10.25690 -10.25595 -10.25287 -10.25195 -10.24984
 Alpha  occ. eigenvalues --  -10.24857 -10.24815 -10.24380 -10.23944 -10.23806
 Alpha  occ. eigenvalues --  -10.23570 -10.22816  -1.11329  -1.08637  -0.94308
 Alpha  occ. eigenvalues --   -0.92827  -0.92460  -0.91660  -0.90779  -0.90156
 Alpha  occ. eigenvalues --   -0.88210  -0.87497  -0.86422  -0.85172  -0.84466
 Alpha  occ. eigenvalues --   -0.82805  -0.81786  -0.80061  -0.79258  -0.77752
 Alpha  occ. eigenvalues --   -0.77486  -0.76927  -0.76822  -0.75929  -0.75515
 Alpha  occ. eigenvalues --   -0.75207  -0.75119  -0.74464  -0.73820  -0.71586
 Alpha  occ. eigenvalues --   -0.69635  -0.67596  -0.66422  -0.65250  -0.64906
 Alpha  occ. eigenvalues --   -0.63728  -0.62843  -0.62195  -0.60884  -0.60019
 Alpha  occ. eigenvalues --   -0.59736  -0.59467  -0.59253  -0.57694  -0.56012
 Alpha  occ. eigenvalues --   -0.55799  -0.55223  -0.55088  -0.54683  -0.53787
 Alpha  occ. eigenvalues --   -0.53671  -0.52868  -0.52219  -0.52069  -0.50966
 Alpha  occ. eigenvalues --   -0.50438  -0.50202  -0.49993  -0.49643  -0.49120
 Alpha  occ. eigenvalues --   -0.48980  -0.48831  -0.48479  -0.47984  -0.47685
 Alpha  occ. eigenvalues --   -0.47612  -0.47116  -0.46966  -0.46595  -0.46293
 Alpha  occ. eigenvalues --   -0.45956  -0.45825  -0.45567  -0.45306  -0.45207
 Alpha  occ. eigenvalues --   -0.44957  -0.44477  -0.43930  -0.43757  -0.43594
 Alpha  occ. eigenvalues --   -0.43266  -0.43015  -0.42859  -0.42318  -0.42112
 Alpha  occ. eigenvalues --   -0.41975  -0.41689  -0.41571  -0.40850  -0.40817
 Alpha  occ. eigenvalues --   -0.40467  -0.40038  -0.39970  -0.39420  -0.38751
 Alpha  occ. eigenvalues --   -0.38593  -0.38392  -0.38237  -0.37950  -0.37685
 Alpha  occ. eigenvalues --   -0.37641  -0.37193  -0.36565  -0.36427  -0.36195
 Alpha  occ. eigenvalues --   -0.35443  -0.34338  -0.33754  -0.32674  -0.32096
 Alpha  occ. eigenvalues --   -0.32012  -0.30705  -0.28805  -0.26746  -0.23204
 Alpha  occ. eigenvalues --   -0.19241
 Alpha virt. eigenvalues --   -0.06268  -0.01615   0.02582   0.05602   0.08175
 Alpha virt. eigenvalues --    0.09418   0.10335   0.10671   0.11478   0.11779
 Alpha virt. eigenvalues --    0.12386   0.12793   0.13157   0.13386   0.13748

 Mulliken charges:
               1
     1  O   -0.533404
     2  O   -0.574451
     3  C    0.001475
     4  C   -0.063771
     5  C   -0.168478
     6  C   -0.150249
     7  C    0.157147
     8  C    0.156213
     9  C    0.088844
    10  C    0.038181
    11  C   -0.254394
    12  C   -0.215549
    13  C    0.087808
    14  C    0.046265
    15  C   -0.303855
    16  C   -0.288977
    17  C   -0.288726
    18  C   -0.306508
    19  C   -0.088340
    20  C   -0.145811
    21  C   -0.369695
    22  C   -0.389893
    23  C   -0.112814
    24  C   -0.084588
    25  C    0.093376
    26  C    0.114118
    27  C   -0.392313
    28  C   -0.332422
    29  C   -0.117928
    30  C   -0.128325
    31  C   -0.072315
    32  C   -0.087939
    33  C   -0.110198
    34  C   -0.132548
    35  C    0.147544
    36  C    0.136579
    37  C   -0.364831
    38  C   -0.380878
    39  C   -0.143227
    40  C   -0.148031
    41  C   -0.069372
    42  C   -0.037816
    43  H    0.084408
    44  H    0.011738
    45  H    0.082840
    46  H    0.102667
    47  H    0.081488
    48  H    0.075462
    49  H    0.120589
    50  H    0.101312
    51  H    0.130112
    52  H    0.099098
    53  H    0.094207
    54  H    0.104979
    55  H    0.095631
    56  H    0.081232
    57  H    0.101648
    58  H    0.106488
    59  H    0.106177
    60  H    0.115227
    61  H    0.098680
    62  H    0.113019
    63  H    0.100272
    64  H    0.103989
    65  H    0.057084
    66  H    0.083505
    67  H    0.130660
    68  H    0.121471
    69  H    0.089526
    70  H    0.086584
    71  H    0.134385
    72  H    0.132209
    73  H    0.315801
    74  H    0.304177
    75  H    0.086192
    76  H    0.100644
    77  H    0.106953
    78  H    0.104401
    79  H    0.130363
    80  H    0.134524
    81  H    0.083096
    82  H    0.097691
    83  H    0.058967
    84  H    0.073485
    85  H    0.068278
    86  H    0.082197
    87  H    0.085739
    88  H    0.081223
    89  H    0.111330
    90  H    0.106870
    91  H    0.109222
    92  H    0.106198
    93  H    0.124382
    94  H    0.106923
    95  H    0.066078
    96  H    0.067681
    97  H    0.062525
    98  H    0.068460
 Sum of Mulliken charges =  -0.00000

 Dipole moment (field-independent basis, Debye):
    X=             -1.8117    Y=             -1.5296    Z=              1.0803  Tot=              2.6055
 Quadrupole moment (field-independent basis, Debye-Ang):
   XX=           -256.8071   YY=           -240.4015   ZZ=           -262.1711
   XY=              5.6468   XZ=            -16.5746   YZ=              2.4177

 Normal termination of Gaussian 16 at Thu Jul 18 12:34:16 2019.
