 Gaussian 16, Revision A.03,
 Gaussian 16:  ES64L-G16RevA.03 25-Dec-2016

 -------------------------------------
 # td=(NStates=1) CAM-B3LYP/6-31G(d,p)
 -------------------------------------

 --
 TD
 --
 Symbolic Z-matrix:
 Charge =  0 Multiplicity = 1

                         Standard orientation:
 ---------------------------------------------------------------------
 Center     Atomic      Atomic             Coordinates (Angstroms)
 Number     Number       Type             X           Y           Z
 ---------------------------------------------------------------------
      1          8           0       14.680424   -2.312982   -0.188883
      2          8           0      -14.941761    1.728868    0.707645
      3          6           0       11.175254   -1.512542    0.903991
      4          6           0      -12.470596   -1.145881    0.592256
      5          6           0       12.639457   -1.963442    1.108774
      6          6           0      -13.747197   -0.378688    0.462878
      7          6           0       13.280800   -2.128014   -0.352093
      8          6           0      -13.726066    1.072292    0.859411
      9          6           0       10.862566   -0.356168   -0.135798
     10          6           0      -11.255654   -0.293133   -0.091192
     11          6           0       13.221366   -0.726368   -1.088599
     12          6           0      -12.744796    1.852701   -0.172717
     13          6           0       11.915383   -0.010730   -1.092970
     14          6           0      -11.459148    1.010748   -0.416204
     15          6           0       10.789489   -0.882848    2.425522
     16          6           0       10.187960   -2.642272    0.537612
     17          6           0      -11.992519   -1.409421    2.017858
     18          6           0      -12.519477   -2.461772   -0.129554
     19          6           0        9.688643    0.436638    0.136262
     20          6           0       -9.941783   -0.901762   -0.454231
     21          6           0       11.746202    1.034721   -2.106528
     22          6           0      -10.564186    1.845103   -1.352758
     23          6           0        9.431782    1.722956   -0.044520
     24          6           0       -8.734520   -0.432762   -0.424676
     25          6           0        8.123060    2.314819    0.135704
     26          6           0       -7.519914   -1.221641   -0.672131
     27          6           0        8.053600    3.809474    0.422825
     28          6           0       -7.640800   -2.692782   -0.990617
     29          6           0        6.967506    1.622816    0.141377
     30          6           0       -6.315154   -0.588663   -0.421072
     31          6           0        5.623270    2.067849    0.375802
     32          6           0       -5.064364   -1.058722   -0.643920
     33          6           0        4.514951    1.240795    0.332842
     34          6           0       -3.973585   -0.217188   -0.420178
     35          6           0        3.123476    1.788037    0.320670
     36          6           0       -2.587843   -0.603491   -0.400146
     37          6           0        2.961657    3.211748    0.563239
     38          6           0       -2.289120   -2.102491   -0.593114
     39          6           0        2.139534    0.842811    0.056346
     40          6           0       -1.552125    0.325166   -0.185561
     41          6           0        0.780971    1.188037   -0.037174
     42          6           0       -0.173057    0.163888   -0.273578
     43          1           0       13.574372   -1.336494    1.797498
     44          1           0       12.457496   -2.938925    1.648571
     45          1           0      -14.588563   -0.921995    1.105916
     46          1           0      -13.997265   -0.467259   -0.574060
     47          1           0       12.928236   -2.881432   -0.924354
     48          1           0      -13.387501    1.137298    1.952388
     49          1           0       14.058800   -0.083353   -0.634471
     50          1           0       13.518538   -0.963381   -2.031872
     51          1           0      -13.136110    1.935571   -1.052106
     52          1           0      -12.347123    2.821568    0.194109
     53          1           0       11.287040   -1.726735    3.096984
     54          1           0        9.656048   -1.027762    2.477976
     55          1           0       11.170109    0.231174    2.408227
     56          1           0       10.356794   -2.868107   -0.556463
     57          1           0       10.438011   -3.297540    1.279271
     58          1           0        8.962708   -2.637343    0.652788
     59          1           0      -11.750455   -0.399410    2.466798
     60          1           0      -11.295609   -2.125816    2.131442
     61          1           0      -13.093980   -1.618340    2.421291
     62          1           0      -13.559322   -3.023222    0.223058
     63          1           0      -11.723207   -3.147299    0.005184
     64          1           0      -12.569930   -2.362734   -1.196960
     65          1           0        8.690226   -0.087376    0.385833
     66          1           0      -10.143357   -2.077839   -0.538692
     67          1           0       10.518674    1.152052   -2.243804
     68          1           0       12.402205    1.994766   -2.026373
     69          1           0       11.968622    0.624741   -3.027054
     70          1           0      -11.179133    2.721830   -2.026303
     71          1           0       -9.930875    1.100038   -1.989118
     72          1           0       -9.559248    2.369366   -0.740317
     73          1           0       14.713978   -3.257864    0.172425
     74          1           0      -15.703570    1.346185    1.280731
     75          1           0       10.249783    2.302726   -0.375082
     76          1           0       -8.512422    0.707939   -0.212449
     77          1           0        8.945739    4.117656    0.445704
     78          1           0        7.573344    4.261733   -0.412203
     79          1           0        7.400344    4.071371    1.336426
     80          1           0       -7.813369   -3.409656   -0.115005
     81          1           0       -8.404898   -2.904730   -1.779577
     82          1           0       -6.794081   -3.057907   -1.345827
     83          1           0        6.913839    0.448475    0.219879
     84          1           0       -6.360955    0.595249   -0.215531
     85          1           0        5.612610    3.113165    0.957184
     86          1           0       -4.869801   -2.107668   -1.011803
     87          1           0        4.526817    0.196315   -0.175275
     88          1           0       -4.336697    0.899533   -0.403642
     89          1           0        3.690616    3.392045    1.441928
     90          1           0        1.829800    3.463200    0.743331
     91          1           0        3.295775    3.956550   -0.285478
     92          1           0       -2.771523   -2.630919    0.258620
     93          1           0       -2.603210   -2.352719   -1.579210
     94          1           0       -1.150317   -2.179728   -0.666149
     95          1           0        2.471353    0.039300   -0.093838
     96          1           0       -1.852450    1.411780   -0.017160
     97          1           0        0.301636    2.054295    0.340865
     98          1           0        0.282020   -0.818355   -0.708571
 ---------------------------------------------------------------------

 SCF Done:  E(RCAM-B3LYP) =  -1706.86538129     A.U. after   15 cycles

 Excitation energies and oscillator strengths:

 Excited State   1:      Singlet-A      2.2400 eV  553.50 nm  f=3.7009  <S**2>=0.000
     155 ->158        -0.15592
     156 ->157         0.68774
 This state for optimization and/or second-order correction.
 Total Energy, E(TD-HF/TD-DFT) =  -1706.78306247
 Copying the excited state density for this state as the 1-particle RhoCI density.

 The electronic state is 1-A.
 Alpha  occ. eigenvalues --  -19.21554 -19.21437 -10.31299 -10.30269 -10.28346
 Alpha  occ. eigenvalues --  -10.28228 -10.28057 -10.27799 -10.27727 -10.27438
 Alpha  occ. eigenvalues --  -10.27390 -10.27331 -10.27329 -10.27305 -10.27165
 Alpha  occ. eigenvalues --  -10.27060 -10.27008 -10.26826 -10.26737 -10.26735
 Alpha  occ. eigenvalues --  -10.26696 -10.26412 -10.26388 -10.26257 -10.26213
 Alpha  occ. eigenvalues --  -10.26171 -10.26053 -10.25969 -10.25923 -10.25916
 Alpha  occ. eigenvalues --  -10.25842 -10.25693 -10.25673 -10.25613 -10.25358
 Alpha  occ. eigenvalues --  -10.25199 -10.25038 -10.24954 -10.24688 -10.24574
 Alpha  occ. eigenvalues --  -10.24221 -10.24112  -1.09122  -1.09120  -0.93044
 Alpha  occ. eigenvalues --   -0.92305  -0.91880  -0.91462  -0.90454  -0.89637
 Alpha  occ. eigenvalues --   -0.87395  -0.86521  -0.86382  -0.85332  -0.84316
 Alpha  occ. eigenvalues --   -0.82786  -0.81691  -0.79942  -0.79707  -0.78776
 Alpha  occ. eigenvalues --   -0.76383  -0.76296  -0.76214  -0.75492  -0.75314
 Alpha  occ. eigenvalues --   -0.75137  -0.73957  -0.73341  -0.72926  -0.70180
 Alpha  occ. eigenvalues --   -0.68478  -0.67623  -0.66131  -0.64455  -0.63345
 Alpha  occ. eigenvalues --   -0.62176  -0.61995  -0.61320  -0.59806  -0.59574
 Alpha  occ. eigenvalues --   -0.58912  -0.58273  -0.58241  -0.57526  -0.56433
 Alpha  occ. eigenvalues --   -0.55601  -0.55494  -0.54988  -0.53942  -0.53023
 Alpha  occ. eigenvalues --   -0.52395  -0.52126  -0.51503  -0.51130  -0.50699
 Alpha  occ. eigenvalues --   -0.50561  -0.50156  -0.49704  -0.49278  -0.48883
 Alpha  occ. eigenvalues --   -0.48595  -0.48559  -0.48119  -0.47704  -0.47610
 Alpha  occ. eigenvalues --   -0.47542  -0.47127  -0.46923  -0.46443  -0.46064
 Alpha  occ. eigenvalues --   -0.45889  -0.45509  -0.45093  -0.44912  -0.44705
 Alpha  occ. eigenvalues --   -0.44430  -0.43904  -0.43820  -0.43696  -0.43268
 Alpha  occ. eigenvalues --   -0.43203  -0.43012  -0.42384  -0.42301  -0.42207
 Alpha  occ. eigenvalues --   -0.41994  -0.41616  -0.41108  -0.41064  -0.40678
 Alpha  occ. eigenvalues --   -0.40493  -0.40130  -0.40045  -0.39243  -0.39017
 Alpha  occ. eigenvalues --   -0.38807  -0.38704  -0.38391  -0.38134  -0.37432
 Alpha  occ. eigenvalues --   -0.36675  -0.36361  -0.36158  -0.36104  -0.35480
 Alpha  occ. eigenvalues --   -0.35067  -0.33812  -0.33294  -0.32538  -0.32300
 Alpha  occ. eigenvalues --   -0.30791  -0.29258  -0.27651  -0.25440  -0.23234
 Alpha  occ. eigenvalues --   -0.19332
 Alpha virt. eigenvalues --   -0.05564  -0.01074   0.02296   0.05269   0.07467
 Alpha virt. eigenvalues --    0.09862   0.10653   0.10762   0.11335   0.11719
 Alpha virt. eigenvalues --    0.12033   0.12162   0.12307   0.12691   0.13085

 Mulliken charges:
               1
     1  O   -0.553741
     2  O   -0.561321
     3  C   -0.034871
     4  C    0.000395
     5  C   -0.175688
     6  C   -0.190799
     7  C    0.142160
     8  C    0.186746
     9  C    0.037217
    10  C    0.051142
    11  C   -0.215413
    12  C   -0.206600
    13  C    0.052045
    14  C    0.027762
    15  C   -0.296954
    16  C   -0.290161
    17  C   -0.266507
    18  C   -0.306616
    19  C   -0.089503
    20  C   -0.142772
    21  C   -0.372013
    22  C   -0.346717
    23  C   -0.102007
    24  C   -0.073813
    25  C    0.058336
    26  C    0.094056
    27  C   -0.347577
    28  C   -0.365203
    29  C   -0.124305
    30  C   -0.119496
    31  C   -0.088843
    32  C   -0.075037
    33  C   -0.139304
    34  C   -0.121273
    35  C    0.108394
    36  C    0.067954
    37  C   -0.364143
    38  C   -0.361576
    39  C   -0.022567
    40  C   -0.121866
    41  C   -0.097129
    42  C   -0.087645
    43  H    0.094037
    44  H    0.079270
    45  H    0.060856
    46  H    0.111142
    47  H    0.095693
    48  H    0.065160
    49  H    0.122054
    50  H    0.113488
    51  H    0.132586
    52  H    0.114976
    53  H    0.081831
    54  H    0.099914
    55  H    0.120029
    56  H    0.107342
    57  H    0.105689
    58  H    0.090284
    59  H    0.105730
    60  H    0.116360
    61  H    0.069153
    62  H    0.069376
    63  H    0.113894
    64  H    0.113629
    65  H    0.072109
    66  H    0.059028
    67  H    0.103381
    68  H    0.108891
    69  H    0.119192
    70  H    0.087154
    71  H    0.120297
    72  H    0.073624
    73  H    0.300924
    74  H    0.304158
    75  H    0.089368
    76  H    0.079328
    77  H    0.110181
    78  H    0.129648
    79  H    0.111494
    80  H    0.112967
    81  H    0.115401
    82  H    0.116249
    83  H    0.076593
    84  H    0.070095
    85  H    0.075048
    86  H    0.091915
    87  H    0.086381
    88  H    0.079462
    89  H    0.113514
    90  H    0.097840
    91  H    0.119379
    92  H    0.131179
    93  H    0.129691
    94  H    0.098999
    95  H    0.024840
    96  H    0.078133
    97  H    0.089524
    98  H    0.076774
 Sum of Mulliken charges =  -0.00000

 Dipole moment (field-independent basis, Debye):
    X=              0.0865    Y=             -2.4594    Z=              0.1165  Tot=              2.4637
 Quadrupole moment (field-independent basis, Debye-Ang):
   XX=           -255.4484   YY=           -241.6618   ZZ=           -264.8530
   XY=              6.4197   XZ=            -10.2780   YZ=              1.8088

 Normal termination of Gaussian 16 at Sun Jul 14 08:05:58 2019.
