 Gaussian 16, Revision A.03,
 Gaussian 16:  ES64L-G16RevA.03 25-Dec-2016

 -------------------------------------
 # td=(NStates=1) CAM-B3LYP/6-31G(d,p)
 -------------------------------------

 --
 TD
 --
 Symbolic Z-matrix:
 Charge =  0 Multiplicity = 1

                         Standard orientation:
 ---------------------------------------------------------------------
 Center     Atomic      Atomic             Coordinates (Angstroms)
 Number     Number       Type             X           Y           Z
 ---------------------------------------------------------------------
      1          8           0       14.821122   -2.195086   -0.419963
      2          8           0      -14.915989    1.668001    1.104357
      3          6           0       11.395829   -1.476907    1.122402
      4          6           0      -12.386388   -0.994339    0.629067
      5          6           0       12.852782   -1.865300    1.109855
      6          6           0      -13.594650   -0.311470    0.840843
      7          6           0       13.366352   -1.826576   -0.235641
      8          6           0      -13.491579    1.200777    1.101376
      9          6           0       11.020416   -0.294484    0.150528
     10          6           0      -11.283307   -0.167375   -0.161340
     11          6           0       13.258823   -0.482518   -1.009263
     12          6           0      -12.714907    1.842601   -0.118114
     13          6           0       11.848919    0.112078   -0.852006
     14          6           0      -11.521053    1.055343   -0.520540
     15          6           0       10.971956   -1.087295    2.540730
     16          6           0       10.413132   -2.520616    0.627039
     17          6           0      -11.833181   -1.344662    2.037586
     18          6           0      -12.813813   -2.372621   -0.242410
     19          6           0        9.758785    0.413548    0.267911
     20          6           0      -10.057307   -1.079768   -0.413222
     21          6           0       11.619771    1.203800   -1.856223
     22          6           0      -10.599118    1.850165   -1.390368
     23          6           0        9.345564    1.705340    0.173917
     24          6           0       -8.891335   -0.523363   -0.146732
     25          6           0        7.982398    2.281725    0.208550
     26          6           0       -7.620482   -1.118565   -0.621204
     27          6           0        7.854088    3.728580    0.378345
     28          6           0       -7.665075   -2.527884   -1.140342
     29          6           0        6.853221    1.480436    0.137559
     30          6           0       -6.365050   -0.489103   -0.472032
     31          6           0        5.546813    1.949680    0.168600
     32          6           0       -5.106147   -1.029717   -0.697646
     33          6           0        4.400094    1.191888   -0.133161
     34          6           0       -3.909182   -0.356636   -0.500658
     35          6           0        3.152224    1.602047    0.035049
     36          6           0       -2.604425   -0.757853   -0.587320
     37          6           0        2.717815    3.086160    0.310658
     38          6           0       -2.334298   -2.264078   -1.129321
     39          6           0        2.121521    0.656988   -0.183876
     40          6           0       -1.609874    0.140222   -0.281306
     41          6           0        0.836844    0.974945   -0.065798
     42          6           0       -0.148564    0.020031   -0.327662
     43          1           0       13.329722   -0.972929    1.555579
     44          1           0       12.838123   -2.884510    1.586210
     45          1           0      -14.193998   -0.922883    1.546928
     46          1           0      -14.151142   -0.498507   -0.109382
     47          1           0       12.744274   -2.471490   -0.962502
     48          1           0      -13.151685    1.390030    2.027537
     49          1           0       14.013106    0.072210   -0.708145
     50          1           0       13.472340   -0.527575   -2.083511
     51          1           0      -13.528522    1.850169   -0.847786
     52          1           0      -12.426822    2.785060   -0.008983
     53          1           0       11.076600   -1.851129    3.349458
     54          1           0        9.903119   -0.738807    2.320539
     55          1           0       11.447102   -0.256523    2.804110
     56          1           0       10.626310   -2.698105   -0.387625
     57          1           0       10.644282   -3.450897    1.069192
     58          1           0        9.297827   -2.313534    0.830785
     59          1           0      -11.675556   -0.296234    2.397866
     60          1           0      -10.963833   -1.933031    1.986854
     61          1           0      -12.540337   -1.891016    2.585530
     62          1           0      -13.588502   -2.611237    0.335599
     63          1           0      -12.066262   -3.152293   -0.131376
     64          1           0      -12.842920   -1.967903   -1.225426
     65          1           0        8.988512   -0.144946    0.622979
     66          1           0      -10.160349   -1.999254   -1.050783
     67          1           0       10.460120    1.426255   -2.092279
     68          1           0       11.949993    2.226215   -1.558931
     69          1           0       12.313387    0.563209   -2.576682
     70          1           0      -11.336676    2.329132   -1.998969
     71          1           0       -9.898277    1.187641   -1.893676
     72          1           0       -9.894630    2.657417   -0.915671
     73          1           0       14.955607   -3.042556    0.098056
     74          1           0      -15.294089    1.368546    1.818336
     75          1           0       10.081158    2.345490    0.055674
     76          1           0       -8.961606    0.483766    0.302377
     77          1           0        8.923338    3.952025    0.458354
     78          1           0        7.433437    4.172725   -0.510687
     79          1           0        7.065012    4.041165    1.060878
     80          1           0       -8.241605   -3.232705   -0.410225
     81          1           0       -8.082825   -2.585699   -2.264353
     82          1           0       -6.619239   -2.842965   -1.396927
     83          1           0        6.961229    0.318099    0.358469
     84          1           0       -6.352287    0.567652   -0.506122
     85          1           0        5.307081    3.089205    0.347633
     86          1           0       -4.952265   -2.192953   -0.825160
     87          1           0        4.692851    0.111478   -0.107760
     88          1           0       -4.058466    0.721918   -0.372176
     89          1           0        2.818061    3.138341    1.642645
     90          1           0        1.712259    3.430403   -0.235084
     91          1           0        3.642411    3.774936   -0.013559
     92          1           0       -2.427945   -2.904052   -0.088806
     93          1           0       -2.968770   -2.589836   -1.777816
     94          1           0       -1.105960   -2.348227   -1.556281
     95          1           0        2.173799   -0.432126   -0.199321
     96          1           0       -2.042407    1.159935    0.035499
     97          1           0        0.646846    2.008366    0.238810
     98          1           0        0.162328   -0.832151   -0.618018
 ---------------------------------------------------------------------

 SCF Done:  E(RCAM-B3LYP) =  -1706.86527947     A.U. after   15 cycles

 Excitation energies and oscillator strengths:

 Excited State   1:      Singlet-A      1.9548 eV  634.27 nm  f=3.7281  <S**2>=0.000
     155 ->158         0.13505
     156 ->157         0.69873
     156 <-157        -0.11098
 This state for optimization and/or second-order correction.
 Total Energy, E(TD-HF/TD-DFT) =  -1706.79344335
 Copying the excited state density for this state as the 1-particle RhoCI density.

 The electronic state is 1-A.
 Alpha  occ. eigenvalues --  -19.21266 -19.19121 -10.31043 -10.30678 -10.30490
 Alpha  occ. eigenvalues --  -10.28202 -10.27909 -10.27859 -10.27682 -10.27670
 Alpha  occ. eigenvalues --  -10.27652 -10.27172 -10.27110 -10.26999 -10.26823
 Alpha  occ. eigenvalues --  -10.26760 -10.26704 -10.26499 -10.26389 -10.26370
 Alpha  occ. eigenvalues --  -10.26262 -10.25962 -10.25910 -10.25844 -10.25842
 Alpha  occ. eigenvalues --  -10.25801 -10.25710 -10.25680 -10.25629 -10.25624
 Alpha  occ. eigenvalues --  -10.25521 -10.25394 -10.25351 -10.25331 -10.25008
 Alpha  occ. eigenvalues --  -10.24916 -10.24666 -10.24346 -10.24257 -10.23725
 Alpha  occ. eigenvalues --  -10.23537 -10.23128  -1.09045  -1.06311  -0.94802
 Alpha  occ. eigenvalues --   -0.93997  -0.93009  -0.91723  -0.91301  -0.89900
 Alpha  occ. eigenvalues --   -0.88432  -0.88105  -0.87758  -0.86298  -0.85541
 Alpha  occ. eigenvalues --   -0.83108  -0.82153  -0.81259  -0.79826  -0.77874
 Alpha  occ. eigenvalues --   -0.77517  -0.76936  -0.76790  -0.76225  -0.75837
 Alpha  occ. eigenvalues --   -0.75628  -0.75485  -0.75398  -0.73273  -0.70844
 Alpha  occ. eigenvalues --   -0.69468  -0.68534  -0.66987  -0.66106  -0.63901
 Alpha  occ. eigenvalues --   -0.63342  -0.62966  -0.61795  -0.60139  -0.59399
 Alpha  occ. eigenvalues --   -0.59198  -0.59147  -0.59005  -0.58453  -0.56703
 Alpha  occ. eigenvalues --   -0.56507  -0.56285  -0.54896  -0.54633  -0.53659
 Alpha  occ. eigenvalues --   -0.53075  -0.52828  -0.52595  -0.52386  -0.52060
 Alpha  occ. eigenvalues --   -0.50995  -0.50609  -0.49968  -0.49508  -0.49433
 Alpha  occ. eigenvalues --   -0.49233  -0.48735  -0.48472  -0.48436  -0.47912
 Alpha  occ. eigenvalues --   -0.47825  -0.47479  -0.47165  -0.46973  -0.46488
 Alpha  occ. eigenvalues --   -0.46255  -0.45990  -0.45581  -0.45153  -0.44877
 Alpha  occ. eigenvalues --   -0.44716  -0.44669  -0.44564  -0.44234  -0.43535
 Alpha  occ. eigenvalues --   -0.43346  -0.43157  -0.42958  -0.42606  -0.42312
 Alpha  occ. eigenvalues --   -0.41980  -0.41622  -0.41480  -0.41342  -0.41110
 Alpha  occ. eigenvalues --   -0.40702  -0.40418  -0.40330  -0.39734  -0.39597
 Alpha  occ. eigenvalues --   -0.39207  -0.38930  -0.38469  -0.38316  -0.37382
 Alpha  occ. eigenvalues --   -0.37117  -0.37029  -0.36913  -0.36584  -0.36115
 Alpha  occ. eigenvalues --   -0.34884  -0.34546  -0.33910  -0.32366  -0.32274
 Alpha  occ. eigenvalues --   -0.31599  -0.30012  -0.28789  -0.26873  -0.23557
 Alpha  occ. eigenvalues --   -0.18624
 Alpha virt. eigenvalues --   -0.06830  -0.01374   0.02464   0.06086   0.08101
 Alpha virt. eigenvalues --    0.09538   0.10499   0.11102   0.11466   0.11625
 Alpha virt. eigenvalues --    0.12138   0.12592   0.12832   0.12963   0.13391

 Mulliken charges:
               1
     1  O   -0.581094
     2  O   -0.558761
     3  C   -0.046894
     4  C   -0.039071
     5  C   -0.170367
     6  C   -0.189128
     7  C    0.148818
     8  C    0.138799
     9  C    0.068804
    10  C    0.010068
    11  C   -0.231591
    12  C   -0.220627
    13  C    0.024287
    14  C    0.057828
    15  C   -0.278090
    16  C   -0.292225
    17  C   -0.286602
    18  C   -0.318043
    19  C   -0.102829
    20  C   -0.115219
    21  C   -0.334499
    22  C   -0.364689
    23  C   -0.110584
    24  C   -0.084042
    25  C    0.094816
    26  C    0.082486
    27  C   -0.373929
    28  C   -0.365524
    29  C   -0.122588
    30  C   -0.118232
    31  C   -0.097661
    32  C   -0.092437
    33  C   -0.105511
    34  C   -0.119540
    35  C    0.103233
    36  C    0.125372
    37  C   -0.346710
    38  C   -0.332300
    39  C   -0.104417
    40  C   -0.147211
    41  C   -0.044972
    42  C   -0.091286
    43  H    0.113685
    44  H    0.100540
    45  H    0.078593
    46  H    0.099289
    47  H    0.074443
    48  H    0.096311
    49  H    0.134748
    50  H    0.112629
    51  H    0.136535
    52  H    0.117215
    53  H    0.096687
    54  H    0.086923
    55  H    0.113410
    56  H    0.113620
    57  H    0.090257
    58  H    0.103673
    59  H    0.090188
    60  H    0.105365
    61  H    0.092847
    62  H    0.109909
    63  H    0.093517
    64  H    0.118673
    65  H    0.062579
    66  H    0.107831
    67  H    0.109311
    68  H    0.123285
    69  H    0.087726
    70  H    0.113088
    71  H    0.123180
    72  H    0.097349
    73  H    0.300605
    74  H    0.285488
    75  H    0.062780
    76  H    0.096199
    77  H    0.109265
    78  H    0.131368
    79  H    0.132748
    80  H    0.113054
    81  H    0.103752
    82  H    0.108498
    83  H    0.076018
    84  H    0.085979
    85  H    0.056908
    86  H    0.071970
    87  H    0.082272
    88  H    0.075140
    89  H    0.093761
    90  H    0.128380
    91  H    0.104430
    92  H    0.106344
    93  H    0.133695
    94  H    0.080101
    95  H    0.086003
    96  H    0.074152
    97  H    0.076723
    98  H    0.053124
 Sum of Mulliken charges =  -0.00000

 Dipole moment (field-independent basis, Debye):
    X=              1.1067    Y=             -1.0045    Z=              1.8993  Tot=              2.4169
 Quadrupole moment (field-independent basis, Debye-Ang):
   XX=           -294.9487   YY=           -242.9098   ZZ=           -262.4533
   XY=              6.1855   XZ=              7.7729   YZ=             -0.9802

 Normal termination of Gaussian 16 at Wed Jul 17 08:24:58 2019.
