 Gaussian 16, Revision A.03,
 Gaussian 16:  ES64L-G16RevA.03 25-Dec-2016

 -------------------------------------
 # td=(NStates=1) CAM-B3LYP/6-31G(d,p)
 -------------------------------------

 --
 TD
 --
 Symbolic Z-matrix:
 Charge =  0 Multiplicity = 1

                         Standard orientation:
 ---------------------------------------------------------------------
 Center     Atomic      Atomic             Coordinates (Angstroms)
 Number     Number       Type             X           Y           Z
 ---------------------------------------------------------------------
      1          8           0       14.720013   -2.163656   -0.278774
      2          8           0      -14.699681    2.001470    1.055225
      3          6           0       11.241770   -1.495966    0.959031
      4          6           0      -12.390912   -1.029613    0.615879
      5          6           0       12.630730   -1.921029    1.105931
      6          6           0      -13.741923   -0.282676    0.647661
      7          6           0       13.324891   -1.890017   -0.256616
      8          6           0      -13.518856    1.237393    0.968284
      9          6           0       11.002893   -0.176015    0.105028
     10          6           0      -11.317183   -0.247167   -0.175314
     11          6           0       13.236389   -0.505197   -0.873160
     12          6           0      -12.679164    1.843192   -0.163338
     13          6           0       11.897389    0.211907   -0.760627
     14          6           0      -11.382208    1.095338   -0.486829
     15          6           0       10.727621   -1.228205    2.504835
     16          6           0       10.299879   -2.621000    0.443578
     17          6           0      -11.794539   -1.330044    2.009663
     18          6           0      -12.750898   -2.467567   -0.107664
     19          6           0        9.610371    0.257493    0.230447
     20          6           0      -10.075602   -0.990323   -0.366339
     21          6           0       11.681424    1.261578   -1.842762
     22          6           0      -10.460395    1.817039   -1.357258
     23          6           0        9.252246    1.545066    0.174814
     24          6           0       -8.864262   -0.541795   -0.288250
     25          6           0        8.053808    2.296851    0.179071
     26          6           0       -7.544004   -1.169222   -0.641704
     27          6           0        8.115870    3.755775    0.618608
     28          6           0       -7.645839   -2.719875   -0.956853
     29          6           0        6.806286    1.579548   -0.092485
     30          6           0       -6.334214   -0.603225   -0.456417
     31          6           0        5.582788    2.064754    0.036294
     32          6           0       -4.997102   -1.138719   -0.516488
     33          6           0        4.411805    1.366345   -0.104789
     34          6           0       -3.906353   -0.402493   -0.394934
     35          6           0        3.033535    1.744884    0.095284
     36          6           0       -2.583425   -0.785905   -0.623853
     37          6           0        2.786339    3.171150    0.301252
     38          6           0       -2.358633   -2.220547   -1.002572
     39          6           0        2.067868    0.714321   -0.091234
     40          6           0       -1.517666    0.103389   -0.287753
     41          6           0        0.728973    0.974369   -0.069835
     42          6           0       -0.159497   -0.063151   -0.431104
     43          1           0       13.183391   -1.243085    1.921079
     44          1           0       12.739995   -2.928581    1.620055
     45          1           0      -14.450296   -0.650964    1.546136
     46          1           0      -14.475452   -0.188604   -0.187630
     47          1           0       12.856268   -2.650962   -1.027449
     48          1           0      -12.836772    1.264568    1.752214
     49          1           0       13.752212    0.206179   -0.450642
     50          1           0       13.408573   -0.496037   -1.790247
     51          1           0      -13.436500    1.725933   -0.963595
     52          1           0      -12.336060    2.962249   -0.022749
     53          1           0       11.219454   -2.155988    3.039097
     54          1           0        9.635634   -1.163395    2.464566
     55          1           0       11.056563   -0.223489    2.863558
     56          1           0       10.760461   -2.917798   -0.532659
     57          1           0       10.055701   -3.484421    1.068226
     58          1           0        9.256731   -2.112492    0.162441
     59          1           0      -11.478902   -0.375185    2.463793
     60          1           0      -10.823953   -1.757090    1.892512
     61          1           0      -12.493298   -1.887346    2.287944
     62          1           0      -13.349409   -2.969739    0.631135
     63          1           0      -11.735434   -2.973602   -0.124993
     64          1           0      -12.996974   -2.251545   -1.183753
     65          1           0        8.825510   -0.465514    0.279985
     66          1           0      -10.266787   -2.166147   -0.729327
     67          1           0       10.661918    1.523456   -2.023399
     68          1           0       12.417091    2.215524   -1.538691
     69          1           0       12.234094    0.707638   -2.729750
     70          1           0      -10.909233    2.681904   -2.053465
     71          1           0       -9.836158    1.144083   -1.940023
     72          1           0       -9.739232    2.522745   -0.873856
     73          1           0       14.916947   -3.184695   -0.267641
     74          1           0      -15.321866    1.644677    1.625714
     75          1           0       10.127687    2.101087    0.206286
     76          1           0       -8.674518    0.300158    0.244586
     77          1           0        9.163249    4.344609    0.624652
     78          1           0        7.486387    4.290700   -0.056416
     79          1           0        7.612764    4.120477    1.702998
     80          1           0       -7.728088   -3.304239   -0.058658
     81          1           0       -8.613965   -2.647057   -1.734651
     82          1           0       -6.781713   -3.201683   -1.493998
     83          1           0        7.085952    0.481911   -0.347094
     84          1           0       -6.314003    0.602486   -0.364950
     85          1           0        5.447411    3.040346    0.313622
     86          1           0       -5.030328   -2.246168   -0.853609
     87          1           0        4.497961    0.313991   -0.525726
     88          1           0       -4.174686    0.550512    0.130644
     89          1           0        3.609515    3.678030    1.140406
     90          1           0        1.641566    3.360437    0.796576
     91          1           0        2.937688    3.809364   -0.716786
     92          1           0       -3.120037   -2.712045   -0.475766
     93          1           0       -2.509382   -2.276546   -2.017862
     94          1           0       -1.331886   -2.705795   -0.653445
     95          1           0        2.279027   -0.195616   -0.436748
     96          1           0       -1.754387    1.017871    0.073101
     97          1           0        0.475083    1.837004    0.157956
     98          1           0        0.190598   -0.878432   -0.930180
 ---------------------------------------------------------------------

 SCF Done:  E(RCAM-B3LYP) =  -1706.88230517     A.U. after   15 cycles

 Excitation energies and oscillator strengths:

 Excited State   1:      Singlet-A      1.9741 eV  628.05 nm  f=3.5621  <S**2>=0.000
     155 ->158         0.13264
     156 ->157         0.69957
     156 <-157        -0.11158
 This state for optimization and/or second-order correction.
 Total Energy, E(TD-HF/TD-DFT) =  -1706.80975754
 Copying the excited state density for this state as the 1-particle RhoCI density.

 The electronic state is 1-A.
 Alpha  occ. eigenvalues --  -19.21387 -19.21159 -10.31422 -10.30137 -10.29453
 Alpha  occ. eigenvalues --  -10.28195 -10.28093 -10.28048 -10.27754 -10.27657
 Alpha  occ. eigenvalues --  -10.27426 -10.27194 -10.27041 -10.26916 -10.26855
 Alpha  occ. eigenvalues --  -10.26772 -10.26630 -10.26512 -10.26507 -10.26472
 Alpha  occ. eigenvalues --  -10.26369 -10.26059 -10.25966 -10.25942 -10.25849
 Alpha  occ. eigenvalues --  -10.25847 -10.25769 -10.25640 -10.25497 -10.25404
 Alpha  occ. eigenvalues --  -10.25394 -10.25305 -10.25203 -10.25159 -10.25126
 Alpha  occ. eigenvalues --  -10.25114 -10.25043 -10.24880 -10.24793 -10.24174
 Alpha  occ. eigenvalues --  -10.23208 -10.22228  -1.10536  -1.07953  -0.93669
 Alpha  occ. eigenvalues --   -0.93360  -0.92911  -0.91948  -0.90656  -0.89531
 Alpha  occ. eigenvalues --   -0.88212  -0.87234  -0.86969  -0.86212  -0.85098
 Alpha  occ. eigenvalues --   -0.83351  -0.82323  -0.80458  -0.79583  -0.79091
 Alpha  occ. eigenvalues --   -0.76797  -0.76028  -0.75820  -0.75489  -0.75386
 Alpha  occ. eigenvalues --   -0.74838  -0.74552  -0.74236  -0.73179  -0.70924
 Alpha  occ. eigenvalues --   -0.69102  -0.68018  -0.66534  -0.65902  -0.64995
 Alpha  occ. eigenvalues --   -0.63688  -0.63047  -0.62288  -0.60405  -0.59673
 Alpha  occ. eigenvalues --   -0.59496  -0.59368  -0.58640  -0.58111  -0.57043
 Alpha  occ. eigenvalues --   -0.56894  -0.55729  -0.55251  -0.54389  -0.53629
 Alpha  occ. eigenvalues --   -0.53188  -0.52794  -0.52050  -0.51812  -0.50858
 Alpha  occ. eigenvalues --   -0.50733  -0.50390  -0.49952  -0.49588  -0.49312
 Alpha  occ. eigenvalues --   -0.48720  -0.48493  -0.48313  -0.47993  -0.47770
 Alpha  occ. eigenvalues --   -0.47545  -0.47205  -0.47001  -0.46675  -0.46221
 Alpha  occ. eigenvalues --   -0.45819  -0.45536  -0.45433  -0.45209  -0.44969
 Alpha  occ. eigenvalues --   -0.44830  -0.44697  -0.44569  -0.43496  -0.43398
 Alpha  occ. eigenvalues --   -0.42741  -0.42548  -0.42448  -0.42212  -0.42089
 Alpha  occ. eigenvalues --   -0.41829  -0.41327  -0.41238  -0.40960  -0.40679
 Alpha  occ. eigenvalues --   -0.40481  -0.40386  -0.39939  -0.39499  -0.39180
 Alpha  occ. eigenvalues --   -0.39071  -0.38655  -0.38522  -0.38223  -0.37855
 Alpha  occ. eigenvalues --   -0.37405  -0.36754  -0.36556  -0.36169  -0.35669
 Alpha  occ. eigenvalues --   -0.35240  -0.34496  -0.33927  -0.32769  -0.31722
 Alpha  occ. eigenvalues --   -0.31602  -0.29711  -0.28455  -0.26042  -0.23633
 Alpha  occ. eigenvalues --   -0.18765
 Alpha virt. eigenvalues --   -0.06805  -0.00956   0.02289   0.05904   0.08060
 Alpha virt. eigenvalues --    0.09705   0.10559   0.11684   0.11906   0.12092
 Alpha virt. eigenvalues --    0.12404   0.13046   0.13208   0.13627   0.13839

 Mulliken charges:
               1
     1  O   -0.574579
     2  O   -0.550601
     3  C   -0.008920
     4  C   -0.052320
     5  C   -0.191932
     6  C   -0.190620
     7  C    0.168334
     8  C    0.157819
     9  C    0.051274
    10  C    0.060031
    11  C   -0.143736
    12  C   -0.210468
    13  C   -0.001930
    14  C    0.076726
    15  C   -0.299491
    16  C   -0.294937
    17  C   -0.269230
    18  C   -0.307892
    19  C   -0.093399
    20  C   -0.140283
    21  C   -0.335554
    22  C   -0.382864
    23  C   -0.132620
    24  C   -0.073845
    25  C    0.089708
    26  C    0.060697
    27  C   -0.368803
    28  C   -0.355520
    29  C   -0.106712
    30  C   -0.135403
    31  C   -0.059391
    32  C   -0.078632
    33  C   -0.120667
    34  C   -0.099169
    35  C    0.118089
    36  C    0.068127
    37  C   -0.362810
    38  C   -0.366133
    39  C   -0.091279
    40  C   -0.102851
    41  C   -0.022574
    42  C   -0.087202
    43  H    0.092421
    44  H    0.080819
    45  H    0.052746
    46  H    0.106429
    47  H    0.063338
    48  H    0.083873
    49  H    0.134188
    50  H    0.096380
    51  H    0.114383
    52  H    0.090888
    53  H    0.085311
    54  H    0.101714
    55  H    0.103364
    56  H    0.093317
    57  H    0.106924
    58  H    0.082972
    59  H    0.108409
    60  H    0.117710
    61  H    0.100157
    62  H    0.110543
    63  H    0.093063
    64  H    0.119413
    65  H    0.082166
    66  H    0.069178
    67  H    0.135661
    68  H    0.090743
    69  H    0.094811
    70  H    0.095762
    71  H    0.130715
    72  H    0.111570
    73  H    0.306543
    74  H    0.299374
    75  H    0.074981
    76  H    0.087348
    77  H    0.105366
    78  H    0.129911
    79  H    0.095820
    80  H    0.130980
    81  H    0.095294
    82  H    0.102685
    83  H    0.078193
    84  H    0.057842
    85  H    0.070599
    86  H    0.074985
    87  H    0.069101
    88  H    0.089609
    89  H    0.092891
    90  H    0.088799
    91  H    0.125537
    92  H    0.130449
    93  H    0.137023
    94  H    0.099146
    95  H    0.075411
    96  H    0.069600
    97  H    0.044817
    98  H    0.080291
 Sum of Mulliken charges =  -0.00000

 Dipole moment (field-independent basis, Debye):
    X=             -0.1977    Y=             -1.7707    Z=              0.2561  Tot=              1.8000
 Quadrupole moment (field-independent basis, Debye-Ang):
   XX=           -270.9006   YY=           -243.4558   ZZ=           -263.9863
   XY=              4.3385   XZ=            -18.0831   YZ=              2.6228

 Normal termination of Gaussian 16 at Fri Jul 19 16:28:07 2019.
