 Gaussian 16, Revision A.03,
 Gaussian 16:  ES64L-G16RevA.03 25-Dec-2016

 -------------------------------------
 # td=(NStates=1) CAM-B3LYP/6-31G(d,p)
 -------------------------------------

 --
 TD
 --
 Symbolic Z-matrix:
 Charge =  0 Multiplicity = 1

                         Standard orientation:
 ---------------------------------------------------------------------
 Center     Atomic      Atomic             Coordinates (Angstroms)
 Number     Number       Type             X           Y           Z
 ---------------------------------------------------------------------
      1          8           0       14.713582   -2.179254    0.033372
      2          8           0      -14.641804    2.141752    1.170501
      3          6           0       11.148217   -1.413530    1.067444
      4          6           0      -12.460347   -1.040461    0.818763
      5          6           0       12.684866   -1.806146    1.200386
      6          6           0      -13.743507   -0.117852    0.885070
      7          6           0       13.277492   -1.909341   -0.144336
      8          6           0      -13.493367    1.333300    1.006301
      9          6           0       11.010757   -0.164420    0.173652
     10          6           0      -11.292391   -0.273926   -0.093516
     11          6           0       13.276562   -0.521268   -0.816657
     12          6           0      -12.683531    1.842223   -0.176286
     13          6           0       11.953054    0.101723   -0.742079
     14          6           0      -11.401993    0.951813   -0.470600
     15          6           0       10.716618   -1.027163    2.435712
     16          6           0       10.393687   -2.627921    0.667858
     17          6           0      -11.821274   -1.218401    2.184097
     18          6           0      -12.806708   -2.378835    0.102386
     19          6           0        9.731507    0.458430    0.267005
     20          6           0      -10.105272   -1.153037   -0.361881
     21          6           0       11.788077    1.190152   -1.895098
     22          6           0      -10.502455    1.746375   -1.445128
     23          6           0        9.417531    1.812855    0.046077
     24          6           0       -8.777725   -0.614697   -0.308365
     25          6           0        8.034439    2.315001    0.139011
     26          6           0       -7.519909   -1.207717   -0.635207
     27          6           0        7.887083    3.705626    0.464361
     28          6           0       -7.552107   -2.683178   -1.117813
     29          6           0        6.901027    1.490777   -0.036910
     30          6           0       -6.383452   -0.528848   -0.514450
     31          6           0        5.591339    2.033507    0.090565
     32          6           0       -5.096828   -1.112413   -0.822061
     33          6           0        4.452343    1.241539   -0.132096
     34          6           0       -3.935498   -0.375174   -0.631159
     35          6           0        3.062975    1.681679   -0.002570
     36          6           0       -2.648080   -0.826261   -0.887126
     37          6           0        2.787713    3.001465    0.505306
     38          6           0       -2.381431   -2.298033   -1.182537
     39          6           0        2.040108    0.811012   -0.414146
     40          6           0       -1.590531   -0.020092   -0.499579
     41          6           0        0.695498    0.910001   -0.275343
     42          6           0       -0.144875   -0.125808   -0.629743
     43          1           0       13.334720   -1.165554    1.883769
     44          1           0       12.810737   -2.697356    1.577255
     45          1           0      -14.398288   -0.595449    1.650586
     46          1           0      -14.210415   -0.469396   -0.021472
     47          1           0       12.533891   -2.601446   -0.800147
     48          1           0      -12.695377    1.453669    1.892028
     49          1           0       14.038099    0.075943   -0.125369
     50          1           0       13.530871   -0.807961   -1.902395
     51          1           0      -13.385892    2.156972   -0.991742
     52          1           0      -12.290381    2.938656    0.055234
     53          1           0       10.861103   -1.825197    3.127776
     54          1           0        9.538009   -0.897863    2.542059
     55          1           0       11.268577   -0.111933    2.711692
     56          1           0       10.464413   -3.028629   -0.271309
     57          1           0       10.209672   -3.469606    1.251743
     58          1           0        9.306058   -2.288856    0.635985
     59          1           0      -11.499972   -0.382321    2.738529
     60          1           0      -11.015473   -2.074836    2.128845
     61          1           0      -12.588285   -1.726524    2.689706
     62          1           0      -13.562919   -2.768215    0.653975
     63          1           0      -11.966714   -3.079837    0.228926
     64          1           0      -12.982076   -2.286923   -0.869621
     65          1           0        8.875799   -0.172245    0.726671
     66          1           0      -10.244271   -2.122046   -0.501569
     67          1           0       10.827072    1.230868   -2.036469
     68          1           0       12.316822    2.162023   -1.743906
     69          1           0       12.211504    0.669392   -2.851193
     70          1           0      -11.046681    2.261118   -2.241739
     71          1           0       -9.331288    1.245378   -1.882711
     72          1           0      -10.187266    2.531895   -0.644502
     73          1           0       14.702921   -3.095769    0.220142
     74          1           0      -14.997810    1.837916    2.008896
     75          1           0       10.214872    2.399473   -0.048752
     76          1           0       -8.741049    0.484051   -0.079981
     77          1           0        8.790826    4.392608    0.831247
     78          1           0        7.440453    4.334585   -0.372562
     79          1           0        6.969838    3.746168    1.229322
     80          1           0       -7.912315   -3.432391   -0.315788
     81          1           0       -8.266428   -2.985028   -1.907477
     82          1           0       -6.461214   -2.936705   -1.478327
     83          1           0        6.994251    0.515253   -0.542322
     84          1           0       -6.414142    0.337921   -0.079642
     85          1           0        5.427862    3.118857    0.241716
     86          1           0       -4.967219   -2.132676   -1.122255
     87          1           0        4.637447    0.227478   -0.248939
     88          1           0       -4.082612    0.723180    0.092763
     89          1           0        3.323670    3.096392    1.416274
     90          1           0        1.735787    3.161471    0.726432
     91          1           0        3.112015    4.013969   -0.173680
     92          1           0       -2.463886   -3.147899   -0.279772
     93          1           0       -3.255064   -2.826559   -1.886181
     94          1           0       -1.246073   -2.563854   -1.853149
     95          1           0        2.408288   -0.110665   -0.965093
     96          1           0       -1.880995    1.056056   -0.336116
     97          1           0        0.248942    1.954108   -0.112919
     98          1           0        0.327706   -1.119358   -1.121306
 ---------------------------------------------------------------------

 SCF Done:  E(RCAM-B3LYP) =  -1706.91725119     A.U. after   15 cycles

 Excitation energies and oscillator strengths:

 Excited State   1:      Singlet-A      2.1770 eV  569.53 nm  f=3.6356  <S**2>=0.000
     155 ->158         0.16729
     156 ->157         0.68388
 This state for optimization and/or second-order correction.
 Total Energy, E(TD-HF/TD-DFT) =  -1706.83724914
 Copying the excited state density for this state as the 1-particle RhoCI density.

 The electronic state is 1-A.
 Alpha  occ. eigenvalues --  -19.21881 -19.21571 -10.31260 -10.30849 -10.30574
 Alpha  occ. eigenvalues --  -10.28155 -10.28007 -10.27993 -10.27829 -10.27721
 Alpha  occ. eigenvalues --  -10.27518 -10.27416 -10.27343 -10.27163 -10.27013
 Alpha  occ. eigenvalues --  -10.26932 -10.26897 -10.26845 -10.26784 -10.26642
 Alpha  occ. eigenvalues --  -10.26551 -10.26453 -10.26423 -10.26267 -10.26236
 Alpha  occ. eigenvalues --  -10.26132 -10.26091 -10.26040 -10.25965 -10.25911
 Alpha  occ. eigenvalues --  -10.25786 -10.25776 -10.25645 -10.25402 -10.25022
 Alpha  occ. eigenvalues --  -10.24862 -10.24687 -10.24535 -10.24227 -10.23918
 Alpha  occ. eigenvalues --  -10.23630 -10.23614  -1.10439  -1.09538  -0.94471
 Alpha  occ. eigenvalues --   -0.92530  -0.92091  -0.91609  -0.90639  -0.89800
 Alpha  occ. eigenvalues --   -0.87655  -0.87072  -0.86629  -0.85563  -0.84633
 Alpha  occ. eigenvalues --   -0.82965  -0.81867  -0.80264  -0.79170  -0.77733
 Alpha  occ. eigenvalues --   -0.77592  -0.77362  -0.76582  -0.75636  -0.75537
 Alpha  occ. eigenvalues --   -0.75300  -0.75027  -0.74255  -0.72812  -0.70293
 Alpha  occ. eigenvalues --   -0.68879  -0.67257  -0.65286  -0.64888  -0.63970
 Alpha  occ. eigenvalues --   -0.63532  -0.62334  -0.61231  -0.60595  -0.60161
 Alpha  occ. eigenvalues --   -0.59516  -0.59147  -0.58860  -0.57205  -0.55469
 Alpha  occ. eigenvalues --   -0.55379  -0.55099  -0.55005  -0.54389  -0.53750
 Alpha  occ. eigenvalues --   -0.53010  -0.52671  -0.52254  -0.51760  -0.50933
 Alpha  occ. eigenvalues --   -0.50625  -0.50345  -0.49413  -0.49341  -0.49053
 Alpha  occ. eigenvalues --   -0.48750  -0.48447  -0.48043  -0.47607  -0.47333
 Alpha  occ. eigenvalues --   -0.46954  -0.46936  -0.46550  -0.46416  -0.46180
 Alpha  occ. eigenvalues --   -0.45929  -0.45556  -0.45237  -0.45180  -0.44943
 Alpha  occ. eigenvalues --   -0.44701  -0.44553  -0.44281  -0.44067  -0.43616
 Alpha  occ. eigenvalues --   -0.43214  -0.42910  -0.42111  -0.42018  -0.41645
 Alpha  occ. eigenvalues --   -0.41501  -0.41430  -0.41104  -0.40661  -0.40561
 Alpha  occ. eigenvalues --   -0.40513  -0.40289  -0.40166  -0.39742  -0.39653
 Alpha  occ. eigenvalues --   -0.39374  -0.39116  -0.38891  -0.38054  -0.37844
 Alpha  occ. eigenvalues --   -0.37083  -0.36958  -0.36826  -0.35811  -0.35408
 Alpha  occ. eigenvalues --   -0.34821  -0.34640  -0.33277  -0.32734  -0.32353
 Alpha  occ. eigenvalues --   -0.32156  -0.30276  -0.28578  -0.26025  -0.22992
 Alpha  occ. eigenvalues --   -0.19496
 Alpha virt. eigenvalues --   -0.05871  -0.01557   0.01604   0.05302   0.07921
 Alpha virt. eigenvalues --    0.09692   0.10111   0.10878   0.11408   0.11868
 Alpha virt. eigenvalues --    0.12004   0.12578   0.12936   0.13173   0.13415

 Mulliken charges:
               1
     1  O   -0.548571
     2  O   -0.546643
     3  C   -0.038585
     4  C   -0.040675
     5  C   -0.141167
     6  C   -0.184989
     7  C    0.103066
     8  C    0.177706
     9  C    0.113225
    10  C    0.060118
    11  C   -0.191863
    12  C   -0.225488
    13  C    0.002793
    14  C    0.024125
    15  C   -0.289943
    16  C   -0.317955
    17  C   -0.284399
    18  C   -0.314979
    19  C   -0.121943
    20  C   -0.101889
    21  C   -0.341225
    22  C   -0.329749
    23  C   -0.110318
    24  C   -0.136254
    25  C    0.114361
    26  C    0.136281
    27  C   -0.392483
    28  C   -0.369519
    29  C   -0.128838
    30  C   -0.085858
    31  C   -0.092197
    32  C   -0.098384
    33  C   -0.123468
    34  C   -0.106471
    35  C    0.117665
    36  C    0.125949
    37  C   -0.375720
    38  C   -0.336571
    39  C   -0.121730
    40  C   -0.130624
    41  C   -0.074703
    42  C   -0.087959
    43  H    0.092830
    44  H    0.080284
    45  H    0.074962
    46  H    0.105561
    47  H    0.073993
    48  H    0.055920
    49  H    0.122574
    50  H    0.103132
    51  H    0.117085
    52  H    0.086825
    53  H    0.100408
    54  H    0.077438
    55  H    0.106970
    56  H    0.110490
    57  H    0.117900
    58  H    0.083220
    59  H    0.119092
    60  H    0.088139
    61  H    0.094850
    62  H    0.108751
    63  H    0.099293
    64  H    0.127011
    65  H    0.092988
    66  H    0.069430
    67  H    0.131879
    68  H    0.117351
    69  H    0.086418
    70  H    0.120490
    71  H    0.083606
    72  H    0.104366
    73  H    0.301005
    74  H    0.308280
    75  H    0.085420
    76  H    0.081747
    77  H    0.104885
    78  H    0.122796
    79  H    0.112282
    80  H    0.109374
    81  H    0.118439
    82  H    0.092159
    83  H    0.097474
    84  H    0.069960
    85  H    0.089165
    86  H    0.088061
    87  H    0.078640
    88  H    0.065699
    89  H    0.128447
    90  H    0.109821
    91  H    0.091879
    92  H    0.112262
    93  H    0.086618
    94  H    0.073817
    95  H    0.078909
    96  H    0.079359
    97  H    0.093980
    98  H    0.082135
 Sum of Mulliken charges =  -0.00000

 Dipole moment (field-independent basis, Debye):
    X=              0.2466    Y=             -2.3208    Z=              1.2632  Tot=              2.6538
 Quadrupole moment (field-independent basis, Debye-Ang):
   XX=           -270.6295   YY=           -239.9989   ZZ=           -262.4215
   XY=              9.2276   XZ=            -14.0395   YZ=              3.0419

 Normal termination of Gaussian 16 at Mon Jul 15 19:26:07 2019.
