 Gaussian 16, Revision A.03,
 Gaussian 16:  ES64L-G16RevA.03 25-Dec-2016

 -------------------------------------
 # td=(NStates=1) CAM-B3LYP/6-31G(d,p)
 -------------------------------------

 --
 TD
 --
 Symbolic Z-matrix:
 Charge =  0 Multiplicity = 1

                         Standard orientation:
 ---------------------------------------------------------------------
 Center     Atomic      Atomic             Coordinates (Angstroms)
 Number     Number       Type             X           Y           Z
 ---------------------------------------------------------------------
      1          8           0       14.733918   -2.228232    0.031105
      2          8           0      -14.668283    1.892259    1.180464
      3          6           0       11.171165   -1.523666    0.838513
      4          6           0      -12.368292   -1.004376    0.634482
      5          6           0       12.597741   -1.890659    1.080521
      6          6           0      -13.576346   -0.237781    0.768724
      7          6           0       13.403495   -1.881311   -0.171512
      8          6           0      -13.426189    1.210550    1.103181
      9          6           0       10.990049   -0.125141    0.014257
     10          6           0      -11.230479   -0.165913   -0.160611
     11          6           0       13.340419   -0.402643   -0.750691
     12          6           0      -12.633299    1.846355   -0.038188
     13          6           0       11.998216    0.280202   -0.714752
     14          6           0      -11.507953    1.049805   -0.614142
     15          6           0       10.633564   -1.323472    2.275335
     16          6           0       10.350293   -2.702287    0.257287
     17          6           0      -11.866477   -1.406326    2.074054
     18          6           0      -12.613750   -2.408414   -0.073663
     19          6           0        9.610567    0.376810    0.110151
     20          6           0       -9.996554   -0.895633   -0.471471
     21          6           0       11.769844    1.457187   -1.688464
     22          6           0      -10.563138    1.934791   -1.303283
     23          6           0        9.326891    1.627960    0.164042
     24          6           0       -8.768468   -0.423967   -0.363081
     25          6           0        8.046864    2.271397    0.339410
     26          6           0       -7.552341   -1.151676   -0.679314
     27          6           0        7.877742    3.756954    0.560373
     28          6           0       -7.690122   -2.620645   -0.927532
     29          6           0        6.856649    1.579200    0.128416
     30          6           0       -6.372275   -0.533632   -0.493834
     31          6           0        5.490644    2.099576    0.144113
     32          6           0       -5.091052   -1.123972   -0.751295
     33          6           0        4.515594    1.231785    0.151232
     34          6           0       -3.984269   -0.295346   -0.668354
     35          6           0        3.095391    1.679677    0.071379
     36          6           0       -2.609107   -0.839525   -0.742080
     37          6           0        2.663301    3.207152    0.179278
     38          6           0       -2.483350   -2.386114   -1.069294
     39          6           0        2.106671    0.636403   -0.262820
     40          6           0       -1.495548    0.072456   -0.428775
     41          6           0        0.726432    0.818912   -0.091623
     42          6           0       -0.291372   -0.130026   -0.528684
     43          1           0       13.322662   -1.250790    1.734448
     44          1           0       12.719830   -2.892535    1.524737
     45          1           0      -14.313997   -1.012613    1.442492
     46          1           0      -13.982480   -0.257572   -0.281983
     47          1           0       12.938618   -2.445100   -1.017843
     48          1           0      -12.769534    1.245428    1.967248
     49          1           0       14.031794    0.251851   -0.209058
     50          1           0       13.638753   -0.681684   -1.770770
     51          1           0      -13.408632    2.092976   -0.694886
     52          1           0      -12.481036    2.898083    0.188971
     53          1           0       10.836821   -2.078653    2.999607
     54          1           0        9.542274   -0.961409    2.253406
     55          1           0       11.255700   -0.403289    2.544932
     56          1           0       10.837001   -3.077575   -0.662187
     57          1           0       10.439394   -3.583590    0.837649
     58          1           0        9.253300   -2.341210   -0.146647
     59          1           0      -11.708613   -0.535605    2.865307
     60          1           0      -10.906757   -1.920812    1.877390
     61          1           0      -12.453557   -2.163009    2.611238
     62          1           0      -13.324278   -3.077560    0.544295
     63          1           0      -11.644950   -3.120504    0.024908
     64          1           0      -12.771743   -2.082103   -1.167294
     65          1           0        8.686069   -0.392742    0.127967
     66          1           0      -10.250718   -2.010442   -0.806260
     67          1           0       10.605639    1.630672   -1.884978
     68          1           0       12.244044    2.435490   -1.373580
     69          1           0       12.146662    1.325051   -2.633745
     70          1           0      -11.056587    2.713823   -1.871592
     71          1           0       -9.900494    1.462870   -2.073748
     72          1           0       -9.811581    2.350434   -0.672210
     73          1           0       14.823849   -3.000068    0.519708
     74          1           0      -15.274964    1.698941    1.915291
     75          1           0        9.934032    2.305331    0.301355
     76          1           0       -8.417466    0.511132   -0.003814
     77          1           0        8.751771    4.295412    0.570268
     78          1           0        7.211751    4.063757   -0.018609
     79          1           0        7.396935    3.792238    1.602515
     80          1           0       -7.752080   -3.385967    0.077005
     81          1           0       -8.589787   -3.024256   -1.609297
     82          1           0       -6.696330   -2.872114   -1.568033
     83          1           0        6.957732    0.376911   -0.197011
     84          1           0       -6.494029    0.489242   -0.159277
     85          1           0        5.674990    3.167071    0.216032
     86          1           0       -4.974281   -2.157783   -1.082141
     87          1           0        4.788613    0.097652   -0.220529
     88          1           0       -4.148564    0.656514   -0.550797
     89          1           0        2.783957    3.450417    1.359060
     90          1           0        1.651984    3.551249   -0.019586
     91          1           0        3.414232    3.884018   -0.465517
     92          1           0       -2.987463   -2.926042   -0.354456
     93          1           0       -2.507932   -2.539391   -2.068428
     94          1           0       -1.499083   -2.786137   -0.669705
     95          1           0        2.619440   -0.473644   -0.344172
     96          1           0       -1.984874    0.902535   -0.022641
     97          1           0        0.182662    1.651127    0.222301
     98          1           0        0.189305   -1.146123   -0.807590
 ---------------------------------------------------------------------

 SCF Done:  E(RCAM-B3LYP) =  -1706.86123177     A.U. after   15 cycles

 Excitation energies and oscillator strengths:

 Excited State   1:      Singlet-A      1.9759 eV  627.47 nm  f=3.3874  <S**2>=0.000
     155 ->158        -0.11770
     156 ->157         0.70488
     156 <-157        -0.13039
 This state for optimization and/or second-order correction.
 Total Energy, E(TD-HF/TD-DFT) =  -1706.78861766
 Copying the excited state density for this state as the 1-particle RhoCI density.

 The electronic state is 1-A.
 Alpha  occ. eigenvalues --  -19.21117 -19.21074 -10.30120 -10.30058 -10.29442
 Alpha  occ. eigenvalues --  -10.28584 -10.28521 -10.28362 -10.28188 -10.27812
 Alpha  occ. eigenvalues --  -10.27418 -10.27355 -10.27262 -10.26717 -10.26561
 Alpha  occ. eigenvalues --  -10.26452 -10.26348 -10.26336 -10.26332 -10.26330
 Alpha  occ. eigenvalues --  -10.26163 -10.26145 -10.25994 -10.25946 -10.25782
 Alpha  occ. eigenvalues --  -10.25647 -10.25550 -10.25517 -10.25451 -10.25192
 Alpha  occ. eigenvalues --  -10.25177 -10.25136 -10.25120 -10.25092 -10.24998
 Alpha  occ. eigenvalues --  -10.24884 -10.24742 -10.24289 -10.24133 -10.24071
 Alpha  occ. eigenvalues --  -10.23901 -10.23394  -1.11331  -1.08778  -0.93658
 Alpha  occ. eigenvalues --   -0.93528  -0.92032  -0.91719  -0.91135  -0.89254
 Alpha  occ. eigenvalues --   -0.87815  -0.87159  -0.86828  -0.85569  -0.84784
 Alpha  occ. eigenvalues --   -0.83486  -0.81735  -0.81283  -0.79635  -0.78443
 Alpha  occ. eigenvalues --   -0.76270  -0.75972  -0.75696  -0.75477  -0.75226
 Alpha  occ. eigenvalues --   -0.75177  -0.74672  -0.74020  -0.72966  -0.71179
 Alpha  occ. eigenvalues --   -0.69673  -0.68055  -0.66343  -0.65587  -0.64064
 Alpha  occ. eigenvalues --   -0.63285  -0.62583  -0.61763  -0.61080  -0.59969
 Alpha  occ. eigenvalues --   -0.59407  -0.58727  -0.58199  -0.57384  -0.56738
 Alpha  occ. eigenvalues --   -0.55837  -0.55311  -0.55067  -0.54278  -0.54114
 Alpha  occ. eigenvalues --   -0.53078  -0.52754  -0.52531  -0.51889  -0.51561
 Alpha  occ. eigenvalues --   -0.50581  -0.50308  -0.50231  -0.49426  -0.48957
 Alpha  occ. eigenvalues --   -0.48530  -0.48386  -0.47906  -0.47384  -0.47284
 Alpha  occ. eigenvalues --   -0.47128  -0.46789  -0.46673  -0.46439  -0.46409
 Alpha  occ. eigenvalues --   -0.46023  -0.45693  -0.45641  -0.45520  -0.45039
 Alpha  occ. eigenvalues --   -0.44785  -0.44703  -0.44111  -0.43710  -0.43646
 Alpha  occ. eigenvalues --   -0.42695  -0.42543  -0.42167  -0.41939  -0.41865
 Alpha  occ. eigenvalues --   -0.41086  -0.41021  -0.40215  -0.40167  -0.39897
 Alpha  occ. eigenvalues --   -0.39819  -0.39586  -0.39439  -0.39368  -0.39219
 Alpha  occ. eigenvalues --   -0.38728  -0.38382  -0.38031  -0.37633  -0.37387
 Alpha  occ. eigenvalues --   -0.37143  -0.37017  -0.36830  -0.36003  -0.35505
 Alpha  occ. eigenvalues --   -0.34858  -0.33855  -0.33431  -0.32501  -0.32191
 Alpha  occ. eigenvalues --   -0.32171  -0.30195  -0.29023  -0.26067  -0.24112
 Alpha  occ. eigenvalues --   -0.18282
 Alpha virt. eigenvalues --   -0.06563  -0.00231   0.02501   0.06300   0.07912
 Alpha virt. eigenvalues --    0.09435   0.10720   0.11210   0.12233   0.12453
 Alpha virt. eigenvalues --    0.12676   0.13080   0.13299   0.13443   0.13503

 Mulliken charges:
               1
     1  O   -0.548136
     2  O   -0.577869
     3  C   -0.013754
     4  C   -0.007496
     5  C   -0.194904
     6  C   -0.154451
     7  C    0.166745
     8  C    0.189117
     9  C    0.061179
    10  C    0.033741
    11  C   -0.225535
    12  C   -0.258744
    13  C    0.050378
    14  C    0.093727
    15  C   -0.287112
    16  C   -0.298456
    17  C   -0.301442
    18  C   -0.300109
    19  C   -0.109980
    20  C   -0.151457
    21  C   -0.368108
    22  C   -0.380143
    23  C   -0.009889
    24  C   -0.057759
    25  C    0.021907
    26  C    0.124620
    27  C   -0.371000
    28  C   -0.350314
    29  C   -0.132931
    30  C   -0.126916
    31  C   -0.022717
    32  C   -0.096030
    33  C   -0.140459
    34  C   -0.083981
    35  C    0.077059
    36  C    0.022907
    37  C   -0.349198
    38  C   -0.372291
    39  C   -0.134273
    40  C   -0.078074
    41  C   -0.087389
    42  C   -0.072241
    43  H    0.096918
    44  H    0.069326
    45  H    0.048853
    46  H    0.083279
    47  H    0.070689
    48  H    0.080823
    49  H    0.119009
    50  H    0.112446
    51  H    0.127337
    52  H    0.113445
    53  H    0.101681
    54  H    0.091363
    55  H    0.089162
    56  H    0.093378
    57  H    0.110330
    58  H    0.089313
    59  H    0.082444
    60  H    0.100893
    61  H    0.095695
    62  H    0.104099
    63  H    0.083975
    64  H    0.110104
    65  H    0.086428
    66  H    0.083788
    67  H    0.106881
    68  H    0.102536
    69  H    0.115709
    70  H    0.105234
    71  H    0.109287
    72  H    0.128004
    73  H    0.299842
    74  H    0.311684
    75  H    0.051695
    76  H    0.072836
    77  H    0.113450
    78  H    0.142624
    79  H    0.121070
    80  H    0.098899
    81  H    0.101835
    82  H    0.086086
    83  H    0.043905
    84  H    0.080283
    85  H    0.087168
    86  H    0.101234
    87  H    0.094618
    88  H    0.069747
    89  H    0.104751
    90  H    0.129506
    91  H    0.106878
    92  H    0.137948
    93  H    0.141212
    94  H    0.096930
    95  H    0.079846
    96  H    0.078146
    97  H    0.080847
    98  H    0.076311
 Sum of Mulliken charges =  -0.00000

 Dipole moment (field-independent basis, Debye):
    X=              0.2582    Y=             -0.7057    Z=              1.3569  Tot=              1.5511
 Quadrupole moment (field-independent basis, Debye-Ang):
   XX=           -277.6543   YY=           -237.9766   ZZ=           -262.4535
   XY=              3.6933   XZ=             -9.5314   YZ=             -0.0134

 Normal termination of Gaussian 16 at Tue Jul  9 11:13:40 2019.
