 Gaussian 16, Revision A.03,
 Gaussian 16:  ES64L-G16RevA.03 25-Dec-2016

 -------------------------------------
 # td=(NStates=1) CAM-B3LYP/6-31G(d,p)
 -------------------------------------

 --
 TD
 --
 Symbolic Z-matrix:
 Charge =  0 Multiplicity = 1

                         Standard orientation:
 ---------------------------------------------------------------------
 Center     Atomic      Atomic             Coordinates (Angstroms)
 Number     Number       Type             X           Y           Z
 ---------------------------------------------------------------------
      1          8           0       14.895734   -2.111352   -0.130895
      2          8           0      -14.759918    1.761154    1.155410
      3          6           0       11.259083   -1.586421    1.021336
      4          6           0      -12.377172   -1.144458    0.592628
      5          6           0       12.786542   -1.795885    1.094336
      6          6           0      -13.681988   -0.379481    0.735166
      7          6           0       13.483619   -1.945824   -0.295961
      8          6           0      -13.424197    1.113711    1.079530
      9          6           0       10.987345   -0.333086    0.006913
     10          6           0      -11.327841   -0.237459   -0.184093
     11          6           0       13.308858   -0.579892   -1.007383
     12          6           0      -12.768266    1.844777   -0.018660
     13          6           0       11.860047    0.023704   -0.945769
     14          6           0      -11.443906    1.102999   -0.482782
     15          6           0       10.900233   -1.122421    2.433684
     16          6           0       10.390949   -2.712826    0.476407
     17          6           0      -11.829941   -1.532577    1.964296
     18          6           0      -12.714416   -2.321869   -0.417492
     19          6           0        9.736747    0.261050    0.199251
     20          6           0      -10.046715   -0.962718   -0.362567
     21          6           0       11.666990    1.289082   -1.815777
     22          6           0      -10.660679    1.859823   -1.444725
     23          6           0        9.358403    1.613570    0.092256
     24          6           0       -8.821672   -0.409783   -0.299479
     25          6           0        8.015595    2.304552    0.116677
     26          6           0       -7.685508   -1.197465   -0.412074
     27          6           0        7.927650    3.756715    0.494769
     28          6           0       -7.762170   -2.602740   -1.013948
     29          6           0        6.891327    1.522968   -0.162538
     30          6           0       -6.432441   -0.493914   -0.478605
     31          6           0        5.552114    2.032579    0.028058
     32          6           0       -5.118949   -1.096266   -0.679384
     33          6           0        4.354760    1.291547   -0.184785
     34          6           0       -3.933113   -0.363017   -0.465655
     35          6           0        3.025352    1.724024    0.057866
     36          6           0       -2.583970   -0.737272   -0.497192
     37          6           0        2.830497    3.099142    0.650871
     38          6           0       -2.230487   -2.175307   -0.921879
     39          6           0        2.018998    0.889462   -0.174426
     40          6           0       -1.637853    0.269430   -0.265342
     41          6           0        0.676071    1.104086   -0.044213
     42          6           0       -0.293889    0.173989   -0.235624
     43          1           0       13.311964   -0.974273    1.801189
     44          1           0       13.043050   -2.820804    1.453166
     45          1           0      -14.406622   -0.810713    1.524958
     46          1           0      -14.188023   -0.435815   -0.204715
     47          1           0       12.953070   -2.813873   -0.777224
     48          1           0      -12.788905    1.112718    2.004603
     49          1           0       14.028974   -0.026148   -0.472473
     50          1           0       13.529461   -0.614054   -2.072943
     51          1           0      -13.455606    2.088823   -1.005816
     52          1           0      -12.302095    2.868000    0.284467
     53          1           0       11.164363   -2.002230    3.177426
     54          1           0        9.912149   -0.865259    2.508198
     55          1           0       11.507224   -0.313272    2.666916
     56          1           0       10.765609   -2.943460   -0.475697
     57          1           0       10.547951   -3.519821    1.303374
     58          1           0        9.291116   -2.560591    0.400698
     59          1           0      -11.742854   -0.546429    2.393703
     60          1           0      -10.847094   -1.748589    1.739032
     61          1           0      -12.481520   -2.182776    2.451942
     62          1           0      -13.680874   -3.089506   -0.262524
     63          1           0      -11.942824   -3.173682   -0.409354
     64          1           0      -12.807005   -1.994930   -1.489479
     65          1           0        8.990584   -0.531040    0.320890
     66          1           0      -10.201281   -2.152648   -0.389392
     67          1           0       10.630565    1.223976   -1.969453
     68          1           0       11.966816    2.249280   -1.355555
     69          1           0       12.513580    1.178929   -2.644331
     70          1           0      -11.199755    2.226849   -2.068416
     71          1           0       -9.882274    1.214536   -1.958006
     72          1           0      -10.190761    2.794786   -0.926048
     73          1           0       14.903206   -2.889876    0.469964
     74          1           0      -14.949204    1.224041    1.951900
     75          1           0       10.212399    2.300293    0.058413
     76          1           0       -8.862637    0.604080    0.017676
     77          1           0        8.836024    4.050936    0.151411
     78          1           0        7.045963    4.230832    0.205271
     79          1           0        7.966953    3.852824    1.815351
     80          1           0       -8.173240   -3.397884   -0.247597
     81          1           0       -8.320345   -2.500948   -1.792892
     82          1           0       -6.768050   -2.948286   -1.597187
     83          1           0        6.876172    0.538226   -0.414136
     84          1           0       -6.380189    0.673131   -0.255342
     85          1           0        5.475099    3.126268    0.287205
     86          1           0       -5.180102   -2.130818   -0.937136
     87          1           0        4.502362    0.397365   -0.564455
     88          1           0       -4.292499    0.761193   -0.223413
     89          1           0        3.061141    2.980402    1.846396
     90          1           0        1.770566    3.525218    0.371170
     91          1           0        3.614929    3.833171    0.185112
     92          1           0       -2.731504   -3.035951   -0.331089
     93          1           0       -2.480587   -2.391571   -2.060454
     94          1           0       -1.176606   -2.444704   -0.720194
     95          1           0        2.149940   -0.205480   -0.516946
     96          1           0       -2.159636    1.161931   -0.239324
     97          1           0        0.188687    2.197596    0.134816
     98          1           0        0.209608   -0.827561   -0.741940
 ---------------------------------------------------------------------

 SCF Done:  E(RCAM-B3LYP) =  -1706.94000663     A.U. after   15 cycles

 Excitation energies and oscillator strengths:

 Excited State   1:      Singlet-A      2.0978 eV  591.03 nm  f=3.9446  <S**2>=0.000
     155 ->158         0.16091
     156 ->157         0.68777
 This state for optimization and/or second-order correction.
 Total Energy, E(TD-HF/TD-DFT) =  -1706.86291527
 Copying the excited state density for this state as the 1-particle RhoCI density.

 The electronic state is 1-A.
 Alpha  occ. eigenvalues --  -19.22132 -19.21279 -10.30986 -10.30923 -10.28538
 Alpha  occ. eigenvalues --  -10.28234 -10.28165 -10.28074 -10.28026 -10.27652
 Alpha  occ. eigenvalues --  -10.27573 -10.27485 -10.27484 -10.27280 -10.27128
 Alpha  occ. eigenvalues --  -10.27104 -10.27097 -10.27042 -10.27012 -10.26980
 Alpha  occ. eigenvalues --  -10.26933 -10.26783 -10.26776 -10.26626 -10.26550
 Alpha  occ. eigenvalues --  -10.26518 -10.26460 -10.26340 -10.26233 -10.26013
 Alpha  occ. eigenvalues --  -10.25838 -10.25769 -10.25679 -10.25548 -10.25487
 Alpha  occ. eigenvalues --  -10.25354 -10.25200 -10.25133 -10.24878 -10.24177
 Alpha  occ. eigenvalues --  -10.24034 -10.23581  -1.09836  -1.08490  -0.93460
 Alpha  occ. eigenvalues --   -0.93305  -0.92733  -0.91405  -0.90638  -0.90028
 Alpha  occ. eigenvalues --   -0.87612  -0.87311  -0.86807  -0.85111  -0.84562
 Alpha  occ. eigenvalues --   -0.83106  -0.81891  -0.80294  -0.79783  -0.78379
 Alpha  occ. eigenvalues --   -0.77581  -0.77334  -0.76862  -0.76272  -0.75598
 Alpha  occ. eigenvalues --   -0.75505  -0.75231  -0.74408  -0.73350  -0.70686
 Alpha  occ. eigenvalues --   -0.68988  -0.66891  -0.65331  -0.64713  -0.64218
 Alpha  occ. eigenvalues --   -0.62944  -0.62258  -0.61011  -0.60331  -0.60180
 Alpha  occ. eigenvalues --   -0.59620  -0.58765  -0.58597  -0.57971  -0.56588
 Alpha  occ. eigenvalues --   -0.55315  -0.55167  -0.54593  -0.54323  -0.54124
 Alpha  occ. eigenvalues --   -0.52670  -0.52383  -0.51967  -0.51429  -0.50932
 Alpha  occ. eigenvalues --   -0.50547  -0.50084  -0.49818  -0.49636  -0.49606
 Alpha  occ. eigenvalues --   -0.49564  -0.49009  -0.48567  -0.48343  -0.48089
 Alpha  occ. eigenvalues --   -0.47782  -0.47618  -0.47348  -0.47051  -0.46666
 Alpha  occ. eigenvalues --   -0.46147  -0.45941  -0.45637  -0.45323  -0.44938
 Alpha  occ. eigenvalues --   -0.44172  -0.44017  -0.43839  -0.43395  -0.43172
 Alpha  occ. eigenvalues --   -0.42883  -0.42773  -0.42506  -0.42362  -0.42074
 Alpha  occ. eigenvalues --   -0.41758  -0.41642  -0.41234  -0.41083  -0.40929
 Alpha  occ. eigenvalues --   -0.40777  -0.40509  -0.40055  -0.40030  -0.39702
 Alpha  occ. eigenvalues --   -0.39422  -0.39062  -0.38979  -0.38681  -0.38353
 Alpha  occ. eigenvalues --   -0.38031  -0.37397  -0.37343  -0.37102  -0.36523
 Alpha  occ. eigenvalues --   -0.35549  -0.35102  -0.33568  -0.32486  -0.32060
 Alpha  occ. eigenvalues --   -0.31707  -0.30264  -0.28545  -0.26211  -0.23128
 Alpha  occ. eigenvalues --   -0.19237
 Alpha virt. eigenvalues --   -0.06301  -0.01658   0.01894   0.05186   0.07502
 Alpha virt. eigenvalues --    0.09645   0.10583   0.10987   0.11682   0.12147
 Alpha virt. eigenvalues --    0.12331   0.12561   0.12868   0.12885   0.13520

 Mulliken charges:
               1
     1  O   -0.544986
     2  O   -0.541534
     3  C   -0.010658
     4  C   -0.017796
     5  C   -0.189569
     6  C   -0.172323
     7  C    0.135129
     8  C    0.114341
     9  C    0.066633
    10  C    0.045924
    11  C   -0.199851
    12  C   -0.193626
    13  C   -0.004043
    14  C    0.006429
    15  C   -0.286017
    16  C   -0.298877
    17  C   -0.281855
    18  C   -0.316956
    19  C   -0.115391
    20  C   -0.147641
    21  C   -0.346473
    22  C   -0.331605
    23  C   -0.131258
    24  C   -0.075007
    25  C    0.059034
    26  C    0.066296
    27  C   -0.323277
    28  C   -0.355685
    29  C   -0.078840
    30  C   -0.129507
    31  C   -0.102769
    32  C   -0.073379
    33  C   -0.098255
    34  C   -0.134748
    35  C    0.122419
    36  C    0.123375
    37  C   -0.351959
    38  C   -0.372676
    39  C   -0.124414
    40  C   -0.104245
    41  C   -0.056758
    42  C   -0.097166
    43  H    0.097482
    44  H    0.064338
    45  H    0.067929
    46  H    0.115091
    47  H    0.079941
    48  H    0.094543
    49  H    0.131495
    50  H    0.099665
    51  H    0.103876
    52  H    0.096428
    53  H    0.078094
    54  H    0.110088
    55  H    0.114291
    56  H    0.118505
    57  H    0.086715
    58  H    0.112736
    59  H    0.097170
    60  H    0.115412
    61  H    0.113344
    62  H    0.073266
    63  H    0.090573
    64  H    0.118256
    65  H    0.080187
    66  H    0.076784
    67  H    0.138095
    68  H    0.117612
    69  H    0.082005
    70  H    0.123904
    71  H    0.117127
    72  H    0.090248
    73  H    0.303845
    74  H    0.300510
    75  H    0.082031
    76  H    0.103373
    77  H    0.126653
    78  H    0.129114
    79  H    0.079348
    80  H    0.107382
    81  H    0.147360
    82  H    0.092686
    83  H    0.077230
    84  H    0.071387
    85  H    0.064932
    86  H    0.080187
    87  H    0.065834
    88  H    0.070780
    89  H    0.116969
    90  H    0.106142
    91  H    0.104733
    92  H    0.109804
    93  H    0.114460
    94  H    0.114925
    95  H    0.078786
    96  H    0.084030
    97  H    0.069797
    98  H    0.062066
 Sum of Mulliken charges =  -0.00000

 Dipole moment (field-independent basis, Debye):
    X=              0.6638    Y=             -1.7015    Z=              0.9584  Tot=              2.0626
 Quadrupole moment (field-independent basis, Debye-Ang):
   XX=           -301.8323   YY=           -244.7051   ZZ=           -261.7078
   XY=             13.8353   XZ=              6.3189   YZ=             -0.1138

 Normal termination of Gaussian 16 at Thu Jul 18 16:14:02 2019.
