 Gaussian 16, Revision A.03,
 Gaussian 16:  ES64L-G16RevA.03 25-Dec-2016

 -------------------------------------
 # td=(NStates=1) CAM-B3LYP/6-31G(d,p)
 -------------------------------------

 --
 TD
 --
 Symbolic Z-matrix:
 Charge =  0 Multiplicity = 1

                         Standard orientation:
 ---------------------------------------------------------------------
 Center     Atomic      Atomic             Coordinates (Angstroms)
 Number     Number       Type             X           Y           Z
 ---------------------------------------------------------------------
      1          8           0       14.877242   -2.136647   -0.549743
      2          8           0      -14.800588    2.131728    0.734976
      3          6           0       11.462740   -1.327430    0.948948
      4          6           0      -12.512482   -0.950011    0.451720
      5          6           0       13.027120   -1.531695    0.889824
      6          6           0      -13.814967   -0.191759    0.460584
      7          6           0       13.494786   -1.736172   -0.502829
      8          6           0      -13.577775    1.341661    0.740784
      9          6           0       11.102474   -0.277808   -0.204063
     10          6           0      -11.437186   -0.217564   -0.360308
     11          6           0       13.409262   -0.379203   -1.134108
     12          6           0      -12.867678    1.792274   -0.511829
     13          6           0       11.967052    0.205591   -1.099257
     14          6           0      -11.588259    0.980808   -0.743040
     15          6           0       11.157466   -0.726307    2.308760
     16          6           0       10.601488   -2.643688    0.821521
     17          6           0      -11.949358   -1.100679    1.869978
     18          6           0      -12.749166   -2.374621   -0.190005
     19          6           0        9.675724    0.302351    0.023580
     20          6           0      -10.130862   -1.041340   -0.549221
     21          6           0       11.586551    1.173807   -2.185359
     22          6           0      -10.523566    1.801082   -1.584587
     23          6           0        9.435136    1.639377   -0.059255
     24          6           0       -8.911047   -0.453068   -0.282220
     25          6           0        8.034846    2.159427    0.203252
     26          6           0       -7.710871   -1.114828   -0.473880
     27          6           0        7.864402    3.759177    0.190727
     28          6           0       -7.726534   -2.540623   -1.011829
     29          6           0        6.845737    1.349749    0.107595
     30          6           0       -6.469744   -0.603097   -0.098548
     31          6           0        5.570949    1.924650    0.307964
     32          6           0       -5.139105   -1.192597   -0.277901
     33          6           0        4.489273    1.047602    0.276630
     34          6           0       -3.993739   -0.473371    0.138348
     35          6           0        3.139234    1.411502    0.376697
     36          6           0       -2.717314   -0.948274   -0.027143
     37          6           0        3.013483    2.913995    0.739278
     38          6           0       -2.466875   -2.254896   -0.587151
     39          6           0        2.124125    0.543550    0.115339
     40          6           0       -1.677446   -0.003543    0.107687
     41          6           0        0.669443    0.772405    0.209679
     42          6           0       -0.314188   -0.230008    0.027849
     43          1           0       13.681445   -0.691927    1.278405
     44          1           0       13.156954   -2.269807    1.627687
     45          1           0      -14.476232   -0.543147    1.147124
     46          1           0      -14.273600   -0.317791   -0.493033
     47          1           0       12.891370   -2.393812   -1.049353
     48          1           0      -13.076583    1.454274    1.548096
     49          1           0       14.253386    0.183945   -0.675969
     50          1           0       13.775888   -0.482393   -2.119141
     51          1           0      -13.467301    1.579024   -1.395788
     52          1           0      -12.539970    2.834519   -0.265243
     53          1           0       11.513219   -1.426654    3.074814
     54          1           0       10.111650   -0.732201    2.432494
     55          1           0       11.534157    0.356249    2.440620
     56          1           0       10.748099   -3.225006   -0.093465
     57          1           0       10.801516   -3.128756    1.736893
     58          1           0        9.610009   -2.543480    0.903738
     59          1           0      -12.030161   -0.161556    2.435349
     60          1           0      -10.962147   -1.454502    1.677117
     61          1           0      -12.458048   -1.782980    2.559104
     62          1           0      -13.609416   -2.918146    0.335669
     63          1           0      -12.071047   -3.048887   -0.094847
     64          1           0      -13.096113   -2.329442   -1.356521
     65          1           0        8.920391   -0.466836    0.235492
     66          1           0      -10.416393   -1.990022   -0.822271
     67          1           0       10.378414    1.269029   -2.305827
     68          1           0       12.408635    2.136189   -2.006287
     69          1           0       11.938495    0.783131   -3.276217
     70          1           0      -11.022567    2.247732   -2.574314
     71          1           0       -9.616797    1.045721   -1.759169
     72          1           0      -10.169314    2.652205   -0.952306
     73          1           0       14.896845   -2.944489   -0.192559
     74          1           0      -15.236382    1.814262    1.463794
     75          1           0       10.262256    2.535485   -0.190173
     76          1           0       -8.899863    0.525076    0.193141
     77          1           0        8.862669    4.242317    0.156481
     78          1           0        7.342829    4.071004   -0.616964
     79          1           0        7.423609    4.199431    1.209863
     80          1           0       -8.449316   -3.290573   -0.480331
     81          1           0       -8.142544   -2.454204   -2.036917
     82          1           0       -6.788715   -3.148311   -0.948044
     83          1           0        6.766708    0.144921    0.095890
     84          1           0       -6.535650    0.503992    0.173123
     85          1           0        5.309895    2.942812    0.354088
     86          1           0       -5.209095   -2.282048   -0.778886
     87          1           0        4.585432   -0.126518    0.047525
     88          1           0       -4.234952    0.490973    0.328503
     89          1           0        3.960914    3.221665    1.522162
     90          1           0        1.907115    3.446651    1.060850
     91          1           0        3.244026    3.398643    0.041955
     92          1           0       -2.997523   -2.937098   -0.024463
     93          1           0       -2.882072   -2.429943   -1.619365
     94          1           0       -1.320316   -2.473913   -0.488954
     95          1           0        2.268772   -0.530993   -0.200143
     96          1           0       -2.063834    0.906455    0.240613
     97          1           0        0.374354    1.938284    0.606421
     98          1           0        0.144880   -1.197772   -0.197581
 ---------------------------------------------------------------------

 SCF Done:  E(RCAM-B3LYP) =  -1706.90894794     A.U. after   15 cycles

 Excitation energies and oscillator strengths:

 Excited State   1:      Singlet-A      2.1562 eV  575.02 nm  f=3.7942  <S**2>=0.000
     155 ->158         0.15564
     156 ->157         0.69017
 This state for optimization and/or second-order correction.
 Total Energy, E(TD-HF/TD-DFT) =  -1706.82970965
 Copying the excited state density for this state as the 1-particle RhoCI density.

 The electronic state is 1-A.
 Alpha  occ. eigenvalues --  -19.20458 -19.20119 -10.29144 -10.28952 -10.28822
 Alpha  occ. eigenvalues --  -10.28797 -10.28530 -10.28166 -10.28115 -10.28086
 Alpha  occ. eigenvalues --  -10.27732 -10.27695 -10.27423 -10.27291 -10.27181
 Alpha  occ. eigenvalues --  -10.27167 -10.27023 -10.26981 -10.26946 -10.26782
 Alpha  occ. eigenvalues --  -10.26684 -10.26649 -10.26502 -10.26451 -10.26435
 Alpha  occ. eigenvalues --  -10.26392 -10.26345 -10.26244 -10.26100 -10.25735
 Alpha  occ. eigenvalues --  -10.25420 -10.25363 -10.25294 -10.25116 -10.24664
 Alpha  occ. eigenvalues --  -10.24521 -10.24471 -10.24455 -10.24387 -10.24316
 Alpha  occ. eigenvalues --  -10.24004 -10.23468  -1.10598  -1.09756  -0.93991
 Alpha  occ. eigenvalues --   -0.92878  -0.92806  -0.91884  -0.90872  -0.88683
 Alpha  occ. eigenvalues --   -0.87040  -0.86746  -0.86238  -0.85385  -0.84707
 Alpha  occ. eigenvalues --   -0.82947  -0.81980  -0.79772  -0.79115  -0.78914
 Alpha  occ. eigenvalues --   -0.77301  -0.76745  -0.76624  -0.75788  -0.75616
 Alpha  occ. eigenvalues --   -0.75415  -0.74804  -0.74251  -0.73329  -0.71027
 Alpha  occ. eigenvalues --   -0.68834  -0.67567  -0.66538  -0.65343  -0.64328
 Alpha  occ. eigenvalues --   -0.63479  -0.63014  -0.61266  -0.60764  -0.60271
 Alpha  occ. eigenvalues --   -0.59691  -0.59503  -0.59164  -0.58019  -0.56321
 Alpha  occ. eigenvalues --   -0.56037  -0.55049  -0.54156  -0.53874  -0.53536
 Alpha  occ. eigenvalues --   -0.52747  -0.52172  -0.51426  -0.51258  -0.50787
 Alpha  occ. eigenvalues --   -0.50392  -0.49998  -0.49798  -0.49304  -0.49104
 Alpha  occ. eigenvalues --   -0.49077  -0.48803  -0.48714  -0.48078  -0.47732
 Alpha  occ. eigenvalues --   -0.47579  -0.47156  -0.46884  -0.46150  -0.45862
 Alpha  occ. eigenvalues --   -0.45788  -0.45297  -0.44917  -0.44801  -0.44738
 Alpha  occ. eigenvalues --   -0.44562  -0.44210  -0.44121  -0.43659  -0.43436
 Alpha  occ. eigenvalues --   -0.43109  -0.42990  -0.42746  -0.42597  -0.42315
 Alpha  occ. eigenvalues --   -0.41965  -0.41400  -0.41062  -0.40623  -0.40428
 Alpha  occ. eigenvalues --   -0.40379  -0.40191  -0.40088  -0.39720  -0.39617
 Alpha  occ. eigenvalues --   -0.39371  -0.39174  -0.38829  -0.38362  -0.38185
 Alpha  occ. eigenvalues --   -0.38150  -0.37829  -0.37124  -0.36941  -0.36069
 Alpha  occ. eigenvalues --   -0.35207  -0.34081  -0.33561  -0.32733  -0.32246
 Alpha  occ. eigenvalues --   -0.31911  -0.30473  -0.28667  -0.26837  -0.23362
 Alpha  occ. eigenvalues --   -0.19444
 Alpha virt. eigenvalues --   -0.06205  -0.01472   0.02410   0.05788   0.08601
 Alpha virt. eigenvalues --    0.10173   0.10962   0.11418   0.11808   0.12388
 Alpha virt. eigenvalues --    0.12854   0.12976   0.13521   0.13674   0.13965

 Mulliken charges:
               1
     1  O   -0.549020
     2  O   -0.549754
     3  C   -0.025397
     4  C   -0.014111
     5  C   -0.173706
     6  C   -0.196231
     7  C    0.144668
     8  C    0.158060
     9  C    0.045596
    10  C    0.082129
    11  C   -0.221971
    12  C   -0.200112
    13  C    0.067498
    14  C   -0.007593
    15  C   -0.296215
    16  C   -0.316837
    17  C   -0.301065
    18  C   -0.311981
    19  C   -0.121069
    20  C   -0.123017
    21  C   -0.349758
    22  C   -0.348223
    23  C   -0.096112
    24  C   -0.119868
    25  C    0.026925
    26  C    0.134830
    27  C   -0.365698
    28  C   -0.370633
    29  C   -0.111321
    30  C   -0.145554
    31  C   -0.060815
    32  C   -0.099056
    33  C   -0.134488
    34  C   -0.109517
    35  C    0.146451
    36  C    0.118981
    37  C   -0.360585
    38  C   -0.367374
    39  C   -0.159571
    40  C   -0.086901
    41  C   -0.076558
    42  C   -0.101364
    43  H    0.099242
    44  H    0.076664
    45  H    0.077548
    46  H    0.101258
    47  H    0.087306
    48  H    0.086629
    49  H    0.112692
    50  H    0.106608
    51  H    0.128443
    52  H    0.099325
    53  H    0.093812
    54  H    0.105438
    55  H    0.106997
    56  H    0.108248
    57  H    0.104035
    58  H    0.115253
    59  H    0.095177
    60  H    0.114575
    61  H    0.093631
    62  H    0.087452
    63  H    0.114792
    64  H    0.083459
    65  H    0.098319
    66  H    0.097394
    67  H    0.124436
    68  H    0.084542
    69  H    0.089842
    70  H    0.094742
    71  H    0.107407
    72  H    0.106700
    73  H    0.290929
    74  H    0.291950
    75  H    0.102993
    76  H    0.111084
    77  H    0.105141
    78  H    0.141779
    79  H    0.102022
    80  H    0.098605
    81  H    0.123204
    82  H    0.104679
    83  H    0.084956
    84  H    0.070389
    85  H    0.096367
    86  H    0.082196
    87  H    0.071840
    88  H    0.087773
    89  H    0.089600
    90  H    0.080733
    91  H    0.154055
    92  H    0.125064
    93  H    0.124836
    94  H    0.093779
    95  H    0.080826
    96  H    0.075148
    97  H    0.065228
    98  H    0.089193
 Sum of Mulliken charges =  -0.00000

 Dipole moment (field-independent basis, Debye):
    X=             -0.3568    Y=             -2.1621    Z=              1.2984  Tot=              2.5471
 Quadrupole moment (field-independent basis, Debye-Ang):
   XX=           -293.4911   YY=           -242.7942   ZZ=           -263.4473
   XY=             14.8125   XZ=             -7.1875   YZ=              2.2907

 Normal termination of Gaussian 16 at Sat Jul 13 10:46:27 2019.
