 Gaussian 16, Revision A.03,
 Gaussian 16:  ES64L-G16RevA.03 25-Dec-2016

 -------------------------------------
 # td=(NStates=1) CAM-B3LYP/6-31G(d,p)
 -------------------------------------

 --
 TD
 --
 Symbolic Z-matrix:
 Charge =  0 Multiplicity = 1

                         Standard orientation:
 ---------------------------------------------------------------------
 Center     Atomic      Atomic             Coordinates (Angstroms)
 Number     Number       Type             X           Y           Z
 ---------------------------------------------------------------------
      1          8           0       14.499280   -2.439634   -0.164383
      2          8           0      -14.780277    1.873983    1.119630
      3          6           0       11.097885   -1.345335    1.136489
      4          6           0      -12.220582   -1.003284    0.754601
      5          6           0       12.625730   -1.834109    1.149495
      6          6           0      -13.621713   -0.305798    0.847006
      7          6           0       13.191917   -2.026322   -0.183952
      8          6           0      -13.507773    1.229276    1.108234
      9          6           0       10.962357   -0.234030    0.048444
     10          6           0      -11.264992   -0.303471   -0.168496
     11          6           0       13.143143   -0.710940   -0.878396
     12          6           0      -12.634014    1.782544   -0.017070
     13          6           0       11.896900   -0.022290   -0.872073
     14          6           0      -11.476457    0.963259   -0.454234
     15          6           0       10.763931   -1.053641    2.564414
     16          6           0       10.168239   -2.587988    0.679031
     17          6           0      -11.590860   -1.210001    2.039064
     18          6           0      -12.450831   -2.471997    0.249351
     19          6           0        9.639740    0.465698    0.253054
     20          6           0       -9.980204   -1.020481   -0.433121
     21          6           0       11.754724    1.181105   -1.859103
     22          6           0      -10.650845    1.843104   -1.451601
     23          6           0        9.295129    1.891168   -0.019778
     24          6           0       -8.749745   -0.456202   -0.508756
     25          6           0        8.011423    2.422357    0.102261
     26          6           0       -7.524333   -1.219572   -0.692016
     27          6           0        7.986061    3.862627    0.576398
     28          6           0       -7.686801   -2.667746   -1.110022
     29          6           0        6.908676    1.701233   -0.017746
     30          6           0       -6.294418   -0.661860   -0.465368
     31          6           0        5.514612    2.156982    0.146646
     32          6           0       -5.012702   -1.092642   -0.730923
     33          6           0        4.431470    1.255963   -0.019940
     34          6           0       -3.964187   -0.360740   -0.525994
     35          6           0        3.150643    1.690091   -0.033666
     36          6           0       -2.556217   -0.762151   -0.799689
     37          6           0        2.762603    3.042514    0.449637
     38          6           0       -2.260470   -2.258499   -1.102774
     39          6           0        2.084494    0.807630   -0.378179
     40          6           0       -1.518901    0.182354   -0.499376
     41          6           0        0.778630    0.963009   -0.265897
     42          6           0       -0.190063   -0.108056   -0.571527
     43          1           0       13.272371   -1.252262    1.766743
     44          1           0       12.431741   -2.700487    1.807183
     45          1           0      -14.401779   -0.630484    1.496478
     46          1           0      -14.010871   -0.517102   -0.126583
     47          1           0       12.318785   -2.788529   -0.853107
     48          1           0      -13.209440    1.601619    2.066606
     49          1           0       14.018528    0.003026   -0.315906
     50          1           0       13.586433   -0.904681   -1.790309
     51          1           0      -13.288413    1.921749   -0.713416
     52          1           0      -12.294613    2.722978    0.237473
     53          1           0       11.118051   -2.015266    3.126509
     54          1           0        9.706446   -0.883065    2.651389
     55          1           0       11.282902   -0.146215    3.133486
     56          1           0       10.347069   -2.722217   -0.366761
     57          1           0       10.044768   -3.420782    1.362648
     58          1           0        9.059198   -2.315590    0.756111
     59          1           0      -11.450185   -0.332851    2.670598
     60          1           0      -10.484027   -1.711956    1.936324
     61          1           0      -12.334850   -1.802780    2.774031
     62          1           0      -13.151076   -3.077500    0.852993
     63          1           0      -11.615324   -3.201579    0.214181
     64          1           0      -12.702940   -2.430555   -0.826856
     65          1           0        8.862590   -0.107411    0.581885
     66          1           0      -10.049278   -2.049341   -0.575125
     67          1           0       10.658046    0.784066   -2.101624
     68          1           0       11.998173    2.050858   -1.340556
     69          1           0       12.621133    1.116600   -2.636144
     70          1           0      -11.127909    2.646188   -2.147366
     71          1           0      -10.227368    1.212179   -2.183186
     72          1           0       -9.788795    2.366604   -0.964713
     73          1           0       14.797421   -3.391742    0.117180
     74          1           0      -15.323828    1.425651    1.709629
     75          1           0        9.918786    2.564552   -0.235857
     76          1           0       -8.518570    0.614154   -0.419118
     77          1           0        8.947064    4.340239    0.606297
     78          1           0        7.117778    4.256978   -0.155273
     79          1           0        7.549474    4.016311    1.508122
     80          1           0       -8.308669   -3.018307   -0.200014
     81          1           0       -8.308654   -2.821785   -1.964915
     82          1           0       -6.745783   -3.324660   -1.241027
     83          1           0        6.954510    0.720753   -0.356054
     84          1           0       -6.382599    0.475846   -0.319132
     85          1           0        5.159035    3.042407    0.577715
     86          1           0       -4.870105   -1.943776   -1.014157
     87          1           0        4.681691    0.275446   -0.386066
     88          1           0       -4.140912    0.854419   -0.331821
     89          1           0        2.915905    3.040991    1.619355
     90          1           0        1.701709    3.294897    0.290618
     91          1           0        3.239348    3.902405   -0.065805
     92          1           0       -3.074231   -3.000750   -0.685292
     93          1           0       -2.433796   -2.350398   -2.340900
     94          1           0       -1.177294   -2.237754   -1.184867
     95          1           0        2.554686   -0.227160   -0.795119
     96          1           0       -1.898412    1.179892   -0.234569
     97          1           0        0.465541    2.015073    0.165327
     98          1           0        0.165320   -0.936249   -1.065791
 ---------------------------------------------------------------------

 SCF Done:  E(RCAM-B3LYP) =  -1706.88372029     A.U. after   16 cycles

 Excitation energies and oscillator strengths:

 Excited State   1:      Singlet-A      1.8881 eV  656.67 nm  f=3.4909  <S**2>=0.000
     155 ->158         0.12502
     156 ->157         0.70275
     156 <-157        -0.12789
 This state for optimization and/or second-order correction.
 Total Energy, E(TD-HF/TD-DFT) =  -1706.81433458
 Copying the excited state density for this state as the 1-particle RhoCI density.

 The electronic state is 1-A.
 Alpha  occ. eigenvalues --  -19.22106 -19.19868 -10.31701 -10.29630 -10.28398
 Alpha  occ. eigenvalues --  -10.28212 -10.27672 -10.27318 -10.27305 -10.27052
 Alpha  occ. eigenvalues --  -10.27050 -10.26964 -10.26795 -10.26583 -10.26545
 Alpha  occ. eigenvalues --  -10.26484 -10.26408 -10.26390 -10.26334 -10.26283
 Alpha  occ. eigenvalues --  -10.26237 -10.26168 -10.25965 -10.25846 -10.25834
 Alpha  occ. eigenvalues --  -10.25739 -10.25636 -10.25618 -10.25603 -10.25593
 Alpha  occ. eigenvalues --  -10.25503 -10.25439 -10.25350 -10.25264 -10.25121
 Alpha  occ. eigenvalues --  -10.25111 -10.24931 -10.24875 -10.24840 -10.23666
 Alpha  occ. eigenvalues --  -10.23227 -10.22601  -1.09858  -1.09842  -0.94272
 Alpha  occ. eigenvalues --   -0.93448  -0.92591  -0.92089  -0.91128  -0.89908
 Alpha  occ. eigenvalues --   -0.87945  -0.87327  -0.87030  -0.85429  -0.84318
 Alpha  occ. eigenvalues --   -0.83705  -0.81759  -0.79700  -0.79237  -0.78289
 Alpha  occ. eigenvalues --   -0.76711  -0.76354  -0.76190  -0.76044  -0.75770
 Alpha  occ. eigenvalues --   -0.75726  -0.75141  -0.75062  -0.73249  -0.71388
 Alpha  occ. eigenvalues --   -0.69957  -0.68762  -0.66680  -0.65645  -0.64567
 Alpha  occ. eigenvalues --   -0.63471  -0.63263  -0.62302  -0.61211  -0.61097
 Alpha  occ. eigenvalues --   -0.59371  -0.58446  -0.58292  -0.57104  -0.56246
 Alpha  occ. eigenvalues --   -0.55970  -0.55592  -0.55246  -0.54829  -0.53668
 Alpha  occ. eigenvalues --   -0.53297  -0.53074  -0.52267  -0.51869  -0.51172
 Alpha  occ. eigenvalues --   -0.50694  -0.50562  -0.50255  -0.49929  -0.49525
 Alpha  occ. eigenvalues --   -0.49076  -0.49011  -0.48768  -0.48000  -0.47870
 Alpha  occ. eigenvalues --   -0.47690  -0.47296  -0.46821  -0.46660  -0.46267
 Alpha  occ. eigenvalues --   -0.45600  -0.45479  -0.45348  -0.45065  -0.44924
 Alpha  occ. eigenvalues --   -0.44668  -0.44389  -0.44053  -0.43759  -0.43693
 Alpha  occ. eigenvalues --   -0.43571  -0.42999  -0.42827  -0.42418  -0.41842
 Alpha  occ. eigenvalues --   -0.41601  -0.41318  -0.40944  -0.40745  -0.40694
 Alpha  occ. eigenvalues --   -0.40434  -0.40067  -0.39975  -0.39790  -0.39703
 Alpha  occ. eigenvalues --   -0.39358  -0.38911  -0.38376  -0.37928  -0.37894
 Alpha  occ. eigenvalues --   -0.37404  -0.37068  -0.36185  -0.35723  -0.35324
 Alpha  occ. eigenvalues --   -0.34773  -0.33984  -0.33269  -0.31831  -0.31754
 Alpha  occ. eigenvalues --   -0.31222  -0.30079  -0.28880  -0.25748  -0.23782
 Alpha  occ. eigenvalues --   -0.18218
 Alpha virt. eigenvalues --   -0.06937  -0.00800   0.01552   0.06052   0.08404
 Alpha virt. eigenvalues --    0.10021   0.10562   0.11490   0.11691   0.12232
 Alpha virt. eigenvalues --    0.12589   0.13137   0.13371   0.13534   0.13761

 Mulliken charges:
               1
     1  O   -0.579220
     2  O   -0.572029
     3  C   -0.034830
     4  C   -0.021249
     5  C   -0.167162
     6  C   -0.200111
     7  C    0.212726
     8  C    0.157383
     9  C    0.092397
    10  C    0.101464
    11  C   -0.206423
    12  C   -0.205856
    13  C    0.016443
    14  C    0.017138
    15  C   -0.283694
    16  C   -0.310851
    17  C   -0.266078
    18  C   -0.319211
    19  C   -0.129182
    20  C   -0.146780
    21  C   -0.339022
    22  C   -0.379310
    23  C   -0.082688
    24  C   -0.067256
    25  C    0.094382
    26  C    0.101955
    27  C   -0.364518
    28  C   -0.373130
    29  C   -0.119823
    30  C   -0.153328
    31  C   -0.104574
    32  C    0.019151
    33  C   -0.120194
    34  C   -0.109280
    35  C    0.131467
    36  C    0.060076
    37  C   -0.388219
    38  C   -0.358207
    39  C   -0.105326
    40  C   -0.084874
    41  C   -0.097463
    42  C   -0.104060
    43  H    0.100514
    44  H    0.072341
    45  H    0.077818
    46  H    0.112209
    47  H    0.011987
    48  H    0.085659
    49  H    0.081692
    50  H    0.115906
    51  H    0.135763
    52  H    0.111808
    53  H    0.086228
    54  H    0.102386
    55  H    0.090203
    56  H    0.117377
    57  H    0.106469
    58  H    0.083175
    59  H    0.097964
    60  H    0.089140
    61  H    0.069246
    62  H    0.101946
    63  H    0.100390
    64  H    0.096833
    65  H    0.088936
    66  H    0.084277
    67  H    0.137325
    68  H    0.135868
    69  H    0.088791
    70  H    0.100265
    71  H    0.126875
    72  H    0.113147
    73  H    0.323882
    74  H    0.296634
    75  H    0.058395
    76  H    0.085240
    77  H    0.109895
    78  H    0.102261
    79  H    0.137575
    80  H    0.112147
    81  H    0.130102
    82  H    0.100868
    83  H    0.078389
    84  H    0.059211
    85  H    0.088078
    86  H    0.028871
    87  H    0.079708
    88  H    0.058431
    89  H    0.117142
    90  H    0.107273
    91  H    0.121549
    92  H    0.135051
    93  H    0.086229
    94  H    0.121537
    95  H    0.060203
    96  H    0.088805
    97  H    0.082826
    98  H    0.096525
 Sum of Mulliken charges =  -0.00000

 Dipole moment (field-independent basis, Debye):
    X=              1.0833    Y=             -1.7920    Z=              0.8704  Tot=              2.2676
 Quadrupole moment (field-independent basis, Debye-Ang):
   XX=           -256.3032   YY=           -242.9386   ZZ=           -262.0147
   XY=              7.0658   XZ=              0.3110   YZ=              3.2259

 Normal termination of Gaussian 16 at Wed Jul 10 23:31:54 2019.
