 Gaussian 16, Revision A.03,
 Gaussian 16:  ES64L-G16RevA.03 25-Dec-2016

 -------------------------------------
 # td=(NStates=1) CAM-B3LYP/6-31G(d,p)
 -------------------------------------

 --
 TD
 --
 Symbolic Z-matrix:
 Charge =  0 Multiplicity = 1

                         Standard orientation:
 ---------------------------------------------------------------------
 Center     Atomic      Atomic             Coordinates (Angstroms)
 Number     Number       Type             X           Y           Z
 ---------------------------------------------------------------------
      1          8           0       14.782158   -2.236909   -0.150461
      2          8           0      -14.822804    1.833334    0.824675
      3          6           0       11.239892   -1.561655    0.850049
      4          6           0      -12.396797   -1.145185    0.526031
      5          6           0       12.699172   -1.940732    0.961619
      6          6           0      -13.786447   -0.356058    0.502362
      7          6           0       13.425570   -1.948571   -0.317928
      8          6           0      -13.623851    1.079915    0.810674
      9          6           0       10.898608   -0.336770   -0.129745
     10          6           0      -11.278762   -0.269979   -0.228994
     11          6           0       13.273306   -0.554779   -1.071458
     12          6           0      -12.807656    1.771734   -0.250218
     13          6           0       11.811072   -0.011228   -0.941531
     14          6           0      -11.470686    1.052872   -0.548628
     15          6           0       10.770991   -1.145564    2.311625
     16          6           0       10.401115   -2.711300    0.490684
     17          6           0      -11.968362   -1.498517    1.796705
     18          6           0      -12.691923   -2.337148   -0.355957
     19          6           0        9.635853    0.345539    0.068046
     20          6           0      -10.005038   -0.972666   -0.590379
     21          6           0       11.651134    1.140778   -2.030620
     22          6           0      -10.475663    1.918803   -1.263194
     23          6           0        9.380605    1.642512    0.090056
     24          6           0       -8.797988   -0.515582   -0.208321
     25          6           0        8.094359    2.330038    0.235487
     26          6           0       -7.519748   -1.204710   -0.425940
     27          6           0        8.046504    3.876572    0.444280
     28          6           0       -7.647236   -2.600469   -1.128228
     29          6           0        6.891658    1.580149    0.047446
     30          6           0       -6.339356   -0.598839   -0.103460
     31          6           0        5.639069    2.216679    0.194127
     32          6           0       -4.991518   -1.086747   -0.434690
     33          6           0        4.483565    1.475059   -0.014495
     34          6           0       -3.965344   -0.319120   -0.065824
     35          6           0        3.077252    1.784349    0.076901
     36          6           0       -2.565832   -0.753129   -0.269966
     37          6           0        2.746849    3.291951    0.417011
     38          6           0       -2.322503   -2.104935   -0.801742
     39          6           0        2.124053    0.802069    0.047523
     40          6           0       -1.547951    0.126948   -0.037303
     41          6           0        0.686591    0.932166    0.133165
     42          6           0       -0.250271   -0.087100   -0.047435
     43          1           0       13.165045   -1.196292    1.654098
     44          1           0       12.926266   -2.844400    1.487921
     45          1           0      -14.410505   -0.868619    1.190491
     46          1           0      -14.314211   -0.314349   -0.347226
     47          1           0       13.030443   -2.624032   -1.113739
     48          1           0      -13.121870    1.555531    1.611860
     49          1           0       13.938513    0.007502   -0.464866
     50          1           0       13.422237   -0.453980   -2.126006
     51          1           0      -13.190425    1.780613   -1.218031
     52          1           0      -12.622503    2.804545    0.171357
     53          1           0       10.658564   -1.946975    3.047391
     54          1           0        9.620864   -0.769493    2.487487
     55          1           0       11.175719   -0.056233    2.651080
     56          1           0       10.955831   -3.160273   -0.357557
     57          1           0       10.597590   -3.639748    1.408930
     58          1           0        9.202610   -2.551488    0.367543
     59          1           0      -11.918174   -0.435150    2.481662
     60          1           0      -11.008370   -1.917315    1.842960
     61          1           0      -12.860776   -2.275736    2.250928
     62          1           0      -13.733966   -2.932884   -0.242818
     63          1           0      -11.861688   -3.067961   -0.239343
     64          1           0      -12.786758   -1.970176   -1.446107
     65          1           0        8.861985   -0.279963    0.427342
     66          1           0       -9.945357   -2.047389   -0.924565
     67          1           0       10.659992    1.490072   -2.157787
     68          1           0       11.971085    2.052852   -1.594419
     69          1           0       12.255909    0.841374   -2.897030
     70          1           0      -10.917665    2.462752   -2.132083
     71          1           0       -9.554686    1.302993   -1.598219
     72          1           0      -10.293779    2.806187   -0.428933
     73          1           0       14.995976   -3.119175    0.180905
     74          1           0      -15.421369    1.700981    1.676547
     75          1           0       10.229918    2.311487   -0.133056
     76          1           0       -8.551091    0.468770    0.420583
     77          1           0        9.119144    4.071656    0.532003
     78          1           0        7.657500    4.284916   -0.495479
     79          1           0        7.243953    4.294015    1.252317
     80          1           0       -8.306862   -3.315161   -0.686827
     81          1           0       -7.842107   -2.561431   -2.325527
     82          1           0       -6.537488   -2.923704   -1.025759
     83          1           0        7.111323    0.545363   -0.235960
     84          1           0       -6.303977    0.377525    0.152574
     85          1           0        5.591209    3.219493    0.484653
     86          1           0       -4.804474   -2.075919   -0.772807
     87          1           0        4.778323    0.424837   -0.210895
     88          1           0       -4.218850    0.600803    0.527486
     89          1           0        2.695121    3.439427    1.521110
     90          1           0        1.712339    3.572069    0.153572
     91          1           0        3.538948    4.006288   -0.066905
     92          1           0       -2.661916   -2.801201   -0.192604
     93          1           0       -2.651258   -2.303434   -1.743961
     94          1           0       -1.246784   -2.377224   -0.651051
     95          1           0        2.300191   -0.135551   -0.125023
     96          1           0       -1.834257    0.927700    0.414606
     97          1           0        0.424840    2.082112    0.137232
     98          1           0        0.259209   -1.082111   -0.400161
 ---------------------------------------------------------------------

 SCF Done:  E(RCAM-B3LYP) =  -1706.94149009     A.U. after   15 cycles

 Excitation energies and oscillator strengths:

 Excited State   1:      Singlet-A      2.3984 eV  516.94 nm  f=3.5566  <S**2>=0.000
     155 ->158         0.15832
     156 ->157         0.68681
 This state for optimization and/or second-order correction.
 Total Energy, E(TD-HF/TD-DFT) =  -1706.85334929
 Copying the excited state density for this state as the 1-particle RhoCI density.

 The electronic state is 1-A.
 Alpha  occ. eigenvalues --  -19.21006 -19.20512 -10.30691 -10.28782 -10.28190
 Alpha  occ. eigenvalues --  -10.27818 -10.27697 -10.27549 -10.27396 -10.27299
 Alpha  occ. eigenvalues --  -10.27246 -10.27230 -10.27170 -10.27155 -10.27022
 Alpha  occ. eigenvalues --  -10.26812 -10.26584 -10.26533 -10.26510 -10.26442
 Alpha  occ. eigenvalues --  -10.26422 -10.26387 -10.26363 -10.26245 -10.26142
 Alpha  occ. eigenvalues --  -10.26137 -10.26113 -10.26014 -10.25954 -10.25923
 Alpha  occ. eigenvalues --  -10.25878 -10.25723 -10.25352 -10.25196 -10.25145
 Alpha  occ. eigenvalues --  -10.25124 -10.24972 -10.24356 -10.24241 -10.23772
 Alpha  occ. eigenvalues --  -10.23728 -10.23713  -1.09882  -1.07588  -0.93815
 Alpha  occ. eigenvalues --   -0.93338  -0.92951  -0.91165  -0.90523  -0.89592
 Alpha  occ. eigenvalues --   -0.87867  -0.87328  -0.86841  -0.85681  -0.84719
 Alpha  occ. eigenvalues --   -0.83394  -0.82467  -0.80405  -0.79788  -0.79179
 Alpha  occ. eigenvalues --   -0.76642  -0.76422  -0.76220  -0.75713  -0.75382
 Alpha  occ. eigenvalues --   -0.75189  -0.74551  -0.74019  -0.73640  -0.70757
 Alpha  occ. eigenvalues --   -0.68935  -0.67444  -0.66489  -0.65515  -0.63508
 Alpha  occ. eigenvalues --   -0.62746  -0.62169  -0.62015  -0.61912  -0.60714
 Alpha  occ. eigenvalues --   -0.59394  -0.59108  -0.58821  -0.57729  -0.56609
 Alpha  occ. eigenvalues --   -0.56031  -0.55428  -0.55286  -0.54781  -0.54018
 Alpha  occ. eigenvalues --   -0.53204  -0.52504  -0.51796  -0.51714  -0.51263
 Alpha  occ. eigenvalues --   -0.51023  -0.50321  -0.50082  -0.49507  -0.49386
 Alpha  occ. eigenvalues --   -0.49276  -0.48607  -0.48208  -0.47980  -0.47778
 Alpha  occ. eigenvalues --   -0.47309  -0.47136  -0.47024  -0.46605  -0.46284
 Alpha  occ. eigenvalues --   -0.45747  -0.45668  -0.45222  -0.45121  -0.44917
 Alpha  occ. eigenvalues --   -0.44424  -0.43964  -0.43876  -0.43831  -0.43183
 Alpha  occ. eigenvalues --   -0.43090  -0.42526  -0.42475  -0.42368  -0.42157
 Alpha  occ. eigenvalues --   -0.41970  -0.41529  -0.41461  -0.41222  -0.40458
 Alpha  occ. eigenvalues --   -0.40353  -0.40252  -0.39979  -0.39165  -0.39112
 Alpha  occ. eigenvalues --   -0.38982  -0.38684  -0.38301  -0.37878  -0.37418
 Alpha  occ. eigenvalues --   -0.37375  -0.37095  -0.36050  -0.35370  -0.34910
 Alpha  occ. eigenvalues --   -0.34748  -0.33951  -0.33652  -0.32887  -0.32460
 Alpha  occ. eigenvalues --   -0.31620  -0.30100  -0.28981  -0.26261  -0.23770
 Alpha  occ. eigenvalues --   -0.20005
 Alpha virt. eigenvalues --   -0.05333  -0.00636   0.02601   0.06560   0.08277
 Alpha virt. eigenvalues --    0.10160   0.11339   0.11478   0.11717   0.11987
 Alpha virt. eigenvalues --    0.12331   0.12652   0.12955   0.13387   0.13553

 Mulliken charges:
               1
     1  O   -0.571180
     2  O   -0.590282
     3  C    0.000626
     4  C    0.010674
     5  C   -0.185138
     6  C   -0.164521
     7  C    0.174125
     8  C    0.175028
     9  C    0.096930
    10  C    0.040559
    11  C   -0.204032
    12  C   -0.209339
    13  C   -0.021212
    14  C    0.035702
    15  C   -0.312838
    16  C   -0.261736
    17  C   -0.260113
    18  C   -0.295644
    19  C   -0.100681
    20  C   -0.175910
    21  C   -0.366970
    22  C   -0.340658
    23  C   -0.099358
    24  C   -0.069171
    25  C    0.047831
    26  C    0.093132
    27  C   -0.365264
    28  C   -0.365112
    29  C   -0.104141
    30  C   -0.128056
    31  C   -0.067691
    32  C   -0.074331
    33  C   -0.119313
    34  C   -0.115429
    35  C    0.093228
    36  C    0.070037
    37  C   -0.372931
    38  C   -0.381753
    39  C   -0.086532
    40  C   -0.060929
    41  C   -0.095936
    42  C   -0.099768
    43  H    0.110190
    44  H    0.091398
    45  H    0.083651
    46  H    0.112690
    47  H    0.073950
    48  H    0.081551
    49  H    0.130212
    50  H    0.102961
    51  H    0.122004
    52  H    0.096815
    53  H    0.106981
    54  H    0.071966
    55  H    0.089201
    56  H    0.101390
    57  H    0.042621
    58  H    0.099064
    59  H    0.071163
    60  H    0.121018
    61  H    0.064330
    62  H    0.082145
    63  H    0.089788
    64  H    0.103727
    65  H    0.079444
    66  H    0.091105
    67  H    0.120120
    68  H    0.122800
    69  H    0.101629
    70  H    0.109104
    71  H    0.120343
    72  H    0.086085
    73  H    0.308171
    74  H    0.301530
    75  H    0.070758
    76  H    0.079073
    77  H    0.112036
    78  H    0.135056
    79  H    0.112415
    80  H    0.127658
    81  H    0.109649
    82  H    0.092418
    83  H    0.090496
    84  H    0.081259
    85  H    0.076699
    86  H    0.091243
    87  H    0.076719
    88  H    0.087277
    89  H    0.128850
    90  H    0.113887
    91  H    0.107110
    92  H    0.133606
    93  H    0.134545
    94  H    0.097728
    95  H    0.060241
    96  H    0.070379
    97  H    0.064907
    98  H    0.084937
 Sum of Mulliken charges =  -0.00000

 Dipole moment (field-independent basis, Debye):
    X=             -0.1500    Y=             -1.5944    Z=              1.1494  Tot=              1.9712
 Quadrupole moment (field-independent basis, Debye-Ang):
   XX=           -271.0153   YY=           -242.5505   ZZ=           -262.4998
   XY=              2.5881   XZ=            -10.3567   YZ=              3.8534

 Normal termination of Gaussian 16 at Sat Jul 13 23:57:05 2019.
