 Gaussian 16, Revision A.03,
 Gaussian 16:  ES64L-G16RevA.03 25-Dec-2016

 -------------------------------------
 # td=(NStates=1) CAM-B3LYP/6-31G(d,p)
 -------------------------------------

 --
 TD
 --
 Symbolic Z-matrix:
 Charge =  0 Multiplicity = 1

                         Standard orientation:
 ---------------------------------------------------------------------
 Center     Atomic      Atomic             Coordinates (Angstroms)
 Number     Number       Type             X           Y           Z
 ---------------------------------------------------------------------
      1          8           0       14.727587   -2.173870   -0.270064
      2          8           0      -14.785113    1.901982    1.099713
      3          6           0       11.288398   -1.392640    0.997567
      4          6           0      -12.334085   -1.040100    0.532974
      5          6           0       12.703943   -1.823923    1.040347
      6          6           0      -13.712314   -0.256950    0.704045
      7          6           0       13.333197   -1.998576   -0.319332
      8          6           0      -13.454259    1.278529    0.897926
      9          6           0       10.918657   -0.195994    0.058105
     10          6           0      -11.353265   -0.164389   -0.324116
     11          6           0       13.250238   -0.576426   -1.037475
     12          6           0      -12.750684    1.836782   -0.230866
     13          6           0       11.839721    0.097018   -0.953994
     14          6           0      -11.495347    1.074101   -0.673339
     15          6           0       10.853796   -1.080779    2.512430
     16          6           0       10.426804   -2.607500    0.495227
     17          6           0      -11.675475   -1.195727    1.975019
     18          6           0      -12.748880   -2.350048   -0.056728
     19          6           0        9.660506    0.395188    0.255661
     20          6           0      -10.148471   -0.995314   -0.696385
     21          6           0       11.595508    1.254647   -1.902448
     22          6           0      -10.548676    1.884788   -1.512053
     23          6           0        9.419216    1.696609   -0.111938
     24          6           0       -8.787577   -0.496950   -0.358315
     25          6           0        8.071104    2.329457    0.134278
     26          6           0       -7.576939   -1.273260   -0.649305
     27          6           0        8.022370    3.777159    0.410307
     28          6           0       -7.733923   -2.690211   -1.103360
     29          6           0        6.933512    1.514429   -0.093486
     30          6           0       -6.343266   -0.743156   -0.250216
     31          6           0        5.626285    1.994775    0.161940
     32          6           0       -5.084553   -1.274520   -0.388440
     33          6           0        4.409025    1.214763   -0.141094
     34          6           0       -3.972842   -0.485125   -0.137733
     35          6           0        3.055360    1.668893    0.105418
     36          6           0       -2.614401   -0.863085   -0.422841
     37          6           0        2.803719    3.117355    0.648270
     38          6           0       -2.302781   -2.229870   -0.785137
     39          6           0        2.040619    0.763633   -0.128502
     40          6           0       -1.567833    0.109859   -0.193676
     41          6           0        0.651054    1.045596   -0.082105
     42          6           0       -0.258830   -0.052722   -0.295652
     43          1           0       13.167594   -1.079175    1.703513
     44          1           0       12.750988   -2.765429    1.692354
     45          1           0      -14.416033   -0.652635    1.612679
     46          1           0      -14.142056   -0.254582   -0.358150
     47          1           0       12.796639   -2.644637   -0.947003
     48          1           0      -12.655318    1.462807    1.790582
     49          1           0       13.918426    0.076692   -0.711057
     50          1           0       13.446091   -0.656334   -1.949295
     51          1           0      -13.445680    2.108191   -1.096564
     52          1           0      -12.495604    2.914971   -0.210343
     53          1           0       11.357041   -1.803491    3.173227
     54          1           0        9.803191   -1.029538    2.621134
     55          1           0       11.253454   -0.068380    2.987787
     56          1           0       10.901792   -2.757836   -0.454693
     57          1           0       10.662939   -3.539288    1.153487
     58          1           0        9.385002   -2.532844    0.400147
     59          1           0      -11.308237   -0.285221    2.514471
     60          1           0      -10.693826   -1.406600    1.935881
     61          1           0      -12.236820   -1.874019    2.608280
     62          1           0      -13.497400   -2.639444    0.697365
     63          1           0      -11.869567   -3.062420   -0.363775
     64          1           0      -13.202832   -2.148183   -1.149445
     65          1           0        8.787404   -0.028831    0.651771
     66          1           0      -10.038482   -2.053614   -1.019403
     67          1           0       10.503296    1.567487   -2.242482
     68          1           0       12.170432    2.249568   -1.506313
     69          1           0       12.104770    1.052931   -2.917698
     70          1           0      -11.102887    2.384832   -2.402658
     71          1           0      -10.015903    0.913121   -1.946754
     72          1           0      -10.089193    2.649363   -0.814632
     73          1           0       14.809762   -2.891689    0.215841
     74          1           0      -14.985066    1.566887    2.088692
     75          1           0       10.282328    2.475276   -0.380167
     76          1           0       -8.780634    0.491524    0.286223
     77          1           0        9.025140    4.147025    0.479839
     78          1           0        7.326299    4.242809   -0.183197
     79          1           0        7.735006    3.875662    1.573597
     80          1           0       -8.401247   -3.268632   -0.214871
     81          1           0       -8.112346   -2.872315   -2.017941
     82          1           0       -6.870407   -3.412822   -0.955736
     83          1           0        7.188321    0.511033   -0.500668
     84          1           0       -6.465108    0.238526    0.315301
     85          1           0        5.552380    2.867359    0.530626
     86          1           0       -4.843296   -2.477562   -0.709304
     87          1           0        4.459090    0.134159   -0.397159
     88          1           0       -4.282054    0.559204    0.036686
     89          1           0        3.033195    3.131106    1.813022
     90          1           0        1.696441    3.430244    0.300484
     91          1           0        3.607301    3.880066    0.240833
     92          1           0       -2.744060   -3.142974   -0.077813
     93          1           0       -2.630114   -2.517540   -1.798084
     94          1           0       -1.164490   -2.482027   -0.576353
     95          1           0        2.284118   -0.102922   -0.460985
     96          1           0       -2.111219    1.139397   -0.122247
     97          1           0        0.185260    2.008126    0.446295
     98          1           0        0.234611   -1.050148   -0.508390
 ---------------------------------------------------------------------

 SCF Done:  E(RCAM-B3LYP) =  -1706.88089551     A.U. after   16 cycles

 Excitation energies and oscillator strengths:

 Excited State   1:      Singlet-A      1.8578 eV  667.39 nm  f=3.7710  <S**2>=0.000
     155 ->158         0.14064
     156 ->157         0.69727
     156 <-157        -0.11062
 This state for optimization and/or second-order correction.
 Total Energy, E(TD-HF/TD-DFT) =  -1706.81262434
 Copying the excited state density for this state as the 1-particle RhoCI density.

 The electronic state is 1-A.
 Alpha  occ. eigenvalues --  -19.21688 -19.21181 -10.30813 -10.30804 -10.28734
 Alpha  occ. eigenvalues --  -10.28108 -10.28003 -10.27887 -10.27867 -10.27788
 Alpha  occ. eigenvalues --  -10.27718 -10.27714 -10.27644 -10.27557 -10.27506
 Alpha  occ. eigenvalues --  -10.27427 -10.27426 -10.27378 -10.27172 -10.27109
 Alpha  occ. eigenvalues --  -10.26911 -10.26808 -10.26646 -10.26569 -10.26517
 Alpha  occ. eigenvalues --  -10.26512 -10.26286 -10.26229 -10.26212 -10.26083
 Alpha  occ. eigenvalues --  -10.26054 -10.26013 -10.25918 -10.25791 -10.25710
 Alpha  occ. eigenvalues --  -10.25534 -10.25180 -10.25049 -10.24861 -10.24642
 Alpha  occ. eigenvalues --  -10.23622 -10.23293  -1.12990  -1.06004  -0.93500
 Alpha  occ. eigenvalues --   -0.93044  -0.92000  -0.91106  -0.90414  -0.89433
 Alpha  occ. eigenvalues --   -0.87086  -0.86857  -0.86414  -0.85710  -0.84196
 Alpha  occ. eigenvalues --   -0.83033  -0.81820  -0.80184  -0.78465  -0.78084
 Alpha  occ. eigenvalues --   -0.76868  -0.76432  -0.76065  -0.75947  -0.75698
 Alpha  occ. eigenvalues --   -0.74971  -0.74752  -0.73793  -0.72579  -0.70574
 Alpha  occ. eigenvalues --   -0.69181  -0.67408  -0.65681  -0.64209  -0.63761
 Alpha  occ. eigenvalues --   -0.63122  -0.62399  -0.61175  -0.60312  -0.59898
 Alpha  occ. eigenvalues --   -0.59246  -0.58781  -0.57644  -0.57026  -0.56929
 Alpha  occ. eigenvalues --   -0.56082  -0.55436  -0.55003  -0.54177  -0.53586
 Alpha  occ. eigenvalues --   -0.53036  -0.51870  -0.51521  -0.50927  -0.50826
 Alpha  occ. eigenvalues --   -0.50635  -0.50210  -0.49544  -0.49268  -0.48946
 Alpha  occ. eigenvalues --   -0.48775  -0.48418  -0.48265  -0.48097  -0.47793
 Alpha  occ. eigenvalues --   -0.47282  -0.46967  -0.46853  -0.46783  -0.46421
 Alpha  occ. eigenvalues --   -0.46347  -0.46248  -0.45297  -0.45034  -0.44704
 Alpha  occ. eigenvalues --   -0.44460  -0.44091  -0.44008  -0.43871  -0.43466
 Alpha  occ. eigenvalues --   -0.43283  -0.42956  -0.42484  -0.41904  -0.41634
 Alpha  occ. eigenvalues --   -0.41413  -0.41117  -0.40836  -0.40526  -0.40230
 Alpha  occ. eigenvalues --   -0.40096  -0.39770  -0.39655  -0.39487  -0.38928
 Alpha  occ. eigenvalues --   -0.38740  -0.38439  -0.38209  -0.38092  -0.37808
 Alpha  occ. eigenvalues --   -0.37521  -0.37500  -0.37355  -0.35970  -0.35712
 Alpha  occ. eigenvalues --   -0.35501  -0.34370  -0.33642  -0.33221  -0.32042
 Alpha  occ. eigenvalues --   -0.30971  -0.29890  -0.27970  -0.25725  -0.22892
 Alpha  occ. eigenvalues --   -0.18318
 Alpha virt. eigenvalues --   -0.06954  -0.01556   0.01754   0.05029   0.07971
 Alpha virt. eigenvalues --    0.09710   0.10675   0.10706   0.11094   0.11789
 Alpha virt. eigenvalues --    0.12128   0.12596   0.12773   0.13174   0.13480

 Mulliken charges:
               1
     1  O   -0.522807
     2  O   -0.563101
     3  C   -0.028348
     4  C   -0.000934
     5  C   -0.202062
     6  C   -0.171656
     7  C    0.141604
     8  C    0.159383
     9  C    0.091762
    10  C    0.055253
    11  C   -0.179489
    12  C   -0.228025
    13  C    0.013855
    14  C    0.061190
    15  C   -0.311646
    16  C   -0.292220
    17  C   -0.307901
    18  C   -0.279206
    19  C   -0.098448
    20  C   -0.188632
    21  C   -0.370850
    22  C   -0.353495
    23  C   -0.127739
    24  C   -0.107921
    25  C    0.051952
    26  C    0.111216
    27  C   -0.366414
    28  C   -0.379385
    29  C   -0.107960
    30  C   -0.133486
    31  C   -0.075887
    32  C   -0.068106
    33  C   -0.134923
    34  C   -0.116175
    35  C    0.114587
    36  C    0.112856
    37  C   -0.359230
    38  C   -0.382962
    39  C   -0.092451
    40  C   -0.106301
    41  C   -0.099241
    42  C   -0.091241
    43  H    0.111365
    44  H    0.074419
    45  H    0.065115
    46  H    0.105427
    47  H    0.097950
    48  H    0.062352
    49  H    0.131830
    50  H    0.106958
    51  H    0.104735
    52  H    0.098900
    53  H    0.097207
    54  H    0.109447
    55  H    0.083095
    56  H    0.102173
    57  H    0.078888
    58  H    0.109285
    59  H    0.089001
    60  H    0.115842
    61  H    0.097660
    62  H    0.109227
    63  H    0.090524
    64  H    0.090161
    65  H    0.099412
    66  H    0.097000
    67  H    0.127274
    68  H    0.097526
    69  H    0.087226
    70  H    0.099193
    71  H    0.123760
    72  H    0.116290
    73  H    0.286408
    74  H    0.308349
    75  H    0.092891
    76  H    0.089224
    77  H    0.120578
    78  H    0.138048
    79  H    0.105802
    80  H    0.092434
    81  H    0.137061
    82  H    0.110983
    83  H    0.088774
    84  H    0.086286
    85  H    0.064719
    86  H    0.077396
    87  H    0.082610
    88  H    0.083780
    89  H    0.119177
    90  H    0.106035
    91  H    0.105700
    92  H    0.092045
    93  H    0.133095
    94  H    0.097586
    95  H    0.066833
    96  H    0.082332
    97  H    0.092980
    98  H    0.094213
 Sum of Mulliken charges =  -0.00000

 Dipole moment (field-independent basis, Debye):
    X=              3.2820    Y=             -1.5314    Z=              1.7789  Tot=              4.0350
 Quadrupole moment (field-independent basis, Debye-Ang):
   XX=           -302.5579   YY=           -243.9911   ZZ=           -260.0758
   XY=             11.3453   XZ=             -4.7754   YZ=              3.0244

 Normal termination of Gaussian 16 at Fri Jul 19 09:45:22 2019.
