 Gaussian 16, Revision A.03,
 Gaussian 16:  ES64L-G16RevA.03 25-Dec-2016

 -------------------------------------
 # td=(NStates=1) CAM-B3LYP/6-31G(d,p)
 -------------------------------------

 --
 TD
 --
 Symbolic Z-matrix:
 Charge =  0 Multiplicity = 1

                         Standard orientation:
 ---------------------------------------------------------------------
 Center     Atomic      Atomic             Coordinates (Angstroms)
 Number     Number       Type             X           Y           Z
 ---------------------------------------------------------------------
      1          8           0       14.658477   -2.270690   -0.085633
      2          8           0      -14.794679    1.744431    1.072608
      3          6           0       11.142309   -1.587988    0.896316
      4          6           0      -12.345104   -1.033528    0.648855
      5          6           0       12.591423   -1.946577    1.053574
      6          6           0      -13.648409   -0.436658    0.755036
      7          6           0       13.321025   -1.952539   -0.208523
      8          6           0      -13.522006    1.091884    0.948866
      9          6           0       10.920510   -0.219371    0.033637
     10          6           0      -11.288666   -0.183140   -0.087536
     11          6           0       13.329124   -0.518023   -0.821305
     12          6           0      -12.812160    1.778454   -0.244429
     13          6           0       11.915370    0.196393   -0.801850
     14          6           0      -11.486615    1.125029   -0.575249
     15          6           0       10.590573   -1.251117    2.350099
     16          6           0       10.337347   -2.764583    0.190298
     17          6           0      -11.699420   -1.431456    1.952348
     18          6           0      -12.641578   -2.301792   -0.105131
     19          6           0        9.696932    0.375561    0.088722
     20          6           0      -10.043410   -0.912549   -0.418803
     21          6           0       11.956632    1.314516   -1.737817
     22          6           0      -10.542928    1.914246   -1.283618
     23          6           0        9.419014    1.765432    0.133693
     24          6           0       -8.770953   -0.395531   -0.342058
     25          6           0        8.016761    2.284071    0.310283
     26          6           0       -7.520216   -1.237745   -0.588724
     27          6           0        8.000573    3.735374    0.712318
     28          6           0       -7.674035   -2.669378   -0.964261
     29          6           0        6.909240    1.531449    0.034142
     30          6           0       -6.323766   -0.567437   -0.433447
     31          6           0        5.646420    2.108017    0.246436
     32          6           0       -5.047055   -1.091549   -0.566659
     33          6           0        4.425047    1.283768   -0.062687
     34          6           0       -3.909292   -0.234833   -0.392729
     35          6           0        3.106772    1.711637    0.004840
     36          6           0       -2.617129   -0.588714   -0.709241
     37          6           0        2.867822    3.015234    0.426872
     38          6           0       -2.397463   -2.077811   -0.997330
     39          6           0        2.109276    0.818997   -0.206533
     40          6           0       -1.564268    0.162836   -0.371972
     41          6           0        0.598485    0.873422   -0.109804
     42          6           0       -0.188131    0.000791   -0.433850
     43          1           0       12.940748   -1.369968    1.885710
     44          1           0       12.394638   -2.915669    1.538024
     45          1           0      -14.293724   -0.837889    1.438802
     46          1           0      -14.090351   -0.442568   -0.182938
     47          1           0       12.705084   -2.526444   -0.917059
     48          1           0      -12.952422    1.382076    1.800661
     49          1           0       14.039640    0.179700   -0.265854
     50          1           0       13.719518   -0.365974   -1.790797
     51          1           0      -13.408123    1.782382   -1.098204
     52          1           0      -12.674444    2.837465   -0.263189
     53          1           0       10.616352   -2.310544    2.956938
     54          1           0        9.568381   -0.907332    2.454048
     55          1           0       11.179956   -0.341806    2.863221
     56          1           0       10.707730   -3.082714   -0.766194
     57          1           0       10.002112   -3.791339    0.943955
     58          1           0        9.446251   -2.299516   -0.073095
     59          1           0      -11.854962   -0.445600    2.446330
     60          1           0      -10.580968   -2.030438    2.007571
     61          1           0      -12.420058   -1.949916    2.829674
     62          1           0      -13.342990   -2.901900    0.424402
     63          1           0      -11.925685   -3.122184   -0.122558
     64          1           0      -13.028781   -2.304417   -1.196985
     65          1           0        8.874595   -0.246690    0.470391
     66          1           0      -10.169276   -1.931493   -0.638792
     67          1           0       10.901511    1.380782   -2.343938
     68          1           0       12.288554    2.362578   -1.369523
     69          1           0       12.621953    1.278008   -2.717718
     70          1           0      -11.233822    2.200986   -2.327805
     71          1           0       -9.610524    1.332037   -1.694785
     72          1           0      -10.186335    2.736471   -0.586563
     73          1           0       14.799760   -3.212330   -0.067023
     74          1           0      -15.191984    1.475229    1.844201
     75          1           0       10.183972    2.475813    0.186426
     76          1           0       -8.600345    0.743776   -0.136871
     77          1           0        8.874221    4.135466    0.710870
     78          1           0        7.163702    4.162257    0.144145
     79          1           0        7.539702    3.761232    1.743413
     80          1           0       -8.092421   -3.414734   -0.112167
     81          1           0       -8.112892   -2.707913   -2.000867
     82          1           0       -6.524397   -2.879951   -1.162029
     83          1           0        6.815206    0.565824   -0.613525
     84          1           0       -6.467097    0.548571   -0.242427
     85          1           0        5.558992    3.158913    0.496006
     86          1           0       -5.002533   -2.345074   -0.603176
     87          1           0        4.572792    0.280962   -0.498148
     88          1           0       -4.275318    0.812721   -0.235390
     89          1           0        3.019534    3.296838    1.491411
     90          1           0        1.746892    3.545212    0.461023
     91          1           0        3.423571    3.804300   -0.184952
     92          1           0       -2.548393   -2.831396   -0.206331
     93          1           0       -3.104035   -2.544458   -1.853006
     94          1           0       -1.315653   -2.091423   -1.246183
     95          1           0        2.376364   -0.282938   -0.798995
     96          1           0       -1.836159    1.242046   -0.198444
     97          1           0        0.250102    1.840025    0.464245
     98          1           0        0.453177   -0.785718   -0.918417
 ---------------------------------------------------------------------

 SCF Done:  E(RCAM-B3LYP) =  -1706.86074385     A.U. after   15 cycles

 Excitation energies and oscillator strengths:

 Excited State   1:      Singlet-A      2.3126 eV  536.13 nm  f=3.5502  <S**2>=0.000
     155 ->158        -0.19754
     156 ->157         0.67305
 This state for optimization and/or second-order correction.
 Total Energy, E(TD-HF/TD-DFT) =  -1706.77575847
 Copying the excited state density for this state as the 1-particle RhoCI density.

 The electronic state is 1-A.
 Alpha  occ. eigenvalues --  -19.21257 -19.20249 -10.30401 -10.30291 -10.28664
 Alpha  occ. eigenvalues --  -10.28035 -10.27726 -10.27492 -10.27431 -10.27410
 Alpha  occ. eigenvalues --  -10.27359 -10.27348 -10.27251 -10.27171 -10.27127
 Alpha  occ. eigenvalues --  -10.27125 -10.26918 -10.26719 -10.26643 -10.26594
 Alpha  occ. eigenvalues --  -10.26556 -10.26482 -10.26481 -10.26420 -10.26395
 Alpha  occ. eigenvalues --  -10.26339 -10.26043 -10.25993 -10.25919 -10.25889
 Alpha  occ. eigenvalues --  -10.25882 -10.25860 -10.25860 -10.25732 -10.25235
 Alpha  occ. eigenvalues --  -10.25023 -10.24935 -10.24842 -10.24254 -10.23976
 Alpha  occ. eigenvalues --  -10.23710 -10.23627  -1.10965  -1.09868  -0.94657
 Alpha  occ. eigenvalues --   -0.93293  -0.93207  -0.91926  -0.90640  -0.90155
 Alpha  occ. eigenvalues --   -0.88676  -0.88119  -0.87162  -0.85167  -0.85061
 Alpha  occ. eigenvalues --   -0.82554  -0.82082  -0.79950  -0.79691  -0.77306
 Alpha  occ. eigenvalues --   -0.76709  -0.76223  -0.76106  -0.76070  -0.75487
 Alpha  occ. eigenvalues --   -0.75204  -0.74644  -0.74419  -0.73336  -0.70095
 Alpha  occ. eigenvalues --   -0.69194  -0.68049  -0.66715  -0.65493  -0.63787
 Alpha  occ. eigenvalues --   -0.63080  -0.62155  -0.60976  -0.60659  -0.60409
 Alpha  occ. eigenvalues --   -0.59898  -0.58856  -0.58559  -0.57310  -0.55986
 Alpha  occ. eigenvalues --   -0.55830  -0.55583  -0.55282  -0.54440  -0.54030
 Alpha  occ. eigenvalues --   -0.53447  -0.52416  -0.51919  -0.50924  -0.50774
 Alpha  occ. eigenvalues --   -0.50370  -0.50070  -0.49969  -0.49567  -0.49217
 Alpha  occ. eigenvalues --   -0.48883  -0.48666  -0.48608  -0.48384  -0.47896
 Alpha  occ. eigenvalues --   -0.47528  -0.47464  -0.46837  -0.46616  -0.46244
 Alpha  occ. eigenvalues --   -0.46060  -0.45374  -0.45213  -0.44654  -0.44444
 Alpha  occ. eigenvalues --   -0.44096  -0.43466  -0.43401  -0.43111  -0.43055
 Alpha  occ. eigenvalues --   -0.42861  -0.42587  -0.42049  -0.41984  -0.41636
 Alpha  occ. eigenvalues --   -0.41455  -0.41355  -0.40971  -0.40818  -0.40535
 Alpha  occ. eigenvalues --   -0.40137  -0.39744  -0.39645  -0.39319  -0.38787
 Alpha  occ. eigenvalues --   -0.38730  -0.37731  -0.37509  -0.37401  -0.37340
 Alpha  occ. eigenvalues --   -0.37056  -0.36902  -0.36755  -0.35978  -0.35716
 Alpha  occ. eigenvalues --   -0.35541  -0.34617  -0.33797  -0.32702  -0.32460
 Alpha  occ. eigenvalues --   -0.31927  -0.30525  -0.27319  -0.26036  -0.22135
 Alpha  occ. eigenvalues --   -0.19627
 Alpha virt. eigenvalues --   -0.05162  -0.01855   0.02542   0.04949   0.08046
 Alpha virt. eigenvalues --    0.09802   0.10997   0.11274   0.11579   0.11724
 Alpha virt. eigenvalues --    0.12161   0.12417   0.12828   0.13133   0.13463

 Mulliken charges:
               1
     1  O   -0.550286
     2  O   -0.559924
     3  C   -0.025400
     4  C    0.000223
     5  C   -0.157429
     6  C   -0.186452
     7  C    0.178821
     8  C    0.140629
     9  C    0.075994
    10  C    0.046459
    11  C   -0.216842
    12  C   -0.225086
    13  C    0.062129
    14  C    0.088682
    15  C   -0.308022
    16  C   -0.299492
    17  C   -0.282871
    18  C   -0.312410
    19  C   -0.128725
    20  C   -0.136629
    21  C   -0.383285
    22  C   -0.365479
    23  C   -0.114094
    24  C   -0.106950
    25  C    0.060229
    26  C    0.087962
    27  C   -0.353694
    28  C   -0.360930
    29  C   -0.102439
    30  C   -0.103071
    31  C   -0.102891
    32  C   -0.094330
    33  C   -0.154649
    34  C   -0.128205
    35  C    0.212424
    36  C    0.107669
    37  C   -0.410334
    38  C   -0.361156
    39  C   -0.176482
    40  C   -0.142403
    41  C   -0.063411
    42  C   -0.020793
    43  H    0.103821
    44  H    0.085802
    45  H    0.096987
    46  H    0.125308
    47  H    0.077898
    48  H    0.087754
    49  H    0.109058
    50  H    0.106895
    51  H    0.121834
    52  H    0.106862
    53  H    0.076577
    54  H    0.115844
    55  H    0.098233
    56  H    0.114841
    57  H    0.062708
    58  H    0.116925
    59  H    0.099836
    60  H    0.108909
    61  H    0.059413
    62  H    0.102042
    63  H    0.089372
    64  H    0.091106
    65  H    0.095323
    66  H    0.091726
    67  H    0.103000
    68  H    0.116132
    69  H    0.097237
    70  H    0.074396
    71  H    0.121062
    72  H    0.122178
    73  H    0.302522
    74  H    0.294223
    75  H    0.084280
    76  H    0.080130
    77  H    0.112467
    78  H    0.125237
    79  H    0.122516
    80  H    0.114661
    81  H    0.131958
    82  H    0.085831
    83  H    0.098447
    84  H    0.078505
    85  H    0.086462
    86  H    0.088312
    87  H    0.080908
    88  H    0.082430
    89  H    0.129284
    90  H    0.084598
    91  H    0.115237
    92  H    0.124659
    93  H    0.091540
    94  H    0.102803
    95  H    0.042281
    96  H    0.081816
    97  H    0.068097
    98  H    0.084659
 Sum of Mulliken charges =  -0.00000

 Dipole moment (field-independent basis, Debye):
    X=              0.7577    Y=             -1.0081    Z=              0.7758  Tot=              1.4806
 Quadrupole moment (field-independent basis, Debye-Ang):
   XX=           -258.3769   YY=           -240.4609   ZZ=           -261.2532
   XY=              8.3711   XZ=            -18.0729   YZ=              4.5586

 Normal termination of Gaussian 16 at Mon Jul 15 05:44:01 2019.
