 Gaussian 16, Revision A.03,
 Gaussian 16:  ES64L-G16RevA.03 25-Dec-2016

 -------------------------------------
 # td=(NStates=1) CAM-B3LYP/6-31G(d,p)
 -------------------------------------

 --
 TD
 --
 Symbolic Z-matrix:
 Charge =  0 Multiplicity = 1

                         Standard orientation:
 ---------------------------------------------------------------------
 Center     Atomic      Atomic             Coordinates (Angstroms)
 Number     Number       Type             X           Y           Z
 ---------------------------------------------------------------------
      1          8           0       14.719723   -2.296441   -0.270824
      2          8           0      -14.849796    1.824946    0.670696
      3          6           0       11.127839   -1.401735    1.039885
      4          6           0      -12.310471   -0.991016    0.673844
      5          6           0       12.681376   -1.778198    0.970067
      6          6           0      -13.587395   -0.381187    0.697450
      7          6           0       13.298534   -2.031417   -0.271480
      8          6           0      -13.586878    1.156394    0.787826
      9          6           0       10.951823   -0.347544   -0.005978
     10          6           0      -11.247254   -0.262541   -0.014229
     11          6           0       13.119174   -0.737386   -1.099485
     12          6           0      -12.739038    1.697933   -0.427333
     13          6           0       11.780787   -0.088443   -0.930252
     14          6           0      -11.459851    0.896458   -0.646739
     15          6           0       10.822247   -0.946796    2.372890
     16          6           0       10.268389   -2.715921    0.667610
     17          6           0      -11.882787   -1.281270    2.113361
     18          6           0      -12.566277   -2.377647   -0.032313
     19          6           0        9.607020    0.326900    0.157405
     20          6           0      -10.031004   -1.050842   -0.200630
     21          6           0       11.642134    0.870368   -2.097619
     22          6           0      -10.507701    1.544607   -1.569694
     23          6           0        9.396984    1.634807    0.031439
     24          6           0       -8.732865   -0.538210   -0.321960
     25          6           0        8.028578    2.311332    0.132147
     26          6           0       -7.534640   -1.270385   -0.492981
     27          6           0        8.023027    3.766659    0.310058
     28          6           0       -7.678121   -2.719796   -0.868023
     29          6           0        6.845488    1.669234    0.019431
     30          6           0       -6.325524   -0.628606   -0.428878
     31          6           0        5.603811    2.193103    0.171982
     32          6           0       -5.006029   -1.080961   -0.604050
     33          6           0        4.474896    1.377858    0.202540
     34          6           0       -3.947172   -0.166203   -0.454175
     35          6           0        3.136529    1.838006    0.387188
     36          6           0       -2.615735   -0.506948   -0.562919
     37          6           0        2.797824    3.197393    0.916589
     38          6           0       -2.177554   -1.993639   -1.099081
     39          6           0        2.165448    0.924726    0.119051
     40          6           0       -1.572681    0.349453   -0.270687
     41          6           0        0.736588    1.133221   -0.001692
     42          6           0       -0.158005    0.115391   -0.337352
     43          1           0       13.241449   -0.978325    1.502635
     44          1           0       12.643622   -2.776931    1.593767
     45          1           0      -14.358044   -0.618809    1.410312
     46          1           0      -13.859691   -0.695991   -0.364693
     47          1           0       12.821070   -2.775252   -0.846940
     48          1           0      -13.191379    1.553821    1.786073
     49          1           0       14.003060   -0.164524   -0.942237
     50          1           0       13.354262   -0.948135   -2.208391
     51          1           0      -13.326773    1.913266   -1.172383
     52          1           0      -12.143558    2.682530   -0.264011
     53          1           0       11.129129   -1.813376    3.032738
     54          1           0        9.679525   -0.909308    2.404389
     55          1           0       11.369376   -0.204420    2.935206
     56          1           0       10.491615   -2.956720   -0.271261
     57          1           0       10.536031   -3.359956    1.529969
     58          1           0        9.141176   -2.726419    0.785589
     59          1           0      -11.819233   -0.310101    2.700833
     60          1           0      -10.988388   -1.738435    2.416497
     61          1           0      -12.584191   -1.978541    2.591588
     62          1           0      -13.509807   -2.836079    0.410655
     63          1           0      -11.582563   -3.200476    0.168407
     64          1           0      -13.003633   -2.344480   -0.862306
     65          1           0        8.766484   -0.297956    0.355422
     66          1           0      -10.167956   -2.079733   -0.076738
     67          1           0       10.642297    1.411564   -2.039495
     68          1           0       12.214855    1.876071   -2.150858
     69          1           0       11.514959    0.158584   -3.160238
     70          1           0      -11.028056    1.917242   -2.489944
     71          1           0       -9.970862    0.770328   -2.234722
     72          1           0       -9.816905    2.269539   -1.228727
     73          1           0       14.651476   -3.081393    0.280061
     74          1           0      -15.320005    1.587188    1.543082
     75          1           0       10.075156    2.293462   -0.185501
     76          1           0       -8.728313    0.461583   -0.068166
     77          1           0        9.105511    4.214833   -0.465559
     78          1           0        7.002633    4.055115   -0.170552
     79          1           0        8.140618    4.055242    1.471524
     80          1           0       -8.469059   -3.294279   -0.291284
     81          1           0       -8.308819   -2.733349   -1.765555
     82          1           0       -6.674826   -3.057948   -1.190307
     83          1           0        7.041720    0.708343   -0.065637
     84          1           0       -6.479563    0.570832   -0.221162
     85          1           0        5.656847    3.309579    0.365325
     86          1           0       -4.724635   -2.046349   -0.867039
     87          1           0        4.409086    0.448126   -0.266809
     88          1           0       -4.104635    0.873941   -0.131903
     89          1           0        3.560435    3.626799    1.622363
     90          1           0        1.720907    3.124968    1.795860
     91          1           0        2.855388    4.033401   -0.142890
     92          1           0       -2.581437   -2.634323   -0.323959
     93          1           0       -2.883543   -2.073756   -2.072017
     94          1           0       -1.276481   -2.110998   -1.245958
     95          1           0        2.662222   -0.020895   -0.078841
     96          1           0       -1.949612    1.283987   -0.003106
     97          1           0        0.078439    1.945348    0.317535
     98          1           0        0.334125   -0.849395   -0.548900
 ---------------------------------------------------------------------

 SCF Done:  E(RCAM-B3LYP) =  -1706.81170200     A.U. after   15 cycles

 Excitation energies and oscillator strengths:

 Excited State   1:      Singlet-A      2.2589 eV  548.87 nm  f=3.8283  <S**2>=0.000
     155 ->158         0.16022
     156 ->157         0.68762
 This state for optimization and/or second-order correction.
 Total Energy, E(TD-HF/TD-DFT) =  -1706.72868927
 Copying the excited state density for this state as the 1-particle RhoCI density.

 The electronic state is 1-A.
 Alpha  occ. eigenvalues --  -19.21860 -19.21413 -10.31236 -10.30181 -10.29203
 Alpha  occ. eigenvalues --  -10.28967 -10.28001 -10.27107 -10.27064 -10.27000
 Alpha  occ. eigenvalues --  -10.26909 -10.26878 -10.26809 -10.26803 -10.26716
 Alpha  occ. eigenvalues --  -10.26604 -10.26551 -10.26513 -10.26378 -10.26345
 Alpha  occ. eigenvalues --  -10.26255 -10.26052 -10.25907 -10.25898 -10.25814
 Alpha  occ. eigenvalues --  -10.25793 -10.25789 -10.25753 -10.25541 -10.25244
 Alpha  occ. eigenvalues --  -10.25218 -10.25157 -10.25127 -10.25123 -10.25014
 Alpha  occ. eigenvalues --  -10.25008 -10.24865 -10.24854 -10.24755 -10.24376
 Alpha  occ. eigenvalues --  -10.24076 -10.23382  -1.09763  -1.08619  -0.95589
 Alpha  occ. eigenvalues --   -0.94995  -0.92667  -0.91823  -0.90910  -0.90143
 Alpha  occ. eigenvalues --   -0.88115  -0.87713  -0.87068  -0.86206  -0.84684
 Alpha  occ. eigenvalues --   -0.83389  -0.82122  -0.80393  -0.79399  -0.77779
 Alpha  occ. eigenvalues --   -0.77503  -0.77390  -0.76820  -0.76612  -0.76423
 Alpha  occ. eigenvalues --   -0.75890  -0.75208  -0.74549  -0.73960  -0.71100
 Alpha  occ. eigenvalues --   -0.69177  -0.67764  -0.66589  -0.66087  -0.65724
 Alpha  occ. eigenvalues --   -0.64254  -0.63622  -0.62240  -0.60845  -0.60082
 Alpha  occ. eigenvalues --   -0.59259  -0.58975  -0.58447  -0.57417  -0.56486
 Alpha  occ. eigenvalues --   -0.56210  -0.55688  -0.55362  -0.54869  -0.54488
 Alpha  occ. eigenvalues --   -0.54016  -0.53246  -0.52695  -0.51860  -0.51452
 Alpha  occ. eigenvalues --   -0.51027  -0.50828  -0.50468  -0.50241  -0.50024
 Alpha  occ. eigenvalues --   -0.49751  -0.49383  -0.48817  -0.48088  -0.47528
 Alpha  occ. eigenvalues --   -0.47500  -0.46952  -0.46795  -0.46549  -0.46375
 Alpha  occ. eigenvalues --   -0.46140  -0.46059  -0.45734  -0.45659  -0.45379
 Alpha  occ. eigenvalues --   -0.44807  -0.44516  -0.43915  -0.43637  -0.43073
 Alpha  occ. eigenvalues --   -0.42729  -0.42454  -0.42275  -0.42231  -0.41811
 Alpha  occ. eigenvalues --   -0.41678  -0.41442  -0.41027  -0.40884  -0.40688
 Alpha  occ. eigenvalues --   -0.40312  -0.39568  -0.39312  -0.39235  -0.39048
 Alpha  occ. eigenvalues --   -0.38900  -0.38528  -0.38393  -0.38258  -0.37780
 Alpha  occ. eigenvalues --   -0.37648  -0.37283  -0.36838  -0.36575  -0.35715
 Alpha  occ. eigenvalues --   -0.35392  -0.34509  -0.33734  -0.32889  -0.32535
 Alpha  occ. eigenvalues --   -0.31905  -0.30426  -0.28956  -0.26709  -0.23124
 Alpha  occ. eigenvalues --   -0.19413
 Alpha virt. eigenvalues --   -0.05566  -0.01140   0.03003   0.05838   0.07934
 Alpha virt. eigenvalues --    0.08782   0.09719   0.10497   0.10874   0.10979
 Alpha virt. eigenvalues --    0.11492   0.11861   0.13212   0.13378   0.13460

 Mulliken charges:
               1
     1  O   -0.548656
     2  O   -0.561078
     3  C   -0.048341
     4  C   -0.019463
     5  C   -0.193791
     6  C   -0.186930
     7  C    0.151686
     8  C    0.150327
     9  C    0.108142
    10  C    0.121068
    11  C   -0.243527
    12  C   -0.204231
    13  C    0.059506
    14  C    0.029330
    15  C   -0.290167
    16  C   -0.302743
    17  C   -0.306264
    18  C   -0.287754
    19  C   -0.125444
    20  C   -0.106249
    21  C   -0.359708
    22  C   -0.392555
    23  C   -0.038328
    24  C   -0.110370
    25  C    0.039380
    26  C    0.135884
    27  C   -0.340902
    28  C   -0.382889
    29  C   -0.026117
    30  C   -0.133216
    31  C   -0.109933
    32  C   -0.091124
    33  C   -0.132574
    34  C   -0.111853
    35  C    0.158406
    36  C    0.088822
    37  C   -0.333960
    38  C   -0.328866
    39  C   -0.154588
    40  C   -0.145552
    41  C   -0.084983
    42  C   -0.071964
    43  H    0.109141
    44  H    0.052561
    45  H    0.087582
    46  H    0.092894
    47  H    0.087352
    48  H    0.075150
    49  H    0.129681
    50  H    0.092743
    51  H    0.128997
    52  H    0.094047
    53  H    0.084735
    54  H    0.102275
    55  H    0.118864
    56  H    0.122400
    57  H    0.105443
    58  H    0.099418
    59  H    0.089026
    60  H    0.110251
    61  H    0.092482
    62  H    0.086591
    63  H    0.073835
    64  H    0.117853
    65  H    0.093123
    66  H    0.054158
    67  H    0.098100
    68  H    0.115724
    69  H    0.086932
    70  H    0.101805
    71  H    0.117773
    72  H    0.129698
    73  H    0.300397
    74  H    0.303927
    75  H    0.062632
    76  H    0.079387
    77  H    0.047847
    78  H    0.114296
    79  H    0.118778
    80  H    0.118508
    81  H    0.127187
    82  H    0.110002
    83  H    0.047717
    84  H    0.066780
    85  H    0.086994
    86  H    0.092269
    87  H    0.086950
    88  H    0.084330
    89  H    0.122405
    90  H    0.073460
    91  H    0.082139
    92  H    0.123179
    93  H    0.097697
    94  H    0.103617
    95  H    0.079484
    96  H    0.072730
    97  H    0.092500
    98  H    0.085724
 Sum of Mulliken charges =  -0.00000

 Dipole moment (field-independent basis, Debye):
    X=             -1.5506    Y=             -1.9256    Z=              1.9621  Tot=              3.1562
 Quadrupole moment (field-independent basis, Debye-Ang):
   XX=           -279.9104   YY=           -249.1873   ZZ=           -259.5779
   XY=              8.3218   XZ=             -0.7347   YZ=              2.0142

 Normal termination of Gaussian 16 at Thu Jul 18 22:38:01 2019.
