 Gaussian 16, Revision A.03,
 Gaussian 16:  ES64L-G16RevA.03 25-Dec-2016

 -------------------------------------
 # td=(NStates=1) CAM-B3LYP/6-31G(d,p)
 -------------------------------------

 --
 TD
 --
 Symbolic Z-matrix:
 Charge =  0 Multiplicity = 1

                         Standard orientation:
 ---------------------------------------------------------------------
 Center     Atomic      Atomic             Coordinates (Angstroms)
 Number     Number       Type             X           Y           Z
 ---------------------------------------------------------------------
      1          8           0       14.785493   -1.961836   -0.173501
      2          8           0      -14.555142    2.180765    1.075246
      3          6           0       11.142953   -1.412877    1.077057
      4          6           0      -12.280624   -1.003128    0.614994
      5          6           0       12.687272   -1.608455    1.051664
      6          6           0      -13.532105   -0.085616    0.686442
      7          6           0       13.325051   -1.808372   -0.324431
      8          6           0      -13.329283    1.396930    0.921608
      9          6           0       10.895627   -0.167851   -0.007917
     10          6           0      -11.293843   -0.226834   -0.279642
     11          6           0       13.119455   -0.543562   -1.107410
     12          6           0      -12.564031    1.991178   -0.295334
     13          6           0       11.817632    0.055628   -0.978288
     14          6           0      -11.508459    0.975843   -0.705929
     15          6           0       10.685988   -1.041659    2.514554
     16          6           0       10.278794   -2.578735    0.589729
     17          6           0      -11.685656   -1.370692    1.973661
     18          6           0      -12.787113   -2.273114   -0.073247
     19          6           0        9.650677    0.393674    0.199174
     20          6           0      -10.060449   -1.021514   -0.587930
     21          6           0       11.610520    1.080078   -2.055436
     22          6           0      -10.454294    1.736710   -1.572852
     23          6           0        9.384381    1.714934   -0.096337
     24          6           0       -8.861557   -0.574661   -0.354912
     25          6           0        8.005588    2.210965    0.129608
     26          6           0       -7.629958   -1.319744   -0.572828
     27          6           0        7.890966    3.738136    0.412173
     28          6           0       -7.562378   -2.741711   -0.988750
     29          6           0        6.851861    1.503033    0.018032
     30          6           0       -6.341873   -0.708633   -0.348511
     31          6           0        5.511802    1.918842    0.282953
     32          6           0       -5.040845   -1.221160   -0.466408
     33          6           0        4.324847    1.155326    0.107581
     34          6           0       -3.934756   -0.440701   -0.323779
     35          6           0        3.056167    1.642421    0.094855
     36          6           0       -2.603014   -0.881765   -0.405222
     37          6           0        2.830171    3.101513    0.660393
     38          6           0       -2.189968   -2.264065   -0.755440
     39          6           0        2.049425    0.637223   -0.051185
     40          6           0       -1.644701    0.110001   -0.323389
     41          6           0        0.687263    0.940830   -0.165908
     42          6           0       -0.215101   -0.141717   -0.158760
     43          1           0       13.226446   -0.656136    1.445972
     44          1           0       12.924102   -2.726486    1.526031
     45          1           0      -14.115689   -0.415437    1.556472
     46          1           0      -14.289282   -0.200107   -0.150743
     47          1           0       12.999778   -2.851014   -0.891416
     48          1           0      -12.624063    1.714499    1.795066
     49          1           0       13.765324    0.300318   -0.951219
     50          1           0       13.376095   -0.763305   -2.174155
     51          1           0      -13.203074    1.885875   -1.149198
     52          1           0      -12.289400    3.024389   -0.180008
     53          1           0       10.863371   -1.998623    3.248482
     54          1           0        9.575376   -0.599511    2.349234
     55          1           0       11.176039   -0.112306    2.898660
     56          1           0       10.351468   -2.875618   -0.521060
     57          1           0       10.422301   -3.541338    1.278110
     58          1           0        9.233573   -2.126562    0.764867
     59          1           0      -11.272118   -0.524117    2.544675
     60          1           0      -10.854057   -1.879107    2.045481
     61          1           0      -12.594891   -1.942945    2.511140
     62          1           0      -13.625698   -2.658005    0.373701
     63          1           0      -12.320992   -3.404975    0.052514
     64          1           0      -13.048334   -2.065799   -1.203425
     65          1           0        8.776503   -0.113337    0.253526
     66          1           0      -10.272126   -1.941762   -1.279707
     67          1           0       10.663601    1.360293   -2.157597
     68          1           0       12.049452    1.851054   -1.537031
     69          1           0       12.190182    0.591177   -2.877209
     70          1           0      -11.075622    2.314038   -2.270707
     71          1           0       -9.751307    1.238763   -2.128120
     72          1           0       -9.947631    2.570652   -1.021677
     73          1           0       14.869845   -2.816393    0.170483
     74          1           0      -15.132955    1.632573    1.744416
     75          1           0       10.277968    2.284169   -0.545193
     76          1           0       -8.336378    0.330952    0.410729
     77          1           0        8.778741    4.324302    0.367984
     78          1           0        7.136686    4.060410   -0.425590
     79          1           0        7.383379    3.858757    1.420177
     80          1           0       -7.939475   -3.407240   -0.192998
     81          1           0       -8.305990   -3.043461   -1.742326
     82          1           0       -6.660246   -3.284744   -1.148910
     83          1           0        6.915027    0.450202   -0.228257
     84          1           0       -6.422490    0.282588   -0.173540
     85          1           0        5.445607    2.994910    0.643347
     86          1           0       -5.003113   -2.411445   -0.534377
     87          1           0        4.143240    0.138970   -0.234979
     88          1           0       -4.102533    0.596136    0.019972
     89          1           0        3.910006    3.393182    1.361408
     90          1           0        1.695198    3.252059    1.193463
     91          1           0        2.556256    3.704253   -0.514991
     92          1           0       -2.860287   -2.967329   -0.069733
     93          1           0       -2.524537   -2.633682   -1.819924
     94          1           0       -1.029783   -2.607612   -0.610399
     95          1           0        2.379759   -0.431486   -0.199337
     96          1           0       -1.773944    1.182001   -0.110392
     97          1           0        0.286950    2.057597   -0.043981
     98          1           0        0.442361   -1.345860   -0.109473
 ---------------------------------------------------------------------

 SCF Done:  E(RCAM-B3LYP) =  -1706.82365807     A.U. after   15 cycles

 Excitation energies and oscillator strengths:

 Excited State   1:      Singlet-A      2.0842 eV  594.87 nm  f=3.5137  <S**2>=0.000
     155 ->158         0.13978
     156 ->157         0.69466
 This state for optimization and/or second-order correction.
 Total Energy, E(TD-HF/TD-DFT) =  -1706.74706420
 Copying the excited state density for this state as the 1-particle RhoCI density.

 The electronic state is 1-A.
 Alpha  occ. eigenvalues --  -19.21711 -19.20417 -10.31902 -10.31545 -10.31030
 Alpha  occ. eigenvalues --  -10.29372 -10.28394 -10.28320 -10.27996 -10.27877
 Alpha  occ. eigenvalues --  -10.27851 -10.27714 -10.27681 -10.27554 -10.27323
 Alpha  occ. eigenvalues --  -10.27146 -10.27066 -10.27041 -10.27040 -10.26945
 Alpha  occ. eigenvalues --  -10.26829 -10.26798 -10.26760 -10.26597 -10.26510
 Alpha  occ. eigenvalues --  -10.26411 -10.26226 -10.26145 -10.26114 -10.26107
 Alpha  occ. eigenvalues --  -10.25981 -10.25359 -10.25318 -10.25318 -10.25254
 Alpha  occ. eigenvalues --  -10.25139 -10.24937 -10.24895 -10.24862 -10.24649
 Alpha  occ. eigenvalues --  -10.23914 -10.23711  -1.08800  -1.06934  -0.94037
 Alpha  occ. eigenvalues --   -0.93888  -0.92271  -0.91628  -0.90337  -0.89908
 Alpha  occ. eigenvalues --   -0.87835  -0.87325  -0.86957  -0.85900  -0.84989
 Alpha  occ. eigenvalues --   -0.82934  -0.81619  -0.80224  -0.79745  -0.77339
 Alpha  occ. eigenvalues --   -0.77230  -0.76685  -0.76124  -0.75926  -0.75572
 Alpha  occ. eigenvalues --   -0.75292  -0.74019  -0.73983  -0.72931  -0.70840
 Alpha  occ. eigenvalues --   -0.68740  -0.66992  -0.65747  -0.65279  -0.64969
 Alpha  occ. eigenvalues --   -0.62662  -0.61376  -0.60393  -0.59884  -0.59512
 Alpha  occ. eigenvalues --   -0.58770  -0.58212  -0.57088  -0.56741  -0.55897
 Alpha  occ. eigenvalues --   -0.55815  -0.55147  -0.54615  -0.54173  -0.53768
 Alpha  occ. eigenvalues --   -0.53378  -0.52664  -0.52338  -0.52016  -0.51487
 Alpha  occ. eigenvalues --   -0.50973  -0.50176  -0.50144  -0.49359  -0.49109
 Alpha  occ. eigenvalues --   -0.48626  -0.47668  -0.47642  -0.47438  -0.47238
 Alpha  occ. eigenvalues --   -0.47145  -0.46551  -0.46256  -0.45743  -0.45668
 Alpha  occ. eigenvalues --   -0.45507  -0.45071  -0.45056  -0.44816  -0.44795
 Alpha  occ. eigenvalues --   -0.44472  -0.44178  -0.43961  -0.43329  -0.43102
 Alpha  occ. eigenvalues --   -0.43021  -0.42833  -0.42415  -0.42271  -0.41824
 Alpha  occ. eigenvalues --   -0.41404  -0.41307  -0.41030  -0.40824  -0.40482
 Alpha  occ. eigenvalues --   -0.40213  -0.40053  -0.39943  -0.39315  -0.39301
 Alpha  occ. eigenvalues --   -0.39110  -0.38919  -0.38678  -0.38659  -0.38253
 Alpha  occ. eigenvalues --   -0.37370  -0.37069  -0.36465  -0.36153  -0.35761
 Alpha  occ. eigenvalues --   -0.35025  -0.33951  -0.32722  -0.32194  -0.32043
 Alpha  occ. eigenvalues --   -0.31379  -0.29857  -0.28932  -0.26434  -0.23481
 Alpha  occ. eigenvalues --   -0.18963
 Alpha virt. eigenvalues --   -0.06130  -0.01026   0.02399   0.06047   0.07893
 Alpha virt. eigenvalues --    0.08530   0.09274   0.09786   0.10508   0.10918
 Alpha virt. eigenvalues --    0.11155   0.11563   0.11979   0.12565   0.12775

 Mulliken charges:
               1
     1  O   -0.551905
     2  O   -0.568856
     3  C   -0.001951
     4  C    0.015694
     5  C   -0.163653
     6  C   -0.213448
     7  C    0.142033
     8  C    0.167576
     9  C    0.046988
    10  C    0.039029
    11  C   -0.221618
    12  C   -0.212187
    13  C    0.019284
    14  C    0.035207
    15  C   -0.285764
    16  C   -0.282163
    17  C   -0.289361
    18  C   -0.310829
    19  C   -0.094595
    20  C   -0.177446
    21  C   -0.346796
    22  C   -0.351536
    23  C   -0.137613
    24  C   -0.037275
    25  C    0.052230
    26  C    0.108461
    27  C   -0.368210
    28  C   -0.390779
    29  C   -0.096802
    30  C   -0.136113
    31  C   -0.134739
    32  C   -0.071382
    33  C   -0.086650
    34  C   -0.113710
    35  C    0.111516
    36  C    0.140432
    37  C   -0.316625
    38  C   -0.361279
    39  C   -0.133933
    40  C   -0.142397
    41  C   -0.083878
    42  C   -0.078323
    43  H    0.108259
    44  H    0.042222
    45  H    0.074623
    46  H    0.109985
    47  H    0.067333
    48  H    0.074295
    49  H    0.138131
    50  H    0.108582
    51  H    0.124074
    52  H    0.121021
    53  H    0.090458
    54  H    0.090402
    55  H    0.107211
    56  H    0.101482
    57  H    0.082935
    58  H    0.098150
    59  H    0.099343
    60  H    0.125846
    61  H    0.076673
    62  H    0.115574
    63  H    0.072953
    64  H    0.097269
    65  H    0.098131
    66  H    0.109641
    67  H    0.129695
    68  H    0.135900
    69  H    0.104783
    70  H    0.094098
    71  H    0.119953
    72  H    0.105711
    73  H    0.296733
    74  H    0.302520
    75  H    0.082835
    76  H    0.081827
    77  H    0.114246
    78  H    0.115380
    79  H    0.117094
    80  H    0.114088
    81  H    0.111726
    82  H    0.116740
    83  H    0.076335
    84  H    0.062266
    85  H    0.078207
    86  H    0.076339
    87  H    0.076232
    88  H    0.091946
    89  H    0.110420
    90  H    0.097734
    91  H    0.079955
    92  H    0.097766
    93  H    0.120477
    94  H    0.105732
    95  H    0.092407
    96  H    0.092851
    97  H    0.088810
    98  H    0.057969
 Sum of Mulliken charges =  -0.00000

 Dipole moment (field-independent basis, Debye):
    X=             -1.2592    Y=             -2.4139    Z=              0.5556  Tot=              2.7787
 Quadrupole moment (field-independent basis, Debye-Ang):
   XX=           -275.2929   YY=           -246.8488   ZZ=           -265.1943
   XY=             19.5497   XZ=            -11.5628   YZ=              1.7132

 Normal termination of Gaussian 16 at Sun Jul 14 12:29:55 2019.
