 Gaussian 16, Revision A.03,
 Gaussian 16:  ES64L-G16RevA.03 25-Dec-2016

 -------------------------------------
 # td=(NStates=1) CAM-B3LYP/6-31G(d,p)
 -------------------------------------

 --
 TD
 --
 Symbolic Z-matrix:
 Charge =  0 Multiplicity = 1

                         Standard orientation:
 ---------------------------------------------------------------------
 Center     Atomic      Atomic             Coordinates (Angstroms)
 Number     Number       Type             X           Y           Z
 ---------------------------------------------------------------------
      1          8           0       14.686324   -2.187846   -0.328969
      2          8           0      -14.580550    2.076286    1.094768
      3          6           0       11.165341   -1.492770    1.011307
      4          6           0      -12.281122   -1.096884    0.712139
      5          6           0       12.710954   -1.952710    1.024654
      6          6           0      -13.549894   -0.204300    0.834962
      7          6           0       13.318711   -1.876763   -0.323833
      8          6           0      -13.297728    1.312126    1.011385
      9          6           0       10.958066   -0.199116    0.119701
     10          6           0      -11.263512   -0.231594   -0.172079
     11          6           0       13.261381   -0.396694   -0.889060
     12          6           0      -12.553669    1.936640   -0.206293
     13          6           0       11.877114    0.151141   -0.834138
     14          6           0      -11.412733    1.014268   -0.574189
     15          6           0       10.703618   -1.115608    2.448227
     16          6           0       10.250658   -2.587758    0.445958
     17          6           0      -11.738164   -1.470225    2.084441
     18          6           0      -12.696251   -2.347197   -0.021730
     19          6           0        9.541131    0.362550    0.168032
     20          6           0      -10.051889   -1.021540   -0.525006
     21          6           0       11.681854    1.420049   -1.731641
     22          6           0      -10.573520    1.785578   -1.543993
     23          6           0        9.258049    1.678837    0.091876
     24          6           0       -8.730407   -0.500940   -0.323756
     25          6           0        7.982805    2.318761    0.172499
     26          6           0       -7.542899   -1.196431   -0.567454
     27          6           0        7.910464    3.711518    0.532619
     28          6           0       -7.746971   -2.708805   -1.106120
     29          6           0        6.921830    1.590773   -0.068560
     30          6           0       -6.373143   -0.664424   -0.405583
     31          6           0        5.497201    1.999969    0.195331
     32          6           0       -5.063088   -1.049845   -0.619677
     33          6           0        4.398627    1.210431    0.011301
     34          6           0       -3.929602   -0.395197   -0.386194
     35          6           0        3.014344    1.604618    0.162980
     36          6           0       -2.646828   -0.867262   -0.680292
     37          6           0        2.784887    3.110841    0.488847
     38          6           0       -2.269466   -2.228065   -0.971418
     39          6           0        2.077386    0.619959   -0.078142
     40          6           0       -1.637813    0.099463   -0.358007
     41          6           0        0.683825    0.899655   -0.121887
     42          6           0       -0.233222   -0.071614   -0.423595
     43          1           0       13.308891   -1.372853    1.735086
     44          1           0       12.719510   -3.082634    1.327378
     45          1           0      -14.355300   -0.505260    1.725447
     46          1           0      -14.065236   -0.273291   -0.213495
     47          1           0       12.729170   -2.664558   -0.919684
     48          1           0      -12.750822    1.657388    1.992815
     49          1           0       13.900624    0.299066   -0.278211
     50          1           0       13.543470   -0.365187   -1.835636
     51          1           0      -13.154000    1.856067   -1.072176
     52          1           0      -12.204872    2.925559   -0.156853
     53          1           0       10.990532   -2.098984    3.133722
     54          1           0        9.646141   -0.981660    2.465694
     55          1           0       11.408770   -0.504522    2.639480
     56          1           0       10.456467   -3.051404   -0.534923
     57          1           0       10.581471   -3.501668    1.085661
     58          1           0        9.050194   -2.514249    0.482220
     59          1           0      -11.576525   -0.487959    2.782822
     60          1           0      -10.930369   -2.036965    2.047756
     61          1           0      -12.483869   -2.093986    2.543187
     62          1           0      -13.584189   -2.776755    0.476131
     63          1           0      -11.852690   -2.977979   -0.037759
     64          1           0      -13.109647   -2.116282   -0.973859
     65          1           0        8.567645   -0.297307    0.550175
     66          1           0      -10.230276   -1.941511   -1.394632
     67          1           0       10.736253    1.759141   -1.629346
     68          1           0       12.522017    2.239320   -1.159850
     69          1           0       11.971177    1.126372   -2.678652
     70          1           0      -11.098078    2.421799   -2.097324
     71          1           0       -9.816207    1.145649   -1.967997
     72          1           0       -9.816911    2.468846   -1.026375
     73          1           0       14.756044   -3.028907    0.075063
     74          1           0      -15.232388    1.442588    1.565613
     75          1           0       10.167761    2.410084    0.177552
     76          1           0       -8.614712    0.612625    0.125331
     77          1           0        8.901015    4.134744    0.592153
     78          1           0        7.488521    4.363522   -0.297819
     79          1           0        7.168917    3.923575    1.358126
     80          1           0       -8.114586   -3.059051   -0.313399
     81          1           0       -8.628367   -2.703840   -1.978312
     82          1           0       -6.691949   -2.870461   -1.467878
     83          1           0        7.028905    0.616894   -0.415230
     84          1           0       -6.456984    0.364460   -0.104413
     85          1           0        5.439499    3.006327    0.462893
     86          1           0       -4.845307   -2.251909   -0.747818
     87          1           0        4.620452    0.169297   -0.332512
     88          1           0       -4.023049    0.793108   -0.158531
     89          1           0        3.288877    3.386159    1.399148
     90          1           0        1.645274    3.262753    0.574184
     91          1           0        3.202202    3.551411   -0.482717
     92          1           0       -2.177069   -2.995402    0.089460
     93          1           0       -3.139474   -2.913052   -1.571844
     94          1           0       -1.239470   -2.162116   -1.524546
     95          1           0        2.567667   -0.244079   -0.451806
     96          1           0       -2.044718    1.080507   -0.323807
     97          1           0        0.257377    1.921936   -0.112574
     98          1           0        0.288072   -1.081498   -0.775193
 ---------------------------------------------------------------------

 SCF Done:  E(RCAM-B3LYP) =  -1706.90778903     A.U. after   15 cycles

 Excitation energies and oscillator strengths:

 Excited State   1:      Singlet-A      2.4286 eV  510.52 nm  f=3.6344  <S**2>=0.000
     155 ->158         0.16058
     156 ->157         0.68530
 This state for optimization and/or second-order correction.
 Total Energy, E(TD-HF/TD-DFT) =  -1706.81853929
 Copying the excited state density for this state as the 1-particle RhoCI density.

 The electronic state is 1-A.
 Alpha  occ. eigenvalues --  -19.21224 -19.20199 -10.31164 -10.31098 -10.29521
 Alpha  occ. eigenvalues --  -10.28480 -10.28230 -10.27912 -10.27799 -10.27777
 Alpha  occ. eigenvalues --  -10.27762 -10.27707 -10.27618 -10.27296 -10.27276
 Alpha  occ. eigenvalues --  -10.27094 -10.27088 -10.26689 -10.26670 -10.26643
 Alpha  occ. eigenvalues --  -10.26604 -10.26529 -10.26511 -10.26351 -10.26278
 Alpha  occ. eigenvalues --  -10.26269 -10.26236 -10.26189 -10.25859 -10.25821
 Alpha  occ. eigenvalues --  -10.25759 -10.25604 -10.25538 -10.25493 -10.24940
 Alpha  occ. eigenvalues --  -10.24910 -10.24585 -10.24346 -10.24219 -10.24216
 Alpha  occ. eigenvalues --  -10.23988 -10.23749  -1.11094  -1.05326  -0.93245
 Alpha  occ. eigenvalues --   -0.93107  -0.92764  -0.92109  -0.91416  -0.90636
 Alpha  occ. eigenvalues --   -0.88098  -0.87349  -0.86892  -0.85058  -0.84402
 Alpha  occ. eigenvalues --   -0.82718  -0.81729  -0.80500  -0.79572  -0.78218
 Alpha  occ. eigenvalues --   -0.76857  -0.76815  -0.76757  -0.76358  -0.76066
 Alpha  occ. eigenvalues --   -0.75840  -0.75265  -0.75201  -0.73966  -0.70789
 Alpha  occ. eigenvalues --   -0.68589  -0.67034  -0.65834  -0.65002  -0.63944
 Alpha  occ. eigenvalues --   -0.63024  -0.62516  -0.61182  -0.60440  -0.58981
 Alpha  occ. eigenvalues --   -0.58880  -0.58523  -0.57298  -0.55993  -0.55504
 Alpha  occ. eigenvalues --   -0.55386  -0.55125  -0.54457  -0.54141  -0.53955
 Alpha  occ. eigenvalues --   -0.53622  -0.53040  -0.52400  -0.52080  -0.51104
 Alpha  occ. eigenvalues --   -0.50992  -0.50537  -0.50211  -0.49940  -0.49756
 Alpha  occ. eigenvalues --   -0.49536  -0.49265  -0.48612  -0.48112  -0.48083
 Alpha  occ. eigenvalues --   -0.47753  -0.47592  -0.47087  -0.46650  -0.46410
 Alpha  occ. eigenvalues --   -0.45728  -0.45529  -0.45355  -0.45105  -0.44810
 Alpha  occ. eigenvalues --   -0.44688  -0.44334  -0.43816  -0.43653  -0.43355
 Alpha  occ. eigenvalues --   -0.42978  -0.42846  -0.42741  -0.42404  -0.42182
 Alpha  occ. eigenvalues --   -0.41849  -0.41607  -0.41354  -0.41321  -0.41038
 Alpha  occ. eigenvalues --   -0.41030  -0.40421  -0.40248  -0.39700  -0.39638
 Alpha  occ. eigenvalues --   -0.39098  -0.38865  -0.38631  -0.38488  -0.38049
 Alpha  occ. eigenvalues --   -0.37553  -0.37003  -0.36371  -0.36118  -0.35700
 Alpha  occ. eigenvalues --   -0.34780  -0.34401  -0.33829  -0.32560  -0.31856
 Alpha  occ. eigenvalues --   -0.31139  -0.29632  -0.28536  -0.26587  -0.24002
 Alpha  occ. eigenvalues --   -0.20298
 Alpha virt. eigenvalues --   -0.05489  -0.01008   0.01974   0.05469   0.08045
 Alpha virt. eigenvalues --    0.08482   0.09955   0.10508   0.11033   0.11510
 Alpha virt. eigenvalues --    0.11795   0.12397   0.12755   0.13232   0.13280

 Mulliken charges:
               1
     1  O   -0.541289
     2  O   -0.580261
     3  C   -0.032818
     4  C   -0.003478
     5  C   -0.205197
     6  C   -0.204145
     7  C    0.168220
     8  C    0.170383
     9  C    0.055979
    10  C    0.030387
    11  C   -0.187159
    12  C   -0.212686
    13  C    0.001855
    14  C    0.062488
    15  C   -0.254750
    16  C   -0.297517
    17  C   -0.280577
    18  C   -0.302130
    19  C   -0.116607
    20  C   -0.176592
    21  C   -0.313400
    22  C   -0.362661
    23  C   -0.134401
    24  C   -0.106248
    25  C    0.152474
    26  C    0.091557
    27  C   -0.395985
    28  C   -0.323307
    29  C   -0.130574
    30  C   -0.112025
    31  C   -0.097325
    32  C   -0.100804
    33  C   -0.117887
    34  C   -0.095592
    35  C    0.093843
    36  C    0.140340
    37  C   -0.356363
    38  C   -0.349313
    39  C   -0.119312
    40  C   -0.121678
    41  C   -0.088191
    42  C   -0.093714
    43  H    0.105818
    44  H    0.069542
    45  H    0.057385
    46  H    0.095652
    47  H    0.069431
    48  H    0.078297
    49  H    0.118717
    50  H    0.114396
    51  H    0.127787
    52  H    0.117841
    53  H    0.059271
    54  H    0.116222
    55  H    0.115443
    56  H    0.106906
    57  H    0.078986
    58  H    0.092197
    59  H    0.084294
    60  H    0.115474
    61  H    0.099280
    62  H    0.100004
    63  H    0.110229
    64  H    0.108454
    65  H    0.084379
    66  H    0.084355
    67  H    0.127642
    68  H    0.067484
    69  H    0.115816
    70  H    0.117257
    71  H    0.119699
    72  H    0.098603
    73  H    0.295948
    74  H    0.296115
    75  H    0.086537
    76  H    0.085197
    77  H    0.112441
    78  H    0.118161
    79  H    0.124840
    80  H    0.144545
    81  H    0.086750
    82  H    0.107302
    83  H    0.071903
    84  H    0.067152
    85  H    0.071124
    86  H    0.059612
    87  H    0.076867
    88  H    0.070001
    89  H    0.133380
    90  H    0.102087
    91  H    0.129981
    92  H    0.092344
    93  H    0.093854
    94  H    0.116272
    95  H    0.089538
    96  H    0.085283
    97  H    0.093836
    98  H    0.078524
 Sum of Mulliken charges =  -0.00000

 Dipole moment (field-independent basis, Debye):
    X=              1.7672    Y=             -1.4114    Z=              0.2271  Tot=              2.2730
 Quadrupole moment (field-independent basis, Debye-Ang):
   XX=           -287.0395   YY=           -247.3793   ZZ=           -265.1845
   XY=             16.0553   XZ=              5.5174   YZ=             -0.9898

 Normal termination of Gaussian 16 at Thu Jul 18 02:13:43 2019.
