 Gaussian 16, Revision A.03,
 Gaussian 16:  ES64L-G16RevA.03 25-Dec-2016

 -------------------------------------
 # td=(NStates=1) CAM-B3LYP/6-31G(d,p)
 -------------------------------------

 --
 TD
 --
 Symbolic Z-matrix:
 Charge =  0 Multiplicity = 1

                         Standard orientation:
 ---------------------------------------------------------------------
 Center     Atomic      Atomic             Coordinates (Angstroms)
 Number     Number       Type             X           Y           Z
 ---------------------------------------------------------------------
      1          8           0       14.659931   -2.363784   -0.326658
      2          8           0      -14.911451    1.664989    0.991958
      3          6           0       11.177338   -1.488873    0.943924
      4          6           0      -12.413297   -1.087535    0.628201
      5          6           0       12.610258   -1.985858    1.079664
      6          6           0      -13.748098   -0.351443    0.552424
      7          6           0       13.273209   -2.044693   -0.254844
      8          6           0      -13.593467    1.093719    0.878666
      9          6           0       11.031111   -0.215154    0.077197
     10          6           0      -11.418037   -0.221511   -0.236747
     11          6           0       13.325442   -0.544754   -1.018227
     12          6           0      -12.799547    1.825730   -0.225991
     13          6           0       11.896623    0.111364   -0.938297
     14          6           0      -11.640893    1.071106   -0.575804
     15          6           0       10.745652   -1.257732    2.393396
     16          6           0       10.204996   -2.676252    0.370452
     17          6           0      -11.864522   -1.341046    2.009565
     18          6           0      -12.643308   -2.524480   -0.169468
     19          6           0        9.748258    0.429535    0.178653
     20          6           0      -10.083314   -0.943608   -0.467868
     21          6           0       11.699242    1.148927   -2.061479
     22          6           0      -10.747455    1.884990   -1.433464
     23          6           0        9.425765    1.775771    0.028820
     24          6           0       -8.853143   -0.397206   -0.416993
     25          6           0        8.129025    2.355954    0.102837
     26          6           0       -7.558221   -1.190886   -0.561369
     27          6           0        8.095240    3.866878    0.441222
     28          6           0       -7.583479   -2.629646   -1.102728
     29          6           0        6.938168    1.622373    0.096933
     30          6           0       -6.307156   -0.495219   -0.411467
     31          6           0        5.666304    2.033118    0.459805
     32          6           0       -5.016266   -0.994363   -0.506262
     33          6           0        4.515481    1.322844    0.176322
     34          6           0       -3.885617   -0.283726   -0.344988
     35          6           0        3.156756    1.755342    0.270414
     36          6           0       -2.546496   -0.702425   -0.478862
     37          6           0        2.905044    3.180054    0.541373
     38          6           0       -2.378408   -2.142855   -0.858929
     39          6           0        2.160309    0.897446    0.011915
     40          6           0       -1.542409    0.184625   -0.167379
     41          6           0        0.778774    1.065084    0.130027
     42          6           0       -0.127913    0.136010   -0.141254
     43          1           0       13.231471   -1.445183    1.966429
     44          1           0       12.395250   -3.019111    1.555153
     45          1           0      -14.298182   -0.938949    1.366877
     46          1           0      -14.380555   -0.439966   -0.436327
     47          1           0       12.665783   -2.748091   -1.047173
     48          1           0      -13.003845    1.219859    1.818330
     49          1           0       14.135058    0.095451   -0.665048
     50          1           0       13.690894   -0.843409   -1.976875
     51          1           0      -13.256214    2.009847   -1.117576
     52          1           0      -12.378343    2.535774    0.170710
     53          1           0       11.198370   -2.254851    2.756635
     54          1           0        9.808037   -1.012608    2.452792
     55          1           0       11.434841   -0.539550    2.634113
     56          1           0       10.418154   -2.990936   -0.688162
     57          1           0       10.506805   -3.520566    1.067547
     58          1           0        9.190834   -2.432217    0.585787
     59          1           0      -11.535439   -0.436449    2.486753
     60          1           0      -10.886981   -2.033612    1.930654
     61          1           0      -12.509610   -1.983898    2.689213
     62          1           0      -13.498825   -3.047532    0.184134
     63          1           0      -11.693085   -3.228651   -0.021222
     64          1           0      -12.660548   -2.217733   -1.362732
     65          1           0        8.919970   -0.331559    0.607791
     66          1           0      -10.155527   -2.192347   -0.312203
     67          1           0       10.539083    1.354377   -2.045168
     68          1           0       12.251948    2.045886   -1.983685
     69          1           0       12.101532    0.716849   -2.888740
     70          1           0      -11.404813    2.328043   -2.078945
     71          1           0       -9.828040    1.534143   -1.990436
     72          1           0       -9.987841    2.554033   -0.919720
     73          1           0       15.090378   -3.409097   -0.398251
     74          1           0      -15.540393    1.200815    1.556165
     75          1           0       10.188877    2.476097   -0.185505
     76          1           0       -8.801950    0.674708   -0.284222
     77          1           0        9.080635    4.400808   -0.008339
     78          1           0        6.975112    4.368348   -0.030700
     79          1           0        8.062175    3.992419    1.557941
     80          1           0       -7.893770   -3.181437   -0.289326
     81          1           0       -8.480075   -2.786855   -1.920776
     82          1           0       -6.617593   -3.101328   -1.502992
     83          1           0        7.004064    0.481386   -0.340271
     84          1           0       -6.311121    0.487316   -0.333952
     85          1           0        5.653535    3.075170    0.819505
     86          1           0       -4.845611   -1.963225   -0.710208
     87          1           0        4.646077    0.271088   -0.388357
     88          1           0       -4.035792    0.870947   -0.107379
     89          1           0        3.291626    3.279742    1.440921
     90          1           0        1.909944    3.530205    0.266929
     91          1           0        3.614099    3.790046   -0.094186
     92          1           0       -2.614129   -2.669112    0.174728
     93          1           0       -3.131522   -2.278551   -1.637326
     94          1           0       -1.329058   -2.317026   -1.381140
     95          1           0        2.205383   -0.060657   -0.203852
     96          1           0       -2.104017    1.189407   -0.039801
     97          1           0        0.352432    2.033944    0.403855
     98          1           0        0.240965   -0.951480   -0.421110
 ---------------------------------------------------------------------

 SCF Done:  E(RCAM-B3LYP) =  -1706.88850918     A.U. after   15 cycles

 Excitation energies and oscillator strengths:

 Excited State   1:      Singlet-A      2.3072 eV  537.39 nm  f=3.7433  <S**2>=0.000
     155 ->158        -0.18883
     156 ->157         0.67737
 This state for optimization and/or second-order correction.
 Total Energy, E(TD-HF/TD-DFT) =  -1706.80372297
 Copying the excited state density for this state as the 1-particle RhoCI density.

 The electronic state is 1-A.
 Alpha  occ. eigenvalues --  -19.21457 -19.20224 -10.32444 -10.30828 -10.28888
 Alpha  occ. eigenvalues --  -10.28867 -10.28179 -10.27498 -10.27339 -10.27299
 Alpha  occ. eigenvalues --  -10.27293 -10.27182 -10.27171 -10.27154 -10.27093
 Alpha  occ. eigenvalues --  -10.27034 -10.26950 -10.26803 -10.26710 -10.26546
 Alpha  occ. eigenvalues --  -10.26472 -10.26456 -10.26448 -10.26277 -10.26252
 Alpha  occ. eigenvalues --  -10.26194 -10.26174 -10.26068 -10.25877 -10.25853
 Alpha  occ. eigenvalues --  -10.25849 -10.25678 -10.25636 -10.25474 -10.25073
 Alpha  occ. eigenvalues --  -10.25032 -10.24572 -10.24386 -10.24370 -10.24310
 Alpha  occ. eigenvalues --  -10.22817 -10.22779  -1.07993  -1.05810  -0.94337
 Alpha  occ. eigenvalues --   -0.93010  -0.92876  -0.92139  -0.90195  -0.89211
 Alpha  occ. eigenvalues --   -0.88436  -0.87761  -0.86672  -0.85395  -0.84194
 Alpha  occ. eigenvalues --   -0.82699  -0.81892  -0.79955  -0.79172  -0.79035
 Alpha  occ. eigenvalues --   -0.76762  -0.76482  -0.76084  -0.76021  -0.75717
 Alpha  occ. eigenvalues --   -0.75316  -0.74785  -0.74584  -0.73619  -0.70095
 Alpha  occ. eigenvalues --   -0.68622  -0.67854  -0.66067  -0.64582  -0.64185
 Alpha  occ. eigenvalues --   -0.63331  -0.62713  -0.61897  -0.61044  -0.60141
 Alpha  occ. eigenvalues --   -0.58608  -0.58358  -0.57335  -0.56754  -0.56057
 Alpha  occ. eigenvalues --   -0.55923  -0.55606  -0.54733  -0.54043  -0.53903
 Alpha  occ. eigenvalues --   -0.52873  -0.52754  -0.52382  -0.51886  -0.51259
 Alpha  occ. eigenvalues --   -0.50756  -0.50208  -0.49972  -0.49664  -0.48999
 Alpha  occ. eigenvalues --   -0.48856  -0.48639  -0.48338  -0.48184  -0.47763
 Alpha  occ. eigenvalues --   -0.47542  -0.47269  -0.47105  -0.46998  -0.46531
 Alpha  occ. eigenvalues --   -0.46047  -0.45820  -0.45381  -0.44876  -0.44409
 Alpha  occ. eigenvalues --   -0.44388  -0.44336  -0.44200  -0.43809  -0.43403
 Alpha  occ. eigenvalues --   -0.42790  -0.42649  -0.42170  -0.41935  -0.41731
 Alpha  occ. eigenvalues --   -0.41680  -0.41407  -0.41155  -0.40689  -0.40484
 Alpha  occ. eigenvalues --   -0.40099  -0.40058  -0.39544  -0.39360  -0.38553
 Alpha  occ. eigenvalues --   -0.38386  -0.38219  -0.38086  -0.37923  -0.37793
 Alpha  occ. eigenvalues --   -0.37619  -0.37393  -0.36834  -0.35900  -0.35329
 Alpha  occ. eigenvalues --   -0.34840  -0.34331  -0.33100  -0.32600  -0.31838
 Alpha  occ. eigenvalues --   -0.31353  -0.29758  -0.28289  -0.26350  -0.22833
 Alpha  occ. eigenvalues --   -0.19819
 Alpha virt. eigenvalues --   -0.05439  -0.01600   0.02513   0.05698   0.07871
 Alpha virt. eigenvalues --    0.08229   0.10443   0.10733   0.11219   0.11783
 Alpha virt. eigenvalues --    0.12681   0.12813   0.13259   0.13527   0.13839

 Mulliken charges:
               1
     1  O   -0.593678
     2  O   -0.586211
     3  C   -0.077690
     4  C   -0.011940
     5  C   -0.174444
     6  C   -0.185915
     7  C    0.192407
     8  C    0.169112
     9  C    0.102217
    10  C    0.049448
    11  C   -0.225448
    12  C   -0.157426
    13  C    0.023968
    14  C    0.005935
    15  C   -0.251945
    16  C   -0.291567
    17  C   -0.294143
    18  C   -0.297723
    19  C   -0.127148
    20  C   -0.108440
    21  C   -0.352712
    22  C   -0.366451
    23  C   -0.112929
    24  C   -0.090467
    25  C    0.077263
    26  C    0.066698
    27  C   -0.350035
    28  C   -0.365228
    29  C   -0.105405
    30  C   -0.107036
    31  C   -0.090013
    32  C   -0.061653
    33  C   -0.113990
    34  C   -0.112043
    35  C    0.103667
    36  C    0.109617
    37  C   -0.363199
    38  C   -0.364235
    39  C   -0.089518
    40  C   -0.127756
    41  C   -0.070310
    42  C   -0.098729
    43  H    0.094246
    44  H    0.078450
    45  H    0.068686
    46  H    0.099376
    47  H    0.060769
    48  H    0.078606
    49  H    0.123037
    50  H    0.110580
    51  H    0.127503
    52  H    0.122888
    53  H    0.081180
    54  H    0.099793
    55  H    0.115193
    56  H    0.107653
    57  H    0.088901
    58  H    0.111032
    59  H    0.115582
    60  H    0.091326
    61  H    0.097336
    62  H    0.109137
    63  H    0.079752
    64  H    0.094401
    65  H    0.074599
    66  H    0.059301
    67  H    0.110756
    68  H    0.119715
    69  H    0.116145
    70  H    0.112538
    71  H    0.118582
    72  H    0.109376
    73  H    0.305855
    74  H    0.304689
    75  H    0.088413
    76  H    0.080925
    77  H    0.099462
    78  H    0.076473
    79  H    0.133283
    80  H    0.135801
    81  H    0.106192
    82  H    0.112368
    83  H    0.067024
    84  H    0.062715
    85  H    0.080478
    86  H    0.063292
    87  H    0.081194
    88  H    0.064465
    89  H    0.138650
    90  H    0.117920
    91  H    0.110389
    92  H    0.126939
    93  H    0.126301
    94  H    0.102942
    95  H    0.059361
    96  H    0.063617
    97  H    0.073993
    98  H    0.065915
 Sum of Mulliken charges =  -0.00000

 Dipole moment (field-independent basis, Debye):
    X=             -0.0930    Y=             -1.9431    Z=              0.3496  Tot=              1.9765
 Quadrupole moment (field-independent basis, Debye-Ang):
   XX=           -246.8876   YY=           -243.4521   ZZ=           -262.7740
   XY=              1.7689   XZ=            -15.4547   YZ=              1.2044

 Normal termination of Gaussian 16 at Thu Jul 18 01:53:02 2019.
