 Gaussian 16, Revision A.03,
 Gaussian 16:  ES64L-G16RevA.03 25-Dec-2016

 -------------------------------------
 # td=(NStates=1) CAM-B3LYP/6-31G(d,p)
 -------------------------------------

 --
 TD
 --
 Symbolic Z-matrix:
 Charge =  0 Multiplicity = 1

                         Standard orientation:
 ---------------------------------------------------------------------
 Center     Atomic      Atomic             Coordinates (Angstroms)
 Number     Number       Type             X           Y           Z
 ---------------------------------------------------------------------
      1          8           0       14.627736   -2.247108   -0.047309
      2          8           0      -14.642997    2.031975    1.121841
      3          6           0       11.052260   -1.419115    0.985015
      4          6           0      -12.341988   -1.029033    0.674750
      5          6           0       12.579412   -1.770097    1.160645
      6          6           0      -13.667087   -0.217697    0.716426
      7          6           0       13.233675   -1.842143   -0.184947
      8          6           0      -13.468634    1.253939    1.099862
      9          6           0       10.867405   -0.288530    0.137005
     10          6           0      -11.309927   -0.258461    0.036362
     11          6           0       13.165701   -0.528702   -0.853908
     12          6           0      -12.618881    1.818647   -0.114803
     13          6           0       11.816244    0.063534   -0.782413
     14          6           0      -11.424315    1.071824   -0.502476
     15          6           0       10.449494   -1.297847    2.438104
     16          6           0       10.419966   -2.680934    0.396934
     17          6           0      -11.814390   -1.284982    2.156273
     18          6           0      -12.636296   -2.397436   -0.005493
     19          6           0        9.575591    0.387324    0.204381
     20          6           0      -10.086500   -1.034521   -0.295224
     21          6           0       11.675872    1.223842   -1.774347
     22          6           0      -10.552194    1.849769   -1.426562
     23          6           0        9.377698    1.694658    0.077109
     24          6           0       -8.744379   -0.511262   -0.391253
     25          6           0        8.066592    2.321831    0.199498
     26          6           0       -7.494790   -1.228476   -0.764684
     27          6           0        8.036463    3.719574    0.639740
     28          6           0       -7.589210   -2.776206   -0.915316
     29          6           0        6.902719    1.610368   -0.014295
     30          6           0       -6.336347   -0.564805   -0.726762
     31          6           0        5.601009    2.129958    0.162653
     32          6           0       -5.004479   -1.179302   -0.758500
     33          6           0        4.417401    1.280700   -0.083753
     34          6           0       -3.877869   -0.393057   -0.600327
     35          6           0        3.065878    1.748461    0.075135
     36          6           0       -2.528213   -0.828510   -0.666533
     37          6           0        2.871267    3.139142    0.393124
     38          6           0       -2.184040   -2.279969   -0.948037
     39          6           0        2.103456    0.834815   -0.226400
     40          6           0       -1.525526    0.124955   -0.533873
     41          6           0        0.760510    0.962311   -0.265930
     42          6           0       -0.128753   -0.112255   -0.524648
     43          1           0       12.949518   -0.861282    1.686875
     44          1           0       12.837086   -2.722746    1.715948
     45          1           0      -14.381952   -0.620945    1.385195
     46          1           0      -14.194344   -0.138240   -0.183229
     47          1           0       12.528655   -2.598640   -0.906758
     48          1           0      -12.844131    1.487763    1.916920
     49          1           0       14.217461    0.029958   -0.743025
     50          1           0       13.322390   -0.926981   -1.871835
     51          1           0      -13.446393    1.933369   -0.906612
     52          1           0      -12.342622    2.891324   -0.062042
     53          1           0       10.768366   -1.855698    3.226648
     54          1           0        9.230226   -1.158700    2.542966
     55          1           0       10.720363   -0.284848    2.883127
     56          1           0       10.912280   -2.853576   -0.577539
     57          1           0       10.594847   -3.499040    1.165239
     58          1           0        9.440981   -2.555663   -0.054553
     59          1           0      -11.736590   -0.565393    2.719943
     60          1           0      -10.941562   -1.894700    1.838342
     61          1           0      -12.425721   -2.152452    2.556042
     62          1           0      -13.530451   -3.038643    0.439954
     63          1           0      -11.887288   -3.188730    0.134592
     64          1           0      -12.942467   -2.252950   -0.943621
     65          1           0        8.638715   -0.292128    0.164289
     66          1           0      -10.410988   -1.996681   -0.765878
     67          1           0       10.751808    1.627440   -1.940772
     68          1           0       12.211936    2.004136   -1.508990
     69          1           0       12.244703    0.744304   -2.699697
     70          1           0      -11.202429    2.480646   -2.192795
     71          1           0       -9.846026    1.147504   -2.003210
     72          1           0       -9.940605    2.577796   -0.906614
     73          1           0       14.696737   -3.067251    0.278189
     74          1           0      -15.409697    1.761662    1.751469
     75          1           0        9.960095    2.716897    0.309260
     76          1           0       -8.528056    0.535616   -0.056316
     77          1           0        9.027275    4.082073    0.705860
     78          1           0        7.479217    4.488874   -0.074948
     79          1           0        7.614465    4.031668    1.497830
     80          1           0       -8.271083   -3.068211    0.091638
     81          1           0       -8.185654   -3.192309   -1.729651
     82          1           0       -6.742574   -3.533770   -1.110840
     83          1           0        6.855439    0.473171   -0.301280
     84          1           0       -6.569561    0.537851   -0.359567
     85          1           0        5.535616    3.149302    0.328206
     86          1           0       -4.802300   -2.159138   -1.030421
     87          1           0        4.466560    0.286382   -0.318279
     88          1           0       -3.939446    0.629071   -0.308686
     89          1           0        2.687145    3.195153    1.636227
     90          1           0        1.736879    3.655929   -0.072625
     91          1           0        3.898350    3.841574   -0.090468
     92          1           0       -2.568892   -2.827699   -0.153074
     93          1           0       -2.559328   -2.566855   -1.906794
     94          1           0       -1.073163   -2.574181   -0.868111
     95          1           0        2.572792   -0.037333   -0.706235
     96          1           0       -1.784208    1.073249   -0.443263
     97          1           0        0.278049    1.915190   -0.022882
     98          1           0        0.222889   -0.965915   -0.905595
 ---------------------------------------------------------------------

 SCF Done:  E(RCAM-B3LYP) =  -1706.87883381     A.U. after   15 cycles

 Excitation energies and oscillator strengths:

 Excited State   1:      Singlet-A      2.1219 eV  584.32 nm  f=3.6042  <S**2>=0.000
     155 ->158         0.14734
     156 ->157         0.69123
 This state for optimization and/or second-order correction.
 Total Energy, E(TD-HF/TD-DFT) =  -1706.80085663
 Copying the excited state density for this state as the 1-particle RhoCI density.

 The electronic state is 1-A.
 Alpha  occ. eigenvalues --  -19.21417 -19.20438 -10.31017 -10.30529 -10.29944
 Alpha  occ. eigenvalues --  -10.27666 -10.27629 -10.27449 -10.27287 -10.27182
 Alpha  occ. eigenvalues --  -10.27148 -10.27098 -10.26935 -10.26813 -10.26805
 Alpha  occ. eigenvalues --  -10.26763 -10.26728 -10.26712 -10.26665 -10.26626
 Alpha  occ. eigenvalues --  -10.26441 -10.26385 -10.26231 -10.26211 -10.26092
 Alpha  occ. eigenvalues --  -10.26074 -10.25804 -10.25770 -10.25657 -10.25431
 Alpha  occ. eigenvalues --  -10.25383 -10.25345 -10.25255 -10.25240 -10.25154
 Alpha  occ. eigenvalues --  -10.25145 -10.24942 -10.24582 -10.24574 -10.23942
 Alpha  occ. eigenvalues --  -10.23460 -10.23329  -1.09856  -1.08127  -0.94896
 Alpha  occ. eigenvalues --   -0.93608  -0.92593  -0.91631  -0.91051  -0.89514
 Alpha  occ. eigenvalues --   -0.87078  -0.86983  -0.86857  -0.85768  -0.84172
 Alpha  occ. eigenvalues --   -0.83085  -0.81680  -0.80699  -0.79202  -0.78672
 Alpha  occ. eigenvalues --   -0.77373  -0.77103  -0.76016  -0.75971  -0.75469
 Alpha  occ. eigenvalues --   -0.75437  -0.75110  -0.74892  -0.73547  -0.71172
 Alpha  occ. eigenvalues --   -0.69119  -0.67827  -0.66135  -0.65256  -0.64550
 Alpha  occ. eigenvalues --   -0.64412  -0.63443  -0.63303  -0.60749  -0.59845
 Alpha  occ. eigenvalues --   -0.59026  -0.58323  -0.58026  -0.57309  -0.56541
 Alpha  occ. eigenvalues --   -0.55706  -0.55464  -0.55256  -0.54715  -0.54261
 Alpha  occ. eigenvalues --   -0.53594  -0.52720  -0.52595  -0.51324  -0.51177
 Alpha  occ. eigenvalues --   -0.50757  -0.50580  -0.50489  -0.49634  -0.49414
 Alpha  occ. eigenvalues --   -0.48738  -0.48521  -0.48294  -0.48107  -0.47605
 Alpha  occ. eigenvalues --   -0.47162  -0.46792  -0.46253  -0.46140  -0.45910
 Alpha  occ. eigenvalues --   -0.45515  -0.45438  -0.45306  -0.44983  -0.44776
 Alpha  occ. eigenvalues --   -0.44558  -0.44419  -0.43887  -0.43780  -0.43582
 Alpha  occ. eigenvalues --   -0.43243  -0.43007  -0.42217  -0.41962  -0.41808
 Alpha  occ. eigenvalues --   -0.41388  -0.41252  -0.40977  -0.40538  -0.40449
 Alpha  occ. eigenvalues --   -0.40413  -0.39822  -0.39749  -0.39434  -0.39346
 Alpha  occ. eigenvalues --   -0.39111  -0.38908  -0.38553  -0.38073  -0.37900
 Alpha  occ. eigenvalues --   -0.37689  -0.37530  -0.36570  -0.36469  -0.35523
 Alpha  occ. eigenvalues --   -0.35042  -0.34368  -0.33765  -0.32539  -0.31755
 Alpha  occ. eigenvalues --   -0.31308  -0.29230  -0.27739  -0.25587  -0.23054
 Alpha  occ. eigenvalues --   -0.19100
 Alpha virt. eigenvalues --   -0.06025  -0.01065   0.01921   0.05113   0.06941
 Alpha virt. eigenvalues --    0.08609   0.10331   0.10559   0.11717   0.11734
 Alpha virt. eigenvalues --    0.12417   0.12570   0.12977   0.13199   0.13453

 Mulliken charges:
               1
     1  O   -0.562538
     2  O   -0.580767
     3  C   -0.038429
     4  C   -0.036888
     5  C   -0.179991
     6  C   -0.182069
     7  C    0.170586
     8  C    0.173094
     9  C    0.083282
    10  C    0.050575
    11  C   -0.229635
    12  C   -0.251897
    13  C    0.041271
    14  C    0.110201
    15  C   -0.314820
    16  C   -0.276598
    17  C   -0.268447
    18  C   -0.325466
    19  C   -0.121670
    20  C   -0.147892
    21  C   -0.332057
    22  C   -0.374624
    23  C   -0.066561
    24  C   -0.141720
    25  C    0.053537
    26  C    0.146340
    27  C   -0.384685
    28  C   -0.369153
    29  C   -0.096084
    30  C   -0.138410
    31  C   -0.095283
    32  C   -0.098405
    33  C   -0.126405
    34  C   -0.092545
    35  C    0.179168
    36  C    0.097292
    37  C   -0.348680
    38  C   -0.383627
    39  C   -0.127827
    40  C   -0.112907
    41  C   -0.095559
    42  C   -0.064939
    43  H    0.106098
    44  H    0.072456
    45  H    0.076909
    46  H    0.104592
    47  H    0.051743
    48  H    0.086158
    49  H    0.122611
    50  H    0.116591
    51  H    0.105438
    52  H    0.097251
    53  H    0.115641
    54  H    0.080132
    55  H    0.091115
    56  H    0.089279
    57  H    0.100384
    58  H    0.097414
    59  H    0.103039
    60  H    0.107334
    61  H    0.083572
    62  H    0.083764
    63  H    0.108848
    64  H    0.125668
    65  H    0.099531
    66  H    0.104244
    67  H    0.119493
    68  H    0.130837
    69  H    0.079569
    70  H    0.101539
    71  H    0.120902
    72  H    0.125276
    73  H    0.292640
    74  H    0.311230
    75  H    0.073400
    76  H    0.089159
    77  H    0.106350
    78  H    0.100039
    79  H    0.144881
    80  H    0.094314
    81  H    0.117549
    82  H    0.105084
    83  H    0.073157
    84  H    0.076214
    85  H    0.079012
    86  H    0.089830
    87  H    0.079712
    88  H    0.080125
    89  H    0.107989
    90  H    0.073127
    91  H    0.090635
    92  H    0.133278
    93  H    0.130063
    94  H    0.101534
    95  H    0.078319
    96  H    0.067200
    97  H    0.080761
    98  H    0.078202
 Sum of Mulliken charges =  -0.00000

 Dipole moment (field-independent basis, Debye):
    X=             -1.6706    Y=             -1.5269    Z=              1.0504  Tot=              2.4951
 Quadrupole moment (field-independent basis, Debye-Ang):
   XX=           -262.3498   YY=           -241.4469   ZZ=           -262.3872
   XY=             12.2324   XZ=             -2.8999   YZ=              3.9434

 Normal termination of Gaussian 16 at Sun Jul 14 17:56:09 2019.
