 Gaussian 16, Revision A.03,
 Gaussian 16:  ES64L-G16RevA.03 25-Dec-2016

 -------------------------------------
 # td=(NStates=1) CAM-B3LYP/6-31G(d,p)
 -------------------------------------

 --
 TD
 --
 Symbolic Z-matrix:
 Charge =  0 Multiplicity = 1

                         Standard orientation:
 ---------------------------------------------------------------------
 Center     Atomic      Atomic             Coordinates (Angstroms)
 Number     Number       Type             X           Y           Z
 ---------------------------------------------------------------------
      1          8           0       14.623269   -2.270694   -0.363237
      2          8           0      -14.801566    1.837564    0.694856
      3          6           0       11.094304   -1.491591    0.935525
      4          6           0      -12.287585   -1.014798    0.746794
      5          6           0       12.619952   -1.890545    1.124243
      6          6           0      -13.718466   -0.345895    0.567114
      7          6           0       13.191703   -1.975810   -0.296060
      8          6           0      -13.500424    1.136244    0.743080
      9          6           0       10.897785   -0.307749   -0.007464
     10          6           0      -11.212065   -0.284027   -0.161217
     11          6           0       13.183380   -0.629696   -1.031047
     12          6           0      -12.710298    1.749014   -0.404140
     13          6           0       11.892890   -0.012079   -0.962319
     14          6           0      -11.459157    0.941923   -0.683872
     15          6           0       10.764420   -1.142105    2.300210
     16          6           0       10.235055   -2.727804    0.546488
     17          6           0      -11.853007   -1.305861    2.198141
     18          6           0      -12.517376   -2.387496    0.005165
     19          6           0        9.641951    0.394154    0.183726
     20          6           0       -9.999130   -0.958119   -0.271158
     21          6           0       11.676577    1.314749   -1.830727
     22          6           0      -10.390349    1.818589   -1.403482
     23          6           0        9.315290    1.731717    0.086583
     24          6           0       -8.757887   -0.441156   -0.201516
     25          6           0        7.989751    2.325095    0.236582
     26          6           0       -7.536797   -1.183016   -0.551017
     27          6           0        7.863289    3.847697    0.523648
     28          6           0       -7.529860   -2.631341   -1.115296
     29          6           0        6.969552    1.555698    0.076378
     30          6           0       -6.340670   -0.524243   -0.296127
     31          6           0        5.608895    2.168596    0.203546
     32          6           0       -5.079460   -1.060483   -0.614332
     33          6           0        4.521211    1.351621    0.070831
     34          6           0       -3.915389   -0.289497   -0.262797
     35          6           0        3.093187    1.752143    0.182034
     36          6           0       -2.606502   -0.759033   -0.421006
     37          6           0        2.782896    3.145469    0.647288
     38          6           0       -2.389059   -2.052036   -1.040046
     39          6           0        2.147053    0.772693   -0.075730
     40          6           0       -1.503814    0.159836   -0.289134
     41          6           0        0.735274    0.939845    0.027424
     42          6           0       -0.111758   -0.063327   -0.410512
     43          1           0       13.110163   -1.040867    1.612119
     44          1           0       12.799126   -2.766426    1.635072
     45          1           0      -14.246751   -0.676113    1.310893
     46          1           0      -14.133200   -0.649949   -0.466772
     47          1           0       12.559433   -2.675546   -0.863696
     48          1           0      -13.097932    1.399537    1.610674
     49          1           0       14.069752    0.105235   -0.966363
     50          1           0       13.512223   -1.054082   -2.207448
     51          1           0      -13.443384    1.611515   -1.337146
     52          1           0      -12.455587    2.794303   -0.111126
     53          1           0       11.052534   -1.778034    3.032534
     54          1           0        9.577296   -1.102804    2.396870
     55          1           0       11.018134   -0.102925    2.825392
     56          1           0       10.523874   -3.223464   -0.472396
     57          1           0       10.232071   -3.500797    1.282867
     58          1           0        9.128997   -2.288631    0.299169
     59          1           0      -12.033941   -0.579513    2.852549
     60          1           0      -10.718524   -1.921437    2.340010
     61          1           0      -12.794802   -1.865659    2.704414
     62          1           0      -13.320121   -2.868157    0.583099
     63          1           0      -11.686274   -3.105887    0.162828
     64          1           0      -12.694095   -2.202622   -0.964726
     65          1           0        8.888326   -0.340879    0.510019
     66          1           0       -9.961852   -2.014903   -0.428439
     67          1           0       10.581325    1.347918   -1.957160
     68          1           0       12.254096    2.013114   -1.340839
     69          1           0       12.132711    1.021716   -2.988161
     70          1           0      -10.950939    2.585776   -2.127605
     71          1           0       -9.630968    1.141950   -2.021982
     72          1           0       -9.791497    2.259498   -0.597506
     73          1           0       14.620266   -3.249866   -0.142246
     74          1           0      -15.357386    1.507762    1.436008
     75          1           0       10.241078    2.432595    0.001737
     76          1           0       -8.727089    0.591721    0.141357
     77          1           0        8.839120    3.993908    1.167949
     78          1           0        7.570393    4.348667   -0.380750
     79          1           0        7.073135    3.860092    1.316119
     80          1           0       -7.922360   -3.362267   -0.279554
     81          1           0       -8.290231   -2.610366   -1.864589
     82          1           0       -6.504066   -2.701926   -1.630137
     83          1           0        7.017144    0.560316   -0.235770
     84          1           0       -6.410774    0.426295    0.076304
     85          1           0        5.810957    3.268644    0.227804
     86          1           0       -4.885814   -2.026695   -1.071109
     87          1           0        4.497152    0.438032   -0.343967
     88          1           0       -4.113251    0.683477    0.161797
     89          1           0        2.835851    3.094818    1.918226
     90          1           0        1.629723    3.423715    0.087317
     91          1           0        3.771958    3.907402    0.371313
     92          1           0       -3.186693   -2.822467   -0.571783
     93          1           0       -2.567141   -2.125891   -2.251985
     94          1           0       -1.312537   -2.435001   -0.571668
     95          1           0        2.674446   -0.003264   -0.534950
     96          1           0       -1.817548    1.094115    0.153810
     97          1           0        0.453415    1.880882    0.515167
     98          1           0        0.174265   -0.995774   -1.111279
 ---------------------------------------------------------------------

 SCF Done:  E(RCAM-B3LYP) =  -1706.88593795     A.U. after   15 cycles

 Excitation energies and oscillator strengths:

 Excited State   1:      Singlet-A      2.2399 eV  553.52 nm  f=3.5808  <S**2>=0.000
     155 ->158         0.14683
     156 ->157         0.68947
 This state for optimization and/or second-order correction.
 Total Energy, E(TD-HF/TD-DFT) =  -1706.80362238
 Copying the excited state density for this state as the 1-particle RhoCI density.

 The electronic state is 1-A.
 Alpha  occ. eigenvalues --  -19.21362 -19.19889 -10.30527 -10.30344 -10.28930
 Alpha  occ. eigenvalues --  -10.28254 -10.27828 -10.27828 -10.27494 -10.27388
 Alpha  occ. eigenvalues --  -10.27270 -10.27261 -10.27182 -10.27106 -10.27072
 Alpha  occ. eigenvalues --  -10.27022 -10.26979 -10.26950 -10.26894 -10.26890
 Alpha  occ. eigenvalues --  -10.26796 -10.26667 -10.26530 -10.26505 -10.26392
 Alpha  occ. eigenvalues --  -10.26295 -10.26283 -10.26204 -10.26066 -10.26056
 Alpha  occ. eigenvalues --  -10.26006 -10.25938 -10.25491 -10.25379 -10.25199
 Alpha  occ. eigenvalues --  -10.25008 -10.24780 -10.24683 -10.24636 -10.24376
 Alpha  occ. eigenvalues --  -10.24290 -10.23454  -1.07792  -1.06722  -0.93911
 Alpha  occ. eigenvalues --   -0.93186  -0.92259  -0.91590  -0.90692  -0.89598
 Alpha  occ. eigenvalues --   -0.87211  -0.87004  -0.86318  -0.85505  -0.84871
 Alpha  occ. eigenvalues --   -0.82505  -0.81319  -0.79726  -0.79172  -0.77292
 Alpha  occ. eigenvalues --   -0.76679  -0.76261  -0.76007  -0.75793  -0.75237
 Alpha  occ. eigenvalues --   -0.75222  -0.74861  -0.74722  -0.72974  -0.70542
 Alpha  occ. eigenvalues --   -0.68607  -0.67215  -0.65747  -0.64550  -0.63714
 Alpha  occ. eigenvalues --   -0.63533  -0.62919  -0.61950  -0.60242  -0.59527
 Alpha  occ. eigenvalues --   -0.58786  -0.58484  -0.58233  -0.56973  -0.56093
 Alpha  occ. eigenvalues --   -0.55788  -0.54527  -0.54437  -0.53949  -0.53540
 Alpha  occ. eigenvalues --   -0.53327  -0.52589  -0.52183  -0.51815  -0.51355
 Alpha  occ. eigenvalues --   -0.50613  -0.50218  -0.49804  -0.49512  -0.48926
 Alpha  occ. eigenvalues --   -0.48583  -0.48440  -0.48122  -0.47843  -0.47662
 Alpha  occ. eigenvalues --   -0.47602  -0.46986  -0.46701  -0.46301  -0.46197
 Alpha  occ. eigenvalues --   -0.45815  -0.45662  -0.45536  -0.45276  -0.44598
 Alpha  occ. eigenvalues --   -0.44331  -0.43842  -0.43599  -0.43114  -0.42847
 Alpha  occ. eigenvalues --   -0.42780  -0.42367  -0.42226  -0.41974  -0.41318
 Alpha  occ. eigenvalues --   -0.41230  -0.40925  -0.40875  -0.40824  -0.40649
 Alpha  occ. eigenvalues --   -0.40364  -0.39965  -0.39841  -0.39335  -0.39217
 Alpha  occ. eigenvalues --   -0.38808  -0.38716  -0.38460  -0.38162  -0.37935
 Alpha  occ. eigenvalues --   -0.37586  -0.37066  -0.36326  -0.36054  -0.35864
 Alpha  occ. eigenvalues --   -0.35753  -0.34413  -0.33419  -0.32037  -0.31672
 Alpha  occ. eigenvalues --   -0.31330  -0.29945  -0.28011  -0.25717  -0.23309
 Alpha  occ. eigenvalues --   -0.19310
 Alpha virt. eigenvalues --   -0.05583  -0.00921   0.01992   0.05212   0.07557
 Alpha virt. eigenvalues --    0.09505   0.10192   0.10953   0.11121   0.11350
 Alpha virt. eigenvalues --    0.12318   0.12418   0.12734   0.13111   0.13131

 Mulliken charges:
               1
     1  O   -0.561670
     2  O   -0.584960
     3  C   -0.030519
     4  C   -0.037696
     5  C   -0.173666
     6  C   -0.166458
     7  C    0.134832
     8  C    0.161244
     9  C    0.076792
    10  C    0.085612
    11  C   -0.214251
    12  C   -0.211764
    13  C    0.041335
    14  C    0.023507
    15  C   -0.291378
    16  C   -0.294252
    17  C   -0.283653
    18  C   -0.292415
    19  C   -0.109445
    20  C   -0.125621
    21  C   -0.343621
    22  C   -0.360274
    23  C   -0.133597
    24  C   -0.094989
    25  C    0.054602
    26  C    0.057217
    27  C   -0.381842
    28  C   -0.358500
    29  C   -0.066956
    30  C   -0.085844
    31  C   -0.112392
    32  C   -0.105354
    33  C   -0.109509
    34  C   -0.110583
    35  C    0.099562
    36  C    0.106834
    37  C   -0.338542
    38  C   -0.368623
    39  C   -0.100158
    40  C   -0.109941
    41  C   -0.097740
    42  C   -0.088754
    43  H    0.111714
    44  H    0.089337
    45  H    0.083556
    46  H    0.105790
    47  H    0.090683
    48  H    0.092799
    49  H    0.127355
    50  H    0.072010
    51  H    0.112263
    52  H    0.114254
    53  H    0.111040
    54  H    0.066622
    55  H    0.094264
    56  H    0.093420
    57  H    0.114452
    58  H    0.083849
    59  H    0.114126
    60  H    0.097077
    61  H    0.064689
    62  H    0.090467
    63  H    0.089632
    64  H    0.113569
    65  H    0.083663
    66  H    0.072424
    67  H    0.136462
    68  H    0.133012
    69  H    0.061771
    70  H    0.094718
    71  H    0.111634
    72  H    0.126413
    73  H    0.297530
    74  H    0.294560
    75  H    0.085656
    76  H    0.076012
    77  H    0.113503
    78  H    0.147900
    79  H    0.132710
    80  H    0.118733
    81  H    0.128093
    82  H    0.113543
    83  H    0.083871
    84  H    0.076980
    85  H    0.095639
    86  H    0.087335
    87  H    0.077815
    88  H    0.078794
    89  H    0.105970
    90  H    0.088520
    91  H    0.094161
    92  H    0.095662
    93  H    0.113228
    94  H    0.094757
    95  H    0.071939
    96  H    0.074683
    97  H    0.102010
    98  H    0.100761
 Sum of Mulliken charges =  -0.00000

 Dipole moment (field-independent basis, Debye):
    X=              0.3691    Y=             -1.6169    Z=              1.8611  Tot=              2.4928
 Quadrupole moment (field-independent basis, Debye-Ang):
   XX=           -286.2274   YY=           -247.0576   ZZ=           -260.5334
   XY=              5.7066   XZ=             -9.8713   YZ=              4.0054

 Normal termination of Gaussian 16 at Fri Jul 12 05:12:24 2019.
