 Gaussian 16, Revision A.03,
 Gaussian 16:  ES64L-G16RevA.03 25-Dec-2016

 -------------------------------------
 # td=(NStates=1) CAM-B3LYP/6-31G(d,p)
 -------------------------------------

 --
 TD
 --
 Symbolic Z-matrix:
 Charge =  0 Multiplicity = 1

                         Standard orientation:
 ---------------------------------------------------------------------
 Center     Atomic      Atomic             Coordinates (Angstroms)
 Number     Number       Type             X           Y           Z
 ---------------------------------------------------------------------
      1          8           0       14.642500   -2.362138   -0.246522
      2          8           0      -14.708613    2.000011    0.879197
      3          6           0       11.108465   -1.403423    1.040445
      4          6           0      -12.353266   -0.962218    0.621073
      5          6           0       12.705993   -1.718750    1.054740
      6          6           0      -13.671626   -0.157936    0.600947
      7          6           0       13.284579   -1.919307   -0.310894
      8          6           0      -13.569706    1.289453    0.991298
      9          6           0       11.051510   -0.213457    0.109878
     10          6           0      -11.284582   -0.219655   -0.116037
     11          6           0       13.259689   -0.531932   -0.979050
     12          6           0      -12.602312    1.870121   -0.097260
     13          6           0       11.893339    0.183526   -0.837097
     14          6           0      -11.501559    1.046334   -0.560661
     15          6           0       10.794901   -1.005216    2.461169
     16          6           0       10.322677   -2.609385    0.587444
     17          6           0      -11.976675   -1.260886    2.136298
     18          6           0      -12.638837   -2.279829    0.009418
     19          6           0        9.608461    0.370659    0.129620
     20          6           0      -10.027613   -1.011977   -0.385189
     21          6           0       11.706209    1.283092   -1.910739
     22          6           0      -10.582047    1.708385   -1.304621
     23          6           0        9.404770    1.781385    0.123192
     24          6           0       -8.797663   -0.455042   -0.459884
     25          6           0        8.130634    2.329339    0.090405
     26          6           0       -7.654402   -1.221055   -0.618645
     27          6           0        8.019904    3.775360    0.464140
     28          6           0       -7.750802   -2.707647   -0.824465
     29          6           0        7.038960    1.458852    0.054074
     30          6           0       -6.372922   -0.634269   -0.587663
     31          6           0        5.650644    2.027199    0.025485
     32          6           0       -5.121654   -1.121867   -0.725970
     33          6           0        4.537750    1.138579    0.094168
     34          6           0       -3.889027   -0.360705   -0.605123
     35          6           0        3.187439    1.522975    0.178305
     36          6           0       -2.630989   -0.862947   -0.768745
     37          6           0        2.827238    3.084415    0.497349
     38          6           0       -2.374137   -2.297881   -0.879282
     39          6           0        2.050208    0.637414   -0.123457
     40          6           0       -1.565900    0.073338   -0.418065
     41          6           0        0.685495    0.880354   -0.132925
     42          6           0       -0.181963   -0.092618   -0.427648
     43          1           0       13.191654   -0.941905    1.667948
     44          1           0       12.802629   -2.609654    1.706898
     45          1           0      -14.433767   -0.686031    1.316972
     46          1           0      -14.325059   -0.119302   -0.511629
     47          1           0       12.554805   -2.487994   -0.875681
     48          1           0      -13.129537    1.319566    2.106450
     49          1           0       14.048658    0.015446   -0.488267
     50          1           0       13.534207   -0.518954   -2.051659
     51          1           0      -13.367377    2.400327   -0.781318
     52          1           0      -12.271579    2.902157    0.472221
     53          1           0       11.361934   -1.711324    3.179081
     54          1           0        9.560528   -0.844111    2.795893
     55          1           0       11.250459    0.024433    2.671287
     56          1           0       10.669230   -2.964768   -0.428532
     57          1           0       10.606673   -3.367678    1.293634
     58          1           0        9.128851   -2.412054    0.614554
     59          1           0      -11.392941   -0.322062    2.628990
     60          1           0      -11.165047   -2.022023    2.145517
     61          1           0      -12.600977   -1.711133    2.745735
     62          1           0      -13.630973   -2.637127    0.522153
     63          1           0      -11.799958   -3.150312    0.192630
     64          1           0      -12.970872   -2.460093   -1.052390
     65          1           0        8.749715   -0.204770    0.309926
     66          1           0      -10.064761   -2.037356   -0.543410
     67          1           0       10.746101    1.566082   -1.991088
     68          1           0       12.175030    2.144181   -1.339453
     69          1           0       12.293263    0.876419   -2.751110
     70          1           0      -11.235268    2.509958   -1.974490
     71          1           0      -10.115734    0.833435   -2.146666
     72          1           0       -9.633364    2.400624   -0.810419
     73          1           0       14.472599   -3.225666    0.122861
     74          1           0      -15.341095    1.574442    1.551886
     75          1           0       10.244474    2.473684    0.228754
     76          1           0       -8.743083    0.641105   -0.326832
     77          1           0        9.109095    4.212407   -0.133230
     78          1           0        6.952032    4.272054    0.057234
     79          1           0        8.036234    4.001446    1.731734
     80          1           0       -8.548902   -2.959468   -0.090441
     81          1           0       -8.005567   -2.927226   -1.735437
     82          1           0       -6.690010   -3.343949   -0.626997
     83          1           0        7.129963    0.463157   -0.122517
     84          1           0       -6.361244    0.441713   -0.469952
     85          1           0        5.673858    2.951133    0.621219
     86          1           0       -4.893429   -2.219418   -0.898946
     87          1           0        4.612700    0.131840   -0.004435
     88          1           0       -3.881832    0.739578   -0.343351
     89          1           0        3.658950    3.381686    1.146221
     90          1           0        1.780589    3.157988    0.912889
     91          1           0        2.757481    3.663165   -0.649783
     92          1           0       -3.018143   -2.918892   -0.150882
     93          1           0       -2.707775   -2.750158   -1.885726
     94          1           0       -1.328024   -2.685275   -0.735084
     95          1           0        2.375869   -0.253992   -0.537905
     96          1           0       -1.978398    1.073168    0.047001
     97          1           0        0.089727    1.780901    0.180488
     98          1           0        0.269187   -1.039054   -0.750111
 ---------------------------------------------------------------------

 SCF Done:  E(RCAM-B3LYP) =  -1706.86577615     A.U. after   18 cycles

 Excitation energies and oscillator strengths:

 Excited State   1:      Singlet-A      1.7187 eV  721.36 nm  f=3.7390  <S**2>=0.000
     155 ->158         0.14295
     156 ->157         0.69912
     156 <-157        -0.12634
 This state for optimization and/or second-order correction.
 Total Energy, E(TD-HF/TD-DFT) =  -1706.80261336
 Copying the excited state density for this state as the 1-particle RhoCI density.

 The electronic state is 1-A.
 Alpha  occ. eigenvalues --  -19.22525 -19.22269 -10.30692 -10.30636 -10.30564
 Alpha  occ. eigenvalues --  -10.28515 -10.27964 -10.27918 -10.27843 -10.27771
 Alpha  occ. eigenvalues --  -10.27676 -10.27670 -10.27513 -10.27277 -10.27032
 Alpha  occ. eigenvalues --  -10.26970 -10.26885 -10.26816 -10.26804 -10.26706
 Alpha  occ. eigenvalues --  -10.26694 -10.26674 -10.26659 -10.26618 -10.26582
 Alpha  occ. eigenvalues --  -10.26422 -10.26391 -10.26055 -10.26031 -10.26012
 Alpha  occ. eigenvalues --  -10.25968 -10.25929 -10.25631 -10.25604 -10.25513
 Alpha  occ. eigenvalues --  -10.25485 -10.25451 -10.25334 -10.25302 -10.25238
 Alpha  occ. eigenvalues --  -10.25206 -10.25017  -1.11987  -1.10809  -0.94329
 Alpha  occ. eigenvalues --   -0.93859  -0.92379  -0.91501  -0.91231  -0.89969
 Alpha  occ. eigenvalues --   -0.88187  -0.87755  -0.87237  -0.85220  -0.84248
 Alpha  occ. eigenvalues --   -0.82536  -0.81680  -0.79667  -0.79354  -0.77786
 Alpha  occ. eigenvalues --   -0.76633  -0.76443  -0.76146  -0.76048  -0.75226
 Alpha  occ. eigenvalues --   -0.74855  -0.74705  -0.73859  -0.72883  -0.70588
 Alpha  occ. eigenvalues --   -0.68732  -0.66982  -0.65604  -0.65279  -0.63945
 Alpha  occ. eigenvalues --   -0.63728  -0.63211  -0.61908  -0.60310  -0.59729
 Alpha  occ. eigenvalues --   -0.59703  -0.59313  -0.58343  -0.57528  -0.56464
 Alpha  occ. eigenvalues --   -0.55310  -0.55155  -0.54974  -0.54239  -0.53681
 Alpha  occ. eigenvalues --   -0.53123  -0.52714  -0.52239  -0.51768  -0.51613
 Alpha  occ. eigenvalues --   -0.50762  -0.49889  -0.49492  -0.49371  -0.48957
 Alpha  occ. eigenvalues --   -0.48796  -0.48645  -0.48430  -0.48033  -0.47829
 Alpha  occ. eigenvalues --   -0.47471  -0.47336  -0.46975  -0.46089  -0.46060
 Alpha  occ. eigenvalues --   -0.45625  -0.45371  -0.45141  -0.44853  -0.44719
 Alpha  occ. eigenvalues --   -0.44488  -0.44145  -0.43990  -0.43871  -0.43292
 Alpha  occ. eigenvalues --   -0.43107  -0.42659  -0.42347  -0.42126  -0.41901
 Alpha  occ. eigenvalues --   -0.41503  -0.41338  -0.41021  -0.40829  -0.40273
 Alpha  occ. eigenvalues --   -0.40225  -0.40020  -0.39920  -0.39890  -0.39720
 Alpha  occ. eigenvalues --   -0.39341  -0.39067  -0.38320  -0.38224  -0.37750
 Alpha  occ. eigenvalues --   -0.37436  -0.37077  -0.36582  -0.36475  -0.35754
 Alpha  occ. eigenvalues --   -0.35126  -0.34380  -0.33844  -0.32713  -0.31946
 Alpha  occ. eigenvalues --   -0.31693  -0.30184  -0.28198  -0.26265  -0.22765
 Alpha  occ. eigenvalues --   -0.18095
 Alpha virt. eigenvalues --   -0.07647  -0.02143   0.01769   0.04770   0.07572
 Alpha virt. eigenvalues --    0.08570   0.10298   0.10912   0.11193   0.11531
 Alpha virt. eigenvalues --    0.11843   0.12000   0.12317   0.12909   0.13267

 Mulliken charges:
               1
     1  O   -0.541092
     2  O   -0.533739
     3  C   -0.017578
     4  C   -0.010828
     5  C   -0.207780
     6  C   -0.179001
     7  C    0.150026
     8  C    0.187277
     9  C    0.058014
    10  C    0.083402
    11  C   -0.218134
    12  C   -0.260795
    13  C    0.016821
    14  C    0.167561
    15  C   -0.287771
    16  C   -0.281177
    17  C   -0.299026
    18  C   -0.293171
    19  C   -0.120381
    20  C   -0.156177
    21  C   -0.325519
    22  C   -0.386739
    23  C   -0.114861
    24  C   -0.051112
    25  C    0.113434
    26  C    0.082238
    27  C   -0.333669
    28  C   -0.357519
    29  C   -0.109032
    30  C   -0.111338
    31  C   -0.119421
    32  C   -0.103403
    33  C   -0.101999
    34  C   -0.122934
    35  C    0.062860
    36  C    0.159106
    37  C   -0.335614
    38  C   -0.393020
    39  C   -0.142659
    40  C   -0.162085
    41  C   -0.046426
    42  C   -0.060407
    43  H    0.108572
    44  H    0.066740
    45  H    0.053109
    46  H    0.063556
    47  H    0.087779
    48  H    0.053244
    49  H    0.123541
    50  H    0.094374
    51  H    0.126774
    52  H    0.088227
    53  H    0.093565
    54  H    0.072005
    55  H    0.108787
    56  H    0.102478
    57  H    0.109958
    58  H    0.089446
    59  H    0.090988
    60  H    0.097827
    61  H    0.116826
    62  H    0.083243
    63  H    0.075257
    64  H    0.110776
    65  H    0.090271
    66  H    0.083774
    67  H    0.131894
    68  H    0.116640
    69  H    0.109971
    70  H    0.076676
    71  H    0.091985
    72  H    0.093952
    73  H    0.306017
    74  H    0.309867
    75  H    0.082462
    76  H    0.092878
    77  H    0.073930
    78  H    0.105017
    79  H    0.103569
    80  H    0.112696
    81  H    0.142974
    82  H    0.083248
    83  H    0.081981
    84  H    0.070958
    85  H    0.099551
    86  H    0.072173
    87  H    0.078299
    88  H    0.081470
    89  H    0.114580
    90  H    0.114001
    91  H    0.093761
    92  H    0.122120
    93  H    0.111812
    94  H    0.114053
    95  H    0.080055
    96  H    0.077985
    97  H    0.084666
    98  H    0.081311
 Sum of Mulliken charges =  -0.00000

 Dipole moment (field-independent basis, Debye):
    X=              0.7990    Y=             -2.6278    Z=              1.9633  Tot=              3.3761
 Quadrupole moment (field-independent basis, Debye-Ang):
   XX=           -269.6133   YY=           -249.1693   ZZ=           -264.0846
   XY=              6.6132   XZ=             -8.4555   YZ=              3.3149

 Normal termination of Gaussian 16 at Fri Jul 12 17:44:43 2019.
