 Gaussian 16, Revision A.03,
 Gaussian 16:  ES64L-G16RevA.03 25-Dec-2016

 -------------------------------------
 # td=(NStates=1) CAM-B3LYP/6-31G(d,p)
 -------------------------------------

 --
 TD
 --
 Symbolic Z-matrix:
 Charge =  0 Multiplicity = 1

                         Standard orientation:
 ---------------------------------------------------------------------
 Center     Atomic      Atomic             Coordinates (Angstroms)
 Number     Number       Type             X           Y           Z
 ---------------------------------------------------------------------
      1          8           0       14.698700   -2.281431   -0.179733
      2          8           0      -14.695408    1.805882    1.243075
      3          6           0       11.258921   -1.418489    0.965438
      4          6           0      -12.365135   -1.134159    0.640231
      5          6           0       12.765909   -1.788979    1.176190
      6          6           0      -13.678189   -0.383481    0.774514
      7          6           0       13.378643   -1.995089   -0.217426
      8          6           0      -13.525769    1.136776    1.098479
      9          6           0       10.932722   -0.333343    0.082030
     10          6           0      -11.299637   -0.273696   -0.180740
     11          6           0       13.257039   -0.574144   -0.869540
     12          6           0      -12.731482    1.800942    0.012360
     13          6           0       11.888860    0.132218   -0.911853
     14          6           0      -11.566522    1.050409   -0.502268
     15          6           0       10.910477   -1.053210    2.465926
     16          6           0       10.394623   -2.611772    0.565596
     17          6           0      -11.884600   -1.412355    2.143316
     18          6           0      -12.573333   -2.459604   -0.141648
     19          6           0        9.657283    0.339265    0.166966
     20          6           0      -10.044765   -1.036693   -0.435736
     21          6           0       11.657115    1.249292   -1.809854
     22          6           0      -10.691033    1.872247   -1.444068
     23          6           0        9.418631    1.720776    0.087966
     24          6           0       -8.836665   -0.443264   -0.312974
     25          6           0        8.019418    2.213466    0.136633
     26          6           0       -7.640404   -1.145368   -0.710006
     27          6           0        7.924460    3.605021    0.587873
     28          6           0       -7.745752   -2.562446   -1.080939
     29          6           0        6.919613    1.484665   -0.064809
     30          6           0       -6.393765   -0.540399   -0.519046
     31          6           0        5.555943    1.902912    0.077706
     32          6           0       -5.084885   -1.006820   -0.769906
     33          6           0        4.460147    1.163377   -0.086602
     34          6           0       -3.912660   -0.236938   -0.447946
     35          6           0        3.073110    1.637088    0.046079
     36          6           0       -2.578043   -0.676310   -0.635077
     37          6           0        2.815127    3.053445    0.508474
     38          6           0       -2.299409   -2.053379   -1.062984
     39          6           0        2.130907    0.671862   -0.187713
     40          6           0       -1.646072    0.333533   -0.398052
     41          6           0        0.717362    1.006017   -0.139052
     42          6           0       -0.224245    0.013275   -0.430578
     43          1           0       13.434998   -0.596730    1.472633
     44          1           0       12.932963   -2.600795    1.877452
     45          1           0      -14.331453   -0.750499    1.521567
     46          1           0      -14.182265   -0.376327   -0.184642
     47          1           0       12.783343   -2.839537   -0.854928
     48          1           0      -13.066548    1.282029    2.028223
     49          1           0       13.827878    0.122094   -0.309689
     50          1           0       13.720118   -0.694085   -1.876369
     51          1           0      -13.541868    1.910279   -0.777317
     52          1           0      -12.370486    2.989025    0.172399
     53          1           0       10.874159   -1.948446    3.038066
     54          1           0        9.851269   -0.478662    2.628112
     55          1           0       11.749937   -0.460006    2.948165
     56          1           0       10.629228   -2.970869   -0.391795
     57          1           0       10.488887   -3.329927    1.284943
     58          1           0        9.323994   -2.167278    0.462814
     59          1           0      -11.784656   -0.482574    2.617145
     60          1           0      -10.853678   -1.840294    2.033759
     61          1           0      -12.497236   -1.981453    2.651972
     62          1           0      -13.283031   -3.226309    0.467128
     63          1           0      -11.521811   -2.992480   -0.019383
     64          1           0      -12.932150   -2.394579   -1.108310
     65          1           0        8.929245   -0.462820    0.320771
     66          1           0      -10.141135   -1.906179   -1.102781
     67          1           0       10.652861    1.384421   -2.102396
     68          1           0       11.923313    2.214851   -1.654484
     69          1           0       12.143258    0.954322   -2.658225
     70          1           0      -11.517656    2.496350   -2.109040
     71          1           0      -10.189514    1.141703   -2.045359
     72          1           0       -9.896768    2.571158   -0.988779
     73          1           0       14.798101   -3.065440    0.502945
     74          1           0      -15.155909    1.249474    1.977636
     75          1           0       10.360991    2.385085   -0.042198
     76          1           0       -8.688786    0.625341   -0.218039
     77          1           0        9.078153    4.217202    0.414628
     78          1           0        7.104492    4.355181    0.079294
     79          1           0        7.733990    3.814057    1.711929
     80          1           0       -8.434266   -3.007220   -0.324068
     81          1           0       -8.144276   -2.479390   -2.268403
     82          1           0       -6.830427   -3.060296   -1.058279
     83          1           0        7.023893    0.568739   -0.555782
     84          1           0       -6.397016    0.432413   -0.247940
     85          1           0        5.370007    2.984618    0.205101
     86          1           0       -4.716798   -1.857405   -0.964412
     87          1           0        4.404769    0.185240   -0.513795
     88          1           0       -4.173189    0.848070   -0.276279
     89          1           0        3.476911    3.509873    1.415999
     90          1           0        1.959767    3.528382    0.636999
     91          1           0        3.212655    3.787970   -0.292827
     92          1           0       -2.547973   -2.830392   -0.361652
     93          1           0       -2.857381   -2.291736   -2.081635
     94          1           0       -1.278534   -2.371095   -1.403263
     95          1           0        2.454238   -0.289100   -0.575185
     96          1           0       -1.714324    1.367260   -0.218252
     97          1           0        0.349490    2.011992    0.103712
     98          1           0       -0.053767   -0.860720   -0.556377
 ---------------------------------------------------------------------

 SCF Done:  E(RCAM-B3LYP) =  -1706.91193236     A.U. after   15 cycles

 Excitation energies and oscillator strengths:

 Excited State   1:      Singlet-A      2.4253 eV  511.22 nm  f=3.7815  <S**2>=0.000
     155 ->158         0.17541
     156 ->157         0.68034
 This state for optimization and/or second-order correction.
 Total Energy, E(TD-HF/TD-DFT) =  -1706.82280518
 Copying the excited state density for this state as the 1-particle RhoCI density.

 The electronic state is 1-A.
 Alpha  occ. eigenvalues --  -19.22510 -19.21407 -10.31551 -10.28685 -10.28397
 Alpha  occ. eigenvalues --  -10.28052 -10.27923 -10.27887 -10.27525 -10.27515
 Alpha  occ. eigenvalues --  -10.27295 -10.27271 -10.27248 -10.27120 -10.27113
 Alpha  occ. eigenvalues --  -10.26605 -10.26578 -10.26484 -10.26471 -10.26399
 Alpha  occ. eigenvalues --  -10.26397 -10.26293 -10.26138 -10.25961 -10.25916
 Alpha  occ. eigenvalues --  -10.25847 -10.25681 -10.25670 -10.25584 -10.25550
 Alpha  occ. eigenvalues --  -10.25532 -10.25475 -10.25332 -10.25297 -10.25186
 Alpha  occ. eigenvalues --  -10.24706 -10.24554 -10.24455 -10.24411 -10.23906
 Alpha  occ. eigenvalues --  -10.22862 -10.22847  -1.11378  -1.10998  -0.93899
 Alpha  occ. eigenvalues --   -0.92478  -0.92165  -0.91623  -0.90528  -0.90010
 Alpha  occ. eigenvalues --   -0.87380  -0.86993  -0.85988  -0.85117  -0.84307
 Alpha  occ. eigenvalues --   -0.82759  -0.81748  -0.80359  -0.79091  -0.78753
 Alpha  occ. eigenvalues --   -0.77136  -0.76804  -0.76270  -0.76109  -0.75693
 Alpha  occ. eigenvalues --   -0.75023  -0.74506  -0.73995  -0.73356  -0.70404
 Alpha  occ. eigenvalues --   -0.68566  -0.67552  -0.65638  -0.65251  -0.64330
 Alpha  occ. eigenvalues --   -0.63737  -0.63357  -0.62715  -0.61263  -0.60939
 Alpha  occ. eigenvalues --   -0.59301  -0.58897  -0.58776  -0.57396  -0.56529
 Alpha  occ. eigenvalues --   -0.56333  -0.55451  -0.54690  -0.54308  -0.53997
 Alpha  occ. eigenvalues --   -0.53223  -0.52863  -0.52085  -0.51328  -0.51031
 Alpha  occ. eigenvalues --   -0.50845  -0.50266  -0.49921  -0.49645  -0.49424
 Alpha  occ. eigenvalues --   -0.49179  -0.48819  -0.48452  -0.48282  -0.47975
 Alpha  occ. eigenvalues --   -0.47933  -0.47615  -0.46940  -0.46850  -0.46653
 Alpha  occ. eigenvalues --   -0.46340  -0.46121  -0.45702  -0.45067  -0.44722
 Alpha  occ. eigenvalues --   -0.44532  -0.44381  -0.44195  -0.43623  -0.43414
 Alpha  occ. eigenvalues --   -0.43324  -0.43230  -0.42850  -0.42521  -0.42342
 Alpha  occ. eigenvalues --   -0.41862  -0.41130  -0.40998  -0.40780  -0.40660
 Alpha  occ. eigenvalues --   -0.40543  -0.40146  -0.39922  -0.39740  -0.39552
 Alpha  occ. eigenvalues --   -0.39081  -0.38956  -0.38168  -0.37882  -0.37790
 Alpha  occ. eigenvalues --   -0.37612  -0.37504  -0.36847  -0.35759  -0.35381
 Alpha  occ. eigenvalues --   -0.34886  -0.34541  -0.33480  -0.31846  -0.31381
 Alpha  occ. eigenvalues --   -0.30919  -0.28981  -0.27334  -0.25732  -0.23099
 Alpha  occ. eigenvalues --   -0.19810
 Alpha virt. eigenvalues --   -0.04972  -0.01148   0.02119   0.05282   0.07267
 Alpha virt. eigenvalues --    0.08738   0.09942   0.10781   0.11018   0.11266
 Alpha virt. eigenvalues --    0.11650   0.12429   0.12961   0.13223   0.13334

 Mulliken charges:
               1
     1  O   -0.540272
     2  O   -0.547981
     3  C   -0.030270
     4  C   -0.005987
     5  C   -0.180376
     6  C   -0.193182
     7  C    0.198997
     8  C    0.178181
     9  C    0.055466
    10  C    0.025207
    11  C   -0.235236
    12  C   -0.228709
    13  C    0.048793
    14  C    0.074919
    15  C   -0.297600
    16  C   -0.286856
    17  C   -0.305793
    18  C   -0.297203
    19  C   -0.085759
    20  C   -0.173776
    21  C   -0.385200
    22  C   -0.356000
    23  C   -0.136224
    24  C   -0.071095
    25  C    0.123705
    26  C    0.090444
    27  C   -0.362661
    28  C   -0.353791
    29  C   -0.106230
    30  C   -0.110078
    31  C   -0.094146
    32  C   -0.055351
    33  C   -0.104058
    34  C   -0.130715
    35  C    0.145602
    36  C    0.109051
    37  C   -0.382931
    38  C   -0.400144
    39  C   -0.145348
    40  C   -0.108262
    41  C   -0.107732
    42  C   -0.009785
    43  H    0.050483
    44  H    0.082412
    45  H    0.071311
    46  H    0.095113
    47  H    0.048914
    48  H    0.072646
    49  H    0.129331
    50  H    0.098867
    51  H    0.111899
    52  H    0.083472
    53  H    0.098531
    54  H    0.085754
    55  H    0.102548
    56  H    0.115460
    57  H    0.102972
    58  H    0.089689
    59  H    0.109161
    60  H    0.096454
    61  H    0.108952
    62  H    0.071671
    63  H    0.091044
    64  H    0.117050
    65  H    0.084581
    66  H    0.122165
    67  H    0.134975
    68  H    0.128885
    69  H    0.109318
    70  H    0.085569
    71  H    0.125273
    72  H    0.109108
    73  H    0.309627
    74  H    0.304179
    75  H    0.105111
    76  H    0.091274
    77  H    0.061100
    78  H    0.096015
    79  H    0.123599
    80  H    0.122251
    81  H    0.091684
    82  H    0.115794
    83  H    0.078667
    84  H    0.064406
    85  H    0.077751
    86  H    0.046695
    87  H    0.073829
    88  H    0.078256
    89  H    0.105891
    90  H    0.122319
    91  H    0.108247
    92  H    0.138811
    93  H    0.115764
    94  H    0.119506
    95  H    0.093133
    96  H    0.083910
    97  H    0.090696
    98  H    0.026262
 Sum of Mulliken charges =  -0.00000

 Dipole moment (field-independent basis, Debye):
    X=              2.1080    Y=             -1.9766    Z=              0.7884  Tot=              2.9953
 Quadrupole moment (field-independent basis, Debye-Ang):
   XX=           -282.3984   YY=           -243.1582   ZZ=           -260.9523
   XY=              5.7877   XZ=              0.1013   YZ=             -1.1894

 Normal termination of Gaussian 16 at Sat Jul 13 08:57:34 2019.
