 Gaussian 16, Revision A.03,
 Gaussian 16:  ES64L-G16RevA.03 25-Dec-2016

 -------------------------------------
 # td=(NStates=1) CAM-B3LYP/6-31G(d,p)
 -------------------------------------

 --
 TD
 --
 Symbolic Z-matrix:
 Charge =  0 Multiplicity = 1

                         Standard orientation:
 ---------------------------------------------------------------------
 Center     Atomic      Atomic             Coordinates (Angstroms)
 Number     Number       Type             X           Y           Z
 ---------------------------------------------------------------------
      1          8           0       14.617703   -2.227875   -0.290615
      2          8           0      -14.524158    2.089945    0.907391
      3          6           0       11.107451   -1.358348    1.027325
      4          6           0      -12.398028   -0.974203    0.555070
      5          6           0       12.617267   -1.729937    1.067596
      6          6           0      -13.586941   -0.142163    0.660734
      7          6           0       13.323891   -1.975503   -0.356944
      8          6           0      -13.404336    1.290137    0.903843
      9          6           0       10.871683   -0.268618    0.031792
     10          6           0      -11.314794   -0.197313   -0.122612
     11          6           0       13.128527   -0.603810   -1.011131
     12          6           0      -12.590944    1.977339   -0.142060
     13          6           0       11.838625    0.065371   -0.954406
     14          6           0      -11.405024    1.092150   -0.554148
     15          6           0       10.788790   -0.981004    2.478709
     16          6           0       10.281765   -2.620862    0.470365
     17          6           0      -12.010035   -1.464442    1.919942
     18          6           0      -12.903340   -2.175309   -0.229899
     19          6           0        9.606507    0.345099    0.136195
     20          6           0      -10.078076   -0.916904   -0.453454
     21          6           0       11.649245    1.212062   -2.012238
     22          6           0      -10.385316    1.728785   -1.462517
     23          6           0        9.418817    1.743613    0.046460
     24          6           0       -8.786374   -0.426466   -0.395954
     25          6           0        8.102975    2.380476    0.089509
     26          6           0       -7.525080   -1.147238   -0.668421
     27          6           0        8.011334    3.790895    0.295109
     28          6           0       -7.694648   -2.732812   -1.091901
     29          6           0        6.940325    1.533079    0.071043
     30          6           0       -6.311131   -0.644187   -0.370940
     31          6           0        5.575758    1.960166    0.229188
     32          6           0       -5.073489   -1.244544   -0.533261
     33          6           0        4.439986    1.192061    0.082533
     34          6           0       -3.961812   -0.433134   -0.202916
     35          6           0        3.130504    1.663850    0.173749
     36          6           0       -2.589495   -0.997896   -0.250839
     37          6           0        2.928425    3.100510    0.377576
     38          6           0       -2.324458   -2.428989   -0.679371
     39          6           0        2.113583    0.696322    0.078091
     40          6           0       -1.585194   -0.003204   -0.123279
     41          6           0        0.713176    0.956996    0.032179
     42          6           0       -0.238443   -0.081806   -0.213065
     43          1           0       13.310160   -0.906479    1.443691
     44          1           0       12.687572   -2.598081    1.701526
     45          1           0      -14.277363   -0.753426    1.181514
     46          1           0      -14.020848   -0.026773   -0.274407
     47          1           0       12.624323   -2.557817   -0.881374
     48          1           0      -12.807148    1.119167    1.887626
     49          1           0       13.842465    0.180522   -0.703096
     50          1           0       13.523809   -0.679554   -2.099350
     51          1           0      -13.088906    2.064174   -1.004118
     52          1           0      -12.093084    2.825915    0.342562
     53          1           0       10.808582   -1.723556    3.191301
     54          1           0        9.664919   -0.729813    2.595993
     55          1           0       11.449572   -0.053403    2.682231
     56          1           0       10.684595   -2.765422   -0.654438
     57          1           0       10.452679   -3.419219    1.031720
     58          1           0        9.112410   -2.236813    0.740103
     59          1           0      -11.733161   -0.805933    2.726771
     60          1           0      -11.147744   -2.081508    1.956479
     61          1           0      -12.955317   -1.970744    2.305514
     62          1           0      -13.784804   -2.725564    0.154537
     63          1           0      -12.127736   -3.125769   -0.304566
     64          1           0      -12.946899   -1.877131   -1.290149
     65          1           0        8.813658   -0.261039    0.617507
     66          1           0      -10.197736   -1.873726   -0.637033
     67          1           0       10.581546    1.456744   -2.008250
     68          1           0       12.356619    2.064688   -1.874122
     69          1           0       12.124784    0.826768   -2.853798
     70          1           0      -10.845360    2.620927   -2.060552
     71          1           0       -9.664623    1.294124   -2.156214
     72          1           0       -9.519703    2.305936   -0.889130
     73          1           0       14.646825   -2.887152    0.278056
     74          1           0      -15.350481    1.612314    1.298916
     75          1           0       10.286923    2.254354    0.140541
     76          1           0       -8.606312    0.690488   -0.018499
     77          1           0        8.774348    4.411029    0.019394
     78          1           0        7.103806    4.109426   -0.168870
     79          1           0        7.933142    3.882929    1.499477
     80          1           0       -8.201201   -3.254372   -0.277128
     81          1           0       -8.520624   -2.735852   -1.889085
     82          1           0       -6.848762   -3.136489   -1.675240
     83          1           0        7.004676    0.503345   -0.139754
     84          1           0       -6.450077    0.461942    0.021314
     85          1           0        5.479751    3.048581    0.371514
     86          1           0       -4.800568   -2.241147   -1.089654
     87          1           0        4.609588    0.127884   -0.088403
     88          1           0       -3.830056    0.443792    0.171943
     89          1           0        3.337214    3.346049    1.326777
     90          1           0        1.751982    3.179724    0.295957
     91          1           0        3.288811    3.495774   -0.500208
     92          1           0       -2.769081   -3.171408   -0.188827
     93          1           0       -2.553242   -2.502319   -1.640400
     94          1           0       -1.218369   -2.632109   -0.612545
     95          1           0        2.512765   -0.354624    0.207925
     96          1           0       -2.214774    0.926638    0.097284
     97          1           0        0.272720    1.912086    0.231921
     98          1           0        0.255332   -1.055959   -0.861000
 ---------------------------------------------------------------------

 SCF Done:  E(RCAM-B3LYP) =  -1706.91591663     A.U. after   15 cycles

 Excitation energies and oscillator strengths:

 Excited State   1:      Singlet-A      1.9497 eV  635.92 nm  f=3.5713  <S**2>=0.000
     155 ->158        -0.16144
     156 ->157         0.68754
 This state for optimization and/or second-order correction.
 Total Energy, E(TD-HF/TD-DFT) =  -1706.84426741
 Copying the excited state density for this state as the 1-particle RhoCI density.

 The electronic state is 1-A.
 Alpha  occ. eigenvalues --  -19.22676 -19.22071 -10.30448 -10.29698 -10.27676
 Alpha  occ. eigenvalues --  -10.27667 -10.27645 -10.27471 -10.27212 -10.27180
 Alpha  occ. eigenvalues --  -10.26927 -10.26892 -10.26842 -10.26680 -10.26613
 Alpha  occ. eigenvalues --  -10.26501 -10.26483 -10.26307 -10.26126 -10.26120
 Alpha  occ. eigenvalues --  -10.26087 -10.26041 -10.25980 -10.25962 -10.25916
 Alpha  occ. eigenvalues --  -10.25602 -10.25485 -10.25451 -10.25446 -10.25345
 Alpha  occ. eigenvalues --  -10.25334 -10.25327 -10.25318 -10.25224 -10.25043
 Alpha  occ. eigenvalues --  -10.25001 -10.24944 -10.24264 -10.24004 -10.23887
 Alpha  occ. eigenvalues --  -10.23541 -10.22639  -1.16790  -1.10189  -0.95076
 Alpha  occ. eigenvalues --   -0.93744  -0.92020  -0.91108  -0.90228  -0.89116
 Alpha  occ. eigenvalues --   -0.87740  -0.86993  -0.86342  -0.85431  -0.84859
 Alpha  occ. eigenvalues --   -0.82845  -0.81738  -0.80273  -0.79309  -0.79046
 Alpha  occ. eigenvalues --   -0.76946  -0.76852  -0.76636  -0.76064  -0.75925
 Alpha  occ. eigenvalues --   -0.75647  -0.75072  -0.74877  -0.73105  -0.71087
 Alpha  occ. eigenvalues --   -0.69860  -0.67532  -0.66281  -0.65286  -0.64941
 Alpha  occ. eigenvalues --   -0.64413  -0.63175  -0.61483  -0.61068  -0.60078
 Alpha  occ. eigenvalues --   -0.59843  -0.59231  -0.58886  -0.58100  -0.56814
 Alpha  occ. eigenvalues --   -0.56036  -0.55376  -0.54992  -0.54572  -0.53537
 Alpha  occ. eigenvalues --   -0.52935  -0.52811  -0.52423  -0.52140  -0.51691
 Alpha  occ. eigenvalues --   -0.51333  -0.51039  -0.50342  -0.50078  -0.49956
 Alpha  occ. eigenvalues --   -0.49688  -0.49543  -0.48640  -0.48610  -0.48218
 Alpha  occ. eigenvalues --   -0.47942  -0.47859  -0.47265  -0.47037  -0.46363
 Alpha  occ. eigenvalues --   -0.46008  -0.45565  -0.45305  -0.44991  -0.44783
 Alpha  occ. eigenvalues --   -0.44529  -0.44517  -0.44116  -0.43478  -0.43394
 Alpha  occ. eigenvalues --   -0.43198  -0.43015  -0.42703  -0.42069  -0.41895
 Alpha  occ. eigenvalues --   -0.41479  -0.41404  -0.41258  -0.40870  -0.40690
 Alpha  occ. eigenvalues --   -0.40213  -0.39920  -0.39654  -0.39417  -0.39168
 Alpha  occ. eigenvalues --   -0.39097  -0.38581  -0.38468  -0.38222  -0.38178
 Alpha  occ. eigenvalues --   -0.37404  -0.36956  -0.36927  -0.36556  -0.36068
 Alpha  occ. eigenvalues --   -0.35996  -0.34574  -0.33575  -0.32138  -0.31954
 Alpha  occ. eigenvalues --   -0.30637  -0.29217  -0.27556  -0.25141  -0.22275
 Alpha  occ. eigenvalues --   -0.18247
 Alpha virt. eigenvalues --   -0.05947  -0.01385   0.02103   0.05550   0.07797
 Alpha virt. eigenvalues --    0.09765   0.10902   0.11209   0.11324   0.11832
 Alpha virt. eigenvalues --    0.12441   0.13018   0.13763   0.13963   0.14112

 Mulliken charges:
               1
     1  O   -0.482591
     2  O   -0.556993
     3  C   -0.053410
     4  C   -0.026332
     5  C   -0.212582
     6  C   -0.181250
     7  C    0.163493
     8  C    0.182948
     9  C    0.076421
    10  C    0.068717
    11  C   -0.248562
    12  C   -0.187528
    13  C    0.054764
    14  C    0.024797
    15  C   -0.291049
    16  C   -0.275446
    17  C   -0.287651
    18  C   -0.299568
    19  C   -0.105937
    20  C   -0.112554
    21  C   -0.355619
    22  C   -0.372140
    23  C   -0.138293
    24  C   -0.106819
    25  C    0.083798
    26  C    0.077276
    27  C   -0.364003
    28  C   -0.373922
    29  C   -0.114881
    30  C   -0.100862
    31  C   -0.105924
    32  C   -0.115249
    33  C   -0.107661
    34  C   -0.060366
    35  C    0.095885
    36  C    0.069588
    37  C   -0.352721
    38  C   -0.377953
    39  C   -0.128826
    40  C   -0.108465
    41  C   -0.100958
    42  C   -0.110830
    43  H    0.093232
    44  H    0.070602
    45  H    0.078559
    46  H    0.089415
    47  H    0.076110
    48  H    0.047517
    49  H    0.119969
    50  H    0.088788
    51  H    0.127664
    52  H    0.128969
    53  H    0.113131
    54  H    0.081275
    55  H    0.106604
    56  H    0.101606
    57  H    0.112074
    58  H    0.074083
    59  H    0.107675
    60  H    0.109581
    61  H    0.079549
    62  H    0.109499
    63  H    0.066223
    64  H    0.115339
    65  H    0.091516
    66  H    0.062598
    67  H    0.132857
    68  H    0.108766
    69  H    0.112634
    70  H    0.084505
    71  H    0.140171
    72  H    0.091506
    73  H    0.294255
    74  H    0.306643
    75  H    0.096936
    76  H    0.071377
    77  H    0.123508
    78  H    0.124018
    79  H    0.110333
    80  H    0.131835
    81  H    0.102372
    82  H    0.111297
    83  H    0.077621
    84  H    0.076376
    85  H    0.071471
    86  H    0.101005
    87  H    0.073472
    88  H    0.065786
    89  H    0.137826
    90  H    0.087413
    91  H    0.138735
    92  H    0.128098
    93  H    0.137662
    94  H    0.101465
    95  H    0.089056
    96  H    0.068898
    97  H    0.096200
    98  H    0.073583
 Sum of Mulliken charges =  -0.00000

 Dipole moment (field-independent basis, Debye):
    X=              1.8460    Y=             -1.8020    Z=              1.1469  Tot=              2.8231
 Quadrupole moment (field-independent basis, Debye-Ang):
   XX=           -223.8714   YY=           -245.2912   ZZ=           -262.6658
   XY=             13.2058   XZ=              6.9137   YZ=             -1.7906

 Normal termination of Gaussian 16 at Thu Jul 11 06:10:05 2019.
