 Gaussian 16, Revision A.03,
 Gaussian 16:  ES64L-G16RevA.03 25-Dec-2016

 -------------------------------------
 # td=(NStates=1) CAM-B3LYP/6-31G(d,p)
 -------------------------------------

 --
 TD
 --
 Symbolic Z-matrix:
 Charge =  0 Multiplicity = 1

                         Standard orientation:
 ---------------------------------------------------------------------
 Center     Atomic      Atomic             Coordinates (Angstroms)
 Number     Number       Type             X           Y           Z
 ---------------------------------------------------------------------
      1          8           0       14.684888   -2.192699   -0.229384
      2          8           0      -14.811419    1.801637    1.261269
      3          6           0       11.133226   -1.520500    1.066714
      4          6           0      -12.335235   -1.011184    0.787789
      5          6           0       12.603669   -1.940455    0.995532
      6          6           0      -13.755329   -0.370446    0.910431
      7          6           0       13.271337   -1.886084   -0.315422
      8          6           0      -13.513194    1.200816    1.058733
      9          6           0       10.920496   -0.282458    0.117242
     10          6           0      -11.299332   -0.164420   -0.107587
     11          6           0       13.258520   -0.431907   -0.863536
     12          6           0      -12.802039    1.808887   -0.170958
     13          6           0       11.972292    0.157400   -0.763464
     14          6           0      -11.545004    1.050033   -0.576859
     15          6           0       10.756362   -1.179693    2.402511
     16          6           0       10.360343   -2.701934    0.572546
     17          6           0      -11.666812   -1.319583    2.131642
     18          6           0      -12.600474   -2.379020    0.238237
     19          6           0        9.651852    0.284855    0.165011
     20          6           0      -10.031873   -0.921159   -0.474163
     21          6           0       11.690969    1.336415   -1.747018
     22          6           0      -10.662299    1.845604   -1.585037
     23          6           0        9.357123    1.629865    0.180344
     24          6           0       -8.810660   -0.491774   -0.483330
     25          6           0        8.092081    2.297159    0.252816
     26          6           0       -7.562812   -1.199404   -0.789197
     27          6           0        7.956831    3.684494    0.719883
     28          6           0       -7.724134   -2.626468   -1.169102
     29          6           0        6.916202    1.561399    0.019955
     30          6           0       -6.384971   -0.646330   -0.492963
     31          6           0        5.617172    1.987508    0.238787
     32          6           0       -5.054632   -1.077026   -0.738948
     33          6           0        4.477787    1.259332   -0.179063
     34          6           0       -3.928912   -0.342181   -0.399656
     35          6           0        3.194422    1.708734   -0.051261
     36          6           0       -2.585213   -0.770676   -0.655275
     37          6           0        2.882921    3.208652    0.370462
     38          6           0       -2.256196   -2.149530   -1.295241
     39          6           0        2.184005    0.785293   -0.279543
     40          6           0       -1.639182    0.196665   -0.319274
     41          6           0        0.722515    1.014531   -0.211143
     42          6           0       -0.227574    0.040733   -0.448674
     43          1           0       13.365560   -1.270637    1.628223
     44          1           0       12.854417   -2.935782    1.479732
     45          1           0      -14.194529   -0.672152    1.775171
     46          1           0      -14.414625   -0.604403    0.047186
     47          1           0       12.721260   -2.739681   -0.886177
     48          1           0      -12.872460    1.234703    1.907431
     49          1           0       14.097042    0.048868   -0.172237
     50          1           0       13.789430   -0.356293   -1.851409
     51          1           0      -13.591028    1.838805   -0.939561
     52          1           0      -12.595549    2.968482    0.006218
     53          1           0       10.727821   -2.079311    3.232394
     54          1           0        9.683014   -1.057495    2.433321
     55          1           0       11.256604   -0.119097    2.915951
     56          1           0       10.613622   -3.154455   -0.387225
     57          1           0       10.609217   -3.611456    1.290619
     58          1           0        9.300209   -2.373440    0.483016
     59          1           0      -11.318995   -0.482493    2.607283
     60          1           0      -10.891096   -1.976592    2.001343
     61          1           0      -12.131416   -2.075970    2.855930
     62          1           0      -13.484063   -2.831537    0.688726
     63          1           0      -11.985113   -3.203555    0.267957
     64          1           0      -12.661865   -2.260281   -0.811023
     65          1           0        8.816977   -0.263791    0.342377
     66          1           0      -10.184587   -1.983463   -0.596215
     67          1           0       10.650861    1.333843   -2.053686
     68          1           0       11.904104    2.292912   -1.327550
     69          1           0       12.280378    1.151358   -2.666304
     70          1           0      -11.320076    2.369477   -2.416956
     71          1           0      -10.107530    1.157333   -1.995051
     72          1           0      -10.131714    2.677670   -1.176604
     73          1           0       15.024697   -3.086187    0.382535
     74          1           0      -15.003820    1.399652    2.016808
     75          1           0       10.419849    2.238257    0.377214
     76          1           0       -8.687350    0.577306   -0.106660
     77          1           0        9.025766    4.256027    0.448159
     78          1           0        7.044464    4.120393    0.275238
     79          1           0        7.810837    3.874224    1.912414
     80          1           0       -8.209663   -3.261671   -0.359339
     81          1           0       -8.268988   -2.821033   -2.052520
     82          1           0       -6.938212   -3.041276   -1.357859
     83          1           0        7.125764    0.438355   -0.214712
     84          1           0       -6.380583    0.562954   -0.364330
     85          1           0        5.453095    2.933654    0.738353
     86          1           0       -4.941928   -2.134012   -1.241368
     87          1           0        4.633418    0.289869   -0.839943
     88          1           0       -4.134073    0.653331   -0.122904
     89          1           0        3.085909    3.292357    1.346409
     90          1           0        1.950167    3.617415   -0.015867
     91          1           0        3.782442    3.818228   -0.077524
     92          1           0       -2.583961   -2.838220   -0.757584
     93          1           0       -2.908019   -2.190648   -2.161726
     94          1           0       -1.241802   -2.308004   -1.704312
     95          1           0        2.270298   -0.375419   -0.694855
     96          1           0       -2.159896    1.120245   -0.136516
     97          1           0        0.244747    2.016994    0.029853
     98          1           0        0.007737   -0.922702   -0.928462
 ---------------------------------------------------------------------

 SCF Done:  E(RCAM-B3LYP) =  -1706.93961156     A.U. after   15 cycles

 Excitation energies and oscillator strengths:

 Excited State   1:      Singlet-A      2.1833 eV  567.89 nm  f=3.4680  <S**2>=0.000
     155 ->158        -0.16279
     156 ->157         0.68607
 This state for optimization and/or second-order correction.
 Total Energy, E(TD-HF/TD-DFT) =  -1706.85937816
 Copying the excited state density for this state as the 1-particle RhoCI density.

 The electronic state is 1-A.
 Alpha  occ. eigenvalues --  -19.21583 -19.20313 -10.30731 -10.30181 -10.28611
 Alpha  occ. eigenvalues --  -10.28225 -10.27926 -10.27899 -10.27675 -10.27519
 Alpha  occ. eigenvalues --  -10.27506 -10.27437 -10.27298 -10.27221 -10.27188
 Alpha  occ. eigenvalues --  -10.27164 -10.27067 -10.26944 -10.26904 -10.26896
 Alpha  occ. eigenvalues --  -10.26667 -10.26632 -10.26486 -10.26461 -10.26428
 Alpha  occ. eigenvalues --  -10.26379 -10.26290 -10.26265 -10.26132 -10.26117
 Alpha  occ. eigenvalues --  -10.25674 -10.25640 -10.25414 -10.25197 -10.25130
 Alpha  occ. eigenvalues --  -10.24840 -10.24657 -10.24494 -10.24347 -10.23660
 Alpha  occ. eigenvalues --  -10.23305 -10.23017  -1.11084  -1.05651  -0.94115
 Alpha  occ. eigenvalues --   -0.93162  -0.92225  -0.91835  -0.90917  -0.90087
 Alpha  occ. eigenvalues --   -0.87713  -0.87532  -0.86874  -0.85677  -0.84881
 Alpha  occ. eigenvalues --   -0.83007  -0.81930  -0.80748  -0.80040  -0.79345
 Alpha  occ. eigenvalues --   -0.78048  -0.77301  -0.76856  -0.76235  -0.75944
 Alpha  occ. eigenvalues --   -0.75724  -0.75399  -0.75172  -0.73633  -0.70569
 Alpha  occ. eigenvalues --   -0.68892  -0.67095  -0.65726  -0.64804  -0.64269
 Alpha  occ. eigenvalues --   -0.63379  -0.62524  -0.61386  -0.60797  -0.59849
 Alpha  occ. eigenvalues --   -0.59201  -0.58948  -0.58045  -0.57879  -0.55872
 Alpha  occ. eigenvalues --   -0.55857  -0.54966  -0.54843  -0.54053  -0.53357
 Alpha  occ. eigenvalues --   -0.52965  -0.52356  -0.52003  -0.51580  -0.51287
 Alpha  occ. eigenvalues --   -0.50800  -0.50525  -0.50452  -0.50322  -0.50067
 Alpha  occ. eigenvalues --   -0.49731  -0.49370  -0.48587  -0.48482  -0.48175
 Alpha  occ. eigenvalues --   -0.47982  -0.47464  -0.46653  -0.46599  -0.46373
 Alpha  occ. eigenvalues --   -0.46024  -0.45601  -0.45357  -0.44931  -0.44892
 Alpha  occ. eigenvalues --   -0.44722  -0.44697  -0.44137  -0.44081  -0.43249
 Alpha  occ. eigenvalues --   -0.43151  -0.42559  -0.42447  -0.42211  -0.42050
 Alpha  occ. eigenvalues --   -0.41885  -0.41664  -0.41244  -0.41030  -0.40865
 Alpha  occ. eigenvalues --   -0.40808  -0.40406  -0.40247  -0.39945  -0.39605
 Alpha  occ. eigenvalues --   -0.38942  -0.38655  -0.38373  -0.38069  -0.37785
 Alpha  occ. eigenvalues --   -0.37413  -0.37340  -0.37110  -0.36533  -0.36068
 Alpha  occ. eigenvalues --   -0.35640  -0.35046  -0.34165  -0.32729  -0.31590
 Alpha  occ. eigenvalues --   -0.31268  -0.30520  -0.28367  -0.26482  -0.23297
 Alpha  occ. eigenvalues --   -0.19627
 Alpha virt. eigenvalues --   -0.05953  -0.01599   0.02408   0.05190   0.07677
 Alpha virt. eigenvalues --    0.08935   0.09550   0.11530   0.11959   0.12309
 Alpha virt. eigenvalues --    0.12464   0.12821   0.13401   0.13421   0.13725

 Mulliken charges:
               1
     1  O   -0.589367
     2  O   -0.532190
     3  C    0.014373
     4  C   -0.015234
     5  C   -0.188470
     6  C   -0.188468
     7  C    0.200393
     8  C    0.118357
     9  C    0.054530
    10  C    0.049809
    11  C   -0.235954
    12  C   -0.217189
    13  C    0.062091
    14  C    0.036772
    15  C   -0.276597
    16  C   -0.296511
    17  C   -0.303213
    18  C   -0.321304
    19  C   -0.102550
    20  C   -0.137112
    21  C   -0.363155
    22  C   -0.344893
    23  C   -0.122226
    24  C   -0.084842
    25  C    0.108170
    26  C    0.108632
    27  C   -0.359907
    28  C   -0.349312
    29  C   -0.106857
    30  C   -0.131059
    31  C   -0.112189
    32  C   -0.100170
    33  C   -0.099360
    34  C   -0.111481
    35  C    0.087983
    36  C    0.093082
    37  C   -0.360095
    38  C   -0.361320
    39  C   -0.127758
    40  C   -0.121172
    41  C   -0.089297
    42  C   -0.086704
    43  H    0.072373
    44  H    0.067984
    45  H    0.092471
    46  H    0.106602
    47  H    0.066869
    48  H    0.090834
    49  H    0.121817
    50  H    0.116014
    51  H    0.122032
    52  H    0.092238
    53  H    0.074932
    54  H    0.105650
    55  H    0.085689
    56  H    0.113813
    57  H    0.087209
    58  H    0.097160
    59  H    0.105130
    60  H    0.116256
    61  H    0.081618
    62  H    0.101274
    63  H    0.099588
    64  H    0.105251
    65  H    0.078782
    66  H    0.079096
    67  H    0.129759
    68  H    0.124722
    69  H    0.095591
    70  H    0.089636
    71  H    0.128904
    72  H    0.121644
    73  H    0.301292
    74  H    0.292166
    75  H    0.067892
    76  H    0.077480
    77  H    0.088534
    78  H    0.118481
    79  H    0.103898
    80  H    0.110080
    81  H    0.120608
    82  H    0.101850
    83  H    0.074065
    84  H    0.065865
    85  H    0.084293
    86  H    0.074978
    87  H    0.090989
    88  H    0.089784
    89  H    0.146126
    90  H    0.125751
    91  H    0.101277
    92  H    0.138899
    93  H    0.123858
    94  H    0.117082
    95  H    0.079041
    96  H    0.079787
    97  H    0.080824
    98  H    0.075931
 Sum of Mulliken charges =  -0.00000

 Dipole moment (field-independent basis, Debye):
    X=             -0.4258    Y=             -2.4134    Z=              0.8622  Tot=              2.5979
 Quadrupole moment (field-independent basis, Debye-Ang):
   XX=           -305.8762   YY=           -241.5757   ZZ=           -260.2538
   XY=             13.4601   XZ=              1.3614   YZ=              2.0168

 Normal termination of Gaussian 16 at Sun Jul 14 21:52:36 2019.
