 Gaussian 16, Revision A.03,
 Gaussian 16:  ES64L-G16RevA.03 25-Dec-2016

 -------------------------------------
 # td=(NStates=1) CAM-B3LYP/6-31G(d,p)
 -------------------------------------

 --
 TD
 --
 Symbolic Z-matrix:
 Charge =  0 Multiplicity = 1

                         Standard orientation:
 ---------------------------------------------------------------------
 Center     Atomic      Atomic             Coordinates (Angstroms)
 Number     Number       Type             X           Y           Z
 ---------------------------------------------------------------------
      1          8           0       14.772473   -2.326511   -0.259559
      2          8           0      -14.814062    1.939689    0.934781
      3          6           0       11.228416   -1.399038    0.981622
      4          6           0      -12.373641   -1.014762    0.666063
      5          6           0       12.709176   -1.832523    0.994199
      6          6           0      -13.781710   -0.239653    0.669336
      7          6           0       13.409961   -1.864127   -0.382213
      8          6           0      -13.614244    1.205692    0.863829
      9          6           0       11.012743   -0.306923    0.017399
     10          6           0      -11.366432   -0.275733   -0.122390
     11          6           0       13.251391   -0.437236   -0.903365
     12          6           0      -12.803898    1.861758   -0.328414
     13          6           0       11.877353    0.112880   -0.905019
     14          6           0      -11.445954    1.025083   -0.669955
     15          6           0       10.688080   -1.015977    2.439376
     16          6           0       10.365572   -2.612939    0.600270
     17          6           0      -11.919940   -1.115776    2.201348
     18          6           0      -12.696087   -2.403222    0.160316
     19          6           0        9.635482    0.287848    0.123084
     20          6           0      -10.036380   -1.005758   -0.352361
     21          6           0       11.698976    1.305638   -1.867023
     22          6           0      -10.543405    1.825975   -1.504260
     23          6           0        9.400920    1.637287    0.104462
     24          6           0       -8.780325   -0.500253   -0.315770
     25          6           0        8.068004    2.258427    0.427805
     26          6           0       -7.625865   -1.231063   -0.596167
     27          6           0        8.050845    3.750872    0.625404
     28          6           0       -7.698984   -2.731765   -1.052293
     29          6           0        6.963556    1.596667    0.176882
     30          6           0       -6.418286   -0.657129   -0.343251
     31          6           0        5.595118    2.012016    0.177386
     32          6           0       -5.106021   -1.101670   -0.523322
     33          6           0        4.459000    1.083722    0.054306
     34          6           0       -3.974880   -0.331246   -0.373633
     35          6           0        3.135205    1.692166    0.080757
     36          6           0       -2.646746   -0.737490   -0.586116
     37          6           0        2.958551    3.096114    0.405094
     38          6           0       -2.265518   -2.117345   -1.029813
     39          6           0        2.144035    0.820912   -0.210139
     40          6           0       -1.555799    0.155445   -0.307350
     41          6           0        0.724271    0.875369   -0.166743
     42          6           0       -0.260503    0.005437   -0.468375
     43          1           0       13.361834   -1.315951    1.610092
     44          1           0       12.902202   -2.761437    1.701846
     45          1           0      -14.280802   -0.790567    1.503252
     46          1           0      -14.093302   -0.281410   -0.454317
     47          1           0       12.870010   -2.603244   -1.063703
     48          1           0      -13.051286    1.411574    1.731173
     49          1           0       14.132889    0.132989   -0.341234
     50          1           0       13.704760   -0.535005   -1.900914
     51          1           0      -13.399568    1.775990   -1.214068
     52          1           0      -12.565918    2.786719   -0.056608
     53          1           0       10.893649   -1.852494    3.066152
     54          1           0        9.684749   -0.755750    2.270616
     55          1           0       11.414565   -0.176948    2.946052
     56          1           0       10.695425   -3.265105   -0.369104
     57          1           0       10.216231   -3.534237    1.141060
     58          1           0        9.246152   -2.334665    0.372520
     59          1           0      -11.780561   -0.214294    2.598485
     60          1           0      -10.863200   -1.638455    2.102383
     61          1           0      -12.370709   -1.838175    2.851981
     62          1           0      -13.582284   -2.910355    0.692443
     63          1           0      -11.919085   -3.068723    0.435590
     64          1           0      -12.804155   -2.455400   -0.935271
     65          1           0        8.800348   -0.254520    0.367528
     66          1           0       -9.974299   -2.177010   -0.385130
     67          1           0       10.614593    1.635536   -2.139642
     68          1           0       12.294182    2.286789   -1.608437
     69          1           0       12.140941    1.035535   -2.888273
     70          1           0      -11.117060    2.194523   -2.287754
     71          1           0       -9.789706    1.197819   -2.027833
     72          1           0       -9.998485    2.562460   -1.080275
     73          1           0       14.375644   -3.356936   -0.133347
     74          1           0      -15.445613    1.623192    1.509771
     75          1           0       10.191391    2.488862    0.126655
     76          1           0       -8.699462    0.434728    0.044047
     77          1           0        9.136538    4.141129    0.912092
     78          1           0        7.635305    4.301487   -0.285054
     79          1           0        7.479993    4.017349    1.453463
     80          1           0       -8.236247   -3.570514   -0.389679
     81          1           0       -8.136593   -2.801602   -2.091877
     82          1           0       -6.823833   -3.377527   -1.208317
     83          1           0        6.999660    0.314480   -0.056677
     84          1           0       -6.493232    0.344638   -0.091601
     85          1           0        5.457792    3.100646    0.394237
     86          1           0       -5.097094   -2.099723   -0.999231
     87          1           0        4.697679    0.044523   -0.312301
     88          1           0       -3.970031    0.660121   -0.073420
     89          1           0        3.084955    3.136209    1.514576
     90          1           0        1.785412    3.452663    0.126585
     91          1           0        3.636382    3.779787   -0.214802
     92          1           0       -2.147361   -3.089343   -0.209763
     93          1           0       -2.784439   -2.500775   -2.058723
     94          1           0       -1.192342   -2.158961   -1.450850
     95          1           0        2.435111   -0.092544   -0.803717
     96          1           0       -2.033320    1.138462    0.014598
     97          1           0        0.238298    1.795319    0.339920
     98          1           0        0.083788   -0.953340   -0.662739
 ---------------------------------------------------------------------

 SCF Done:  E(RCAM-B3LYP) =  -1706.94333337     A.U. after   15 cycles

 Excitation energies and oscillator strengths:

 Excited State   1:      Singlet-A      2.1187 eV  585.19 nm  f=3.8038  <S**2>=0.000
     155 ->158         0.14637
     156 ->157         0.69241
 This state for optimization and/or second-order correction.
 Total Energy, E(TD-HF/TD-DFT) =  -1706.86547199
 Copying the excited state density for this state as the 1-particle RhoCI density.

 The electronic state is 1-A.
 Alpha  occ. eigenvalues --  -19.22817 -19.19673 -10.31023 -10.29260 -10.28351
 Alpha  occ. eigenvalues --  -10.28310 -10.28089 -10.27995 -10.27915 -10.27838
 Alpha  occ. eigenvalues --  -10.27800 -10.27755 -10.27728 -10.27523 -10.27251
 Alpha  occ. eigenvalues --  -10.27139 -10.27068 -10.27067 -10.27016 -10.26960
 Alpha  occ. eigenvalues --  -10.26943 -10.26728 -10.26694 -10.26418 -10.26393
 Alpha  occ. eigenvalues --  -10.26370 -10.26343 -10.26320 -10.26235 -10.25867
 Alpha  occ. eigenvalues --  -10.25841 -10.25816 -10.25566 -10.25423 -10.24904
 Alpha  occ. eigenvalues --  -10.24888 -10.24793 -10.24741 -10.24421 -10.24372
 Alpha  occ. eigenvalues --  -10.24295 -10.23990  -1.09742  -1.07837  -0.94108
 Alpha  occ. eigenvalues --   -0.92897  -0.92580  -0.91796  -0.91030  -0.90407
 Alpha  occ. eigenvalues --   -0.87801  -0.86667  -0.86597  -0.85137  -0.84575
 Alpha  occ. eigenvalues --   -0.82899  -0.81859  -0.80024  -0.79589  -0.78261
 Alpha  occ. eigenvalues --   -0.76759  -0.76417  -0.76148  -0.75970  -0.75546
 Alpha  occ. eigenvalues --   -0.75278  -0.75122  -0.75062  -0.73431  -0.71376
 Alpha  occ. eigenvalues --   -0.68931  -0.67477  -0.65993  -0.65110  -0.64884
 Alpha  occ. eigenvalues --   -0.64346  -0.63037  -0.61405  -0.60889  -0.60314
 Alpha  occ. eigenvalues --   -0.59116  -0.58733  -0.58333  -0.57667  -0.56551
 Alpha  occ. eigenvalues --   -0.55627  -0.55489  -0.54762  -0.54468  -0.53639
 Alpha  occ. eigenvalues --   -0.52786  -0.52473  -0.51799  -0.51354  -0.51046
 Alpha  occ. eigenvalues --   -0.50574  -0.50337  -0.50160  -0.49737  -0.49496
 Alpha  occ. eigenvalues --   -0.49285  -0.48985  -0.48404  -0.47786  -0.47679
 Alpha  occ. eigenvalues --   -0.47374  -0.47197  -0.46617  -0.46558  -0.46332
 Alpha  occ. eigenvalues --   -0.46250  -0.45977  -0.45519  -0.44999  -0.44858
 Alpha  occ. eigenvalues --   -0.44574  -0.44273  -0.43832  -0.43630  -0.43099
 Alpha  occ. eigenvalues --   -0.42941  -0.42493  -0.42426  -0.42162  -0.41813
 Alpha  occ. eigenvalues --   -0.41530  -0.41340  -0.40631  -0.40494  -0.40310
 Alpha  occ. eigenvalues --   -0.40114  -0.39918  -0.39774  -0.39692  -0.39190
 Alpha  occ. eigenvalues --   -0.39003  -0.38691  -0.38521  -0.38003  -0.37670
 Alpha  occ. eigenvalues --   -0.37597  -0.37234  -0.36734  -0.36158  -0.35667
 Alpha  occ. eigenvalues --   -0.35185  -0.34571  -0.33957  -0.32524  -0.31906
 Alpha  occ. eigenvalues --   -0.31765  -0.30320  -0.28617  -0.26358  -0.23678
 Alpha  occ. eigenvalues --   -0.19304
 Alpha virt. eigenvalues --   -0.06409  -0.01249   0.02361   0.05126   0.07177
 Alpha virt. eigenvalues --    0.08583   0.09322   0.10712   0.11445   0.12036
 Alpha virt. eigenvalues --    0.12869   0.13156   0.13366   0.13515   0.13768

 Mulliken charges:
               1
     1  O   -0.546582
     2  O   -0.561820
     3  C   -0.030598
     4  C   -0.033652
     5  C   -0.196179
     6  C   -0.179867
     7  C    0.131638
     8  C    0.181888
     9  C    0.120985
    10  C    0.070662
    11  C   -0.229995
    12  C   -0.219833
    13  C    0.064184
    14  C    0.019764
    15  C   -0.280346
    16  C   -0.301441
    17  C   -0.314247
    18  C   -0.298934
    19  C   -0.132897
    20  C   -0.149417
    21  C   -0.360903
    22  C   -0.369475
    23  C   -0.086838
    24  C   -0.085393
    25  C    0.054547
    26  C    0.131142
    27  C   -0.375876
    28  C   -0.393368
    29  C   -0.074566
    30  C   -0.121100
    31  C   -0.114037
    32  C   -0.083198
    33  C   -0.120620
    34  C   -0.105010
    35  C    0.143937
    36  C    0.133031
    37  C   -0.369672
    38  C   -0.373447
    39  C   -0.137851
    40  C   -0.120452
    41  C   -0.095206
    42  C   -0.053710
    43  H    0.113411
    44  H    0.051770
    45  H    0.085854
    46  H    0.089685
    47  H    0.074363
    48  H    0.072696
    49  H    0.105019
    50  H    0.105196
    51  H    0.118871
    52  H    0.117117
    53  H    0.112148
    54  H    0.116606
    55  H    0.082288
    56  H    0.071767
    57  H    0.114564
    58  H    0.087003
    59  H    0.118674
    60  H    0.087840
    61  H    0.107612
    62  H    0.090981
    63  H    0.103624
    64  H    0.108381
    65  H    0.092541
    66  H    0.077743
    67  H    0.117055
    68  H    0.107144
    69  H    0.098653
    70  H    0.121649
    71  H    0.117382
    72  H    0.133703
    73  H    0.314860
    74  H    0.292674
    75  H    0.088405
    76  H    0.082068
    77  H    0.094859
    78  H    0.124583
    79  H    0.133531
    80  H    0.101603
    81  H    0.119919
    82  H    0.116051
    83  H    0.043404
    84  H    0.068106
    85  H    0.085743
    86  H    0.086515
    87  H    0.103632
    88  H    0.075952
    89  H    0.135424
    90  H    0.093345
    91  H    0.127312
    92  H    0.094590
    93  H    0.095206
    94  H    0.105429
    95  H    0.074648
    96  H    0.067681
    97  H    0.058720
    98  H    0.079149
 Sum of Mulliken charges =  -0.00000

 Dipole moment (field-independent basis, Debye):
    X=             -1.1884    Y=             -0.9709    Z=              0.9175  Tot=              1.7879
 Quadrupole moment (field-independent basis, Debye-Ang):
   XX=           -298.7202   YY=           -240.3705   ZZ=           -260.4719
   XY=             15.0140   XZ=             -7.2158   YZ=              1.6485

 Normal termination of Gaussian 16 at Thu Jul 11 16:47:59 2019.
