 Gaussian 16, Revision A.03,
 Gaussian 16:  ES64L-G16RevA.03 25-Dec-2016

 -------------------------------------
 # td=(NStates=1) CAM-B3LYP/6-31G(d,p)
 -------------------------------------

 --
 TD
 --
 Symbolic Z-matrix:
 Charge =  0 Multiplicity = 1

                         Standard orientation:
 ---------------------------------------------------------------------
 Center     Atomic      Atomic             Coordinates (Angstroms)
 Number     Number       Type             X           Y           Z
 ---------------------------------------------------------------------
      1          8           0       14.587318   -2.393959   -0.180977
      2          8           0      -14.745077    1.805852    1.160851
      3          6           0       11.123941   -1.488846    0.933144
      4          6           0      -12.349309   -1.068673    0.649493
      5          6           0       12.564942   -1.981859    0.940043
      6          6           0      -13.674084   -0.309479    0.750079
      7          6           0       13.255992   -1.953024   -0.335504
      8          6           0      -13.516285    1.159314    0.975348
      9          6           0       11.004458   -0.328454   -0.006555
     10          6           0      -11.288810   -0.211780   -0.135675
     11          6           0       13.274344   -0.584747   -0.999372
     12          6           0      -12.808054    1.791870   -0.192054
     13          6           0       11.980179    0.156472   -0.840070
     14          6           0      -11.567382    0.964588   -0.558523
     15          6           0       10.683396   -1.132968    2.315299
     16          6           0       10.179466   -2.602194    0.409993
     17          6           0      -11.797342   -1.503305    1.984886
     18          6           0      -12.594531   -2.489942   -0.191333
     19          6           0        9.633909    0.428717    0.236319
     20          6           0      -10.042599   -0.974484   -0.485724
     21          6           0       11.829833    1.323723   -1.726563
     22          6           0      -10.669517    1.955488   -1.418364
     23          6           0        9.340671    1.746366    0.148440
     24          6           0       -8.841436   -0.453523   -0.527641
     25          6           0        8.085876    2.302139    0.176954
     26          6           0       -7.618348   -1.160899   -0.557414
     27          6           0        7.917131    3.751305    0.487389
     28          6           0       -7.595589   -2.575201   -0.993728
     29          6           0        6.925114    1.501727    0.108432
     30          6           0       -6.407116   -0.487035   -0.457996
     31          6           0        5.626132    2.018118    0.165783
     32          6           0       -4.945297   -1.046508   -0.629276
     33          6           0        4.461852    1.284054    0.061339
     34          6           0       -3.901998   -0.238127   -0.377509
     35          6           0        3.192974    1.737564    0.215279
     36          6           0       -2.549221   -0.747934   -0.518303
     37          6           0        3.017987    3.228531    0.484897
     38          6           0       -2.271107   -2.177666   -0.989780
     39          6           0        2.058413    0.824382   -0.066288
     40          6           0       -1.602421    0.152124   -0.279238
     41          6           0        0.752659    0.969240   -0.069236
     42          6           0       -0.155341   -0.006393   -0.410271
     43          1           0       13.330453   -1.297097    1.540237
     44          1           0       12.376238   -2.925219    1.467671
     45          1           0      -14.199699   -0.733688    1.432556
     46          1           0      -14.123804   -0.321228   -0.268873
     47          1           0       12.866400   -2.583939   -1.047934
     48          1           0      -12.919524    1.145445    1.816271
     49          1           0       14.171093   -0.094455   -0.503626
     50          1           0       13.758972   -0.652826   -2.029665
     51          1           0      -13.408932    2.008790   -1.212969
     52          1           0      -12.759250    2.832889   -0.129330
     53          1           0       10.789549   -1.930774    3.094575
     54          1           0        9.719965   -0.909306    2.584019
     55          1           0       11.355966   -0.330680    2.807055
     56          1           0       10.445217   -3.099183   -0.609161
     57          1           0       10.167845   -3.625327    1.121085
     58          1           0        9.076011   -2.333961    0.465920
     59          1           0      -11.440623   -0.551262    2.680052
     60          1           0      -10.916905   -2.157118    1.686520
     61          1           0      -12.373675   -1.991383    2.641605
     62          1           0      -13.504696   -2.835852    0.342792
     63          1           0      -11.857816   -3.342325   -0.053595
     64          1           0      -12.898972   -2.259492   -1.092893
     65          1           0        9.050774   -0.290446    0.561325
     66          1           0      -10.299447   -2.119466   -0.571996
     67          1           0       10.767660    1.520221   -1.782199
     68          1           0       12.033104    2.304959   -1.320357
     69          1           0       12.460647    1.147310   -2.565850
     70          1           0      -11.382577    2.437780   -2.150563
     71          1           0       -9.949842    1.452622   -1.918190
     72          1           0      -10.339104    2.842256   -0.811798
     73          1           0       14.544528   -3.194728    0.505148
     74          1           0      -15.097821    1.523818    1.922317
     75          1           0       10.184407    2.475347   -0.142556
     76          1           0       -8.762251    0.727568   -0.463429
     77          1           0        8.865772    4.177248    0.518120
     78          1           0        7.209558    4.158153   -0.370942
     79          1           0        7.358047    3.910842    1.271684
     80          1           0       -7.686039   -3.325640   -0.028605
     81          1           0       -8.713583   -2.849552   -1.681149
     82          1           0       -6.628093   -2.788433   -1.624845
     83          1           0        7.326057    0.469494   -0.082899
     84          1           0       -6.359355    0.557156   -0.126764
     85          1           0        5.739823    3.057913    0.523875
     86          1           0       -4.908970   -2.071754   -1.055871
     87          1           0        4.517656    0.126642   -0.119533
     88          1           0       -3.941583    0.798078   -0.043927
     89          1           0        3.439873    3.561096    1.343872
     90          1           0        1.966085    3.413161    0.444667
     91          1           0        3.430444    3.823782   -0.403483
     92          1           0       -2.634237   -2.770693   -0.296400
     93          1           0       -2.884216   -2.508132   -1.932511
     94          1           0       -1.135563   -2.322701   -0.875246
     95          1           0        2.534690   -0.205406   -0.557006
     96          1           0       -2.016984    1.116852    0.071912
     97          1           0        0.296394    1.811802    0.183178
     98          1           0        0.341507   -0.910398   -0.651482
 ---------------------------------------------------------------------

 SCF Done:  E(RCAM-B3LYP) =  -1706.91639129     A.U. after   15 cycles

 Excitation energies and oscillator strengths:

 Excited State   1:      Singlet-A      2.1048 eV  589.05 nm  f=3.3058  <S**2>=0.000
     155 ->158        -0.12366
     156 ->157         0.69869
     156 <-157        -0.11113
 This state for optimization and/or second-order correction.
 Total Energy, E(TD-HF/TD-DFT) =  -1706.83904032
 Copying the excited state density for this state as the 1-particle RhoCI density.

 The electronic state is 1-A.
 Alpha  occ. eigenvalues --  -19.21197 -19.20457 -10.29135 -10.29111 -10.28704
 Alpha  occ. eigenvalues --  -10.28074 -10.27981 -10.27693 -10.27658 -10.27636
 Alpha  occ. eigenvalues --  -10.27439 -10.26968 -10.26965 -10.26891 -10.26801
 Alpha  occ. eigenvalues --  -10.26604 -10.26587 -10.26372 -10.26325 -10.26308
 Alpha  occ. eigenvalues --  -10.26293 -10.26245 -10.26170 -10.26108 -10.26078
 Alpha  occ. eigenvalues --  -10.25910 -10.25902 -10.25665 -10.25659 -10.25563
 Alpha  occ. eigenvalues --  -10.25274 -10.25261 -10.25196 -10.25137 -10.24979
 Alpha  occ. eigenvalues --  -10.24806 -10.24802 -10.24763 -10.24664 -10.24378
 Alpha  occ. eigenvalues --  -10.24019 -10.23059  -1.11728  -1.08546  -0.94212
 Alpha  occ. eigenvalues --   -0.93602  -0.92590  -0.92107  -0.90977  -0.90329
 Alpha  occ. eigenvalues --   -0.88214  -0.87740  -0.86495  -0.85381  -0.84897
 Alpha  occ. eigenvalues --   -0.83274  -0.82242  -0.80824  -0.79986  -0.78873
 Alpha  occ. eigenvalues --   -0.77062  -0.76735  -0.76590  -0.76417  -0.76303
 Alpha  occ. eigenvalues --   -0.76010  -0.75323  -0.74971  -0.73266  -0.71354
 Alpha  occ. eigenvalues --   -0.69224  -0.68103  -0.66562  -0.65993  -0.65105
 Alpha  occ. eigenvalues --   -0.64613  -0.63482  -0.62488  -0.60861  -0.60408
 Alpha  occ. eigenvalues --   -0.59271  -0.58829  -0.58370  -0.57832  -0.56474
 Alpha  occ. eigenvalues --   -0.56376  -0.55709  -0.55358  -0.54527  -0.54000
 Alpha  occ. eigenvalues --   -0.53728  -0.52952  -0.52162  -0.52064  -0.50956
 Alpha  occ. eigenvalues --   -0.50815  -0.50681  -0.50413  -0.50260  -0.49342
 Alpha  occ. eigenvalues --   -0.49193  -0.48749  -0.48447  -0.48326  -0.47774
 Alpha  occ. eigenvalues --   -0.47519  -0.47243  -0.47050  -0.46855  -0.46783
 Alpha  occ. eigenvalues --   -0.46537  -0.46177  -0.45628  -0.45133  -0.44879
 Alpha  occ. eigenvalues --   -0.44655  -0.44565  -0.44248  -0.44064  -0.43738
 Alpha  occ. eigenvalues --   -0.43475  -0.43037  -0.42976  -0.42675  -0.41880
 Alpha  occ. eigenvalues --   -0.41593  -0.41407  -0.41090  -0.40728  -0.40563
 Alpha  occ. eigenvalues --   -0.40507  -0.40100  -0.39996  -0.39772  -0.39067
 Alpha  occ. eigenvalues --   -0.39006  -0.38716  -0.38282  -0.38138  -0.38075
 Alpha  occ. eigenvalues --   -0.37913  -0.37395  -0.36970  -0.36899  -0.36329
 Alpha  occ. eigenvalues --   -0.35674  -0.34533  -0.34005  -0.32516  -0.31804
 Alpha  occ. eigenvalues --   -0.31618  -0.30002  -0.28704  -0.26349  -0.23841
 Alpha  occ. eigenvalues --   -0.19038
 Alpha virt. eigenvalues --   -0.06344  -0.00533   0.02336   0.06280   0.08024
 Alpha virt. eigenvalues --    0.09888   0.11491   0.11682   0.11991   0.12476
 Alpha virt. eigenvalues --    0.12598   0.12730   0.13401   0.13638   0.13944

 Mulliken charges:
               1
     1  O   -0.576543
     2  O   -0.539065
     3  C   -0.021522
     4  C   -0.056963
     5  C   -0.202350
     6  C   -0.172204
     7  C    0.198027
     8  C    0.165850
     9  C    0.051064
    10  C    0.086278
    11  C   -0.262005
    12  C   -0.225468
    13  C    0.080185
    14  C    0.039857
    15  C   -0.306903
    16  C   -0.303752
    17  C   -0.278745
    18  C   -0.319458
    19  C   -0.080001
    20  C   -0.129724
    21  C   -0.378571
    22  C   -0.358098
    23  C   -0.128009
    24  C   -0.095048
    25  C    0.081993
    26  C    0.138548
    27  C   -0.372572
    28  C   -0.347514
    29  C   -0.084789
    30  C   -0.150339
    31  C   -0.111180
    32  C   -0.111624
    33  C   -0.106430
    34  C   -0.090728
    35  C    0.099036
    36  C    0.134059
    37  C   -0.364722
    38  C   -0.368368
    39  C   -0.142863
    40  C   -0.148698
    41  C   -0.030071
    42  C   -0.100434
    43  H    0.091540
    44  H    0.087931
    45  H    0.076402
    46  H    0.099123
    47  H    0.085202
    48  H    0.083988
    49  H    0.115923
    50  H    0.108032
    51  H    0.086285
    52  H    0.118025
    53  H    0.089299
    54  H    0.118853
    55  H    0.100045
    56  H    0.109229
    57  H    0.065238
    58  H    0.111130
    59  H    0.070422
    60  H    0.099008
    61  H    0.111993
    62  H    0.095828
    63  H    0.103961
    64  H    0.124028
    65  H    0.068226
    66  H    0.080556
    67  H    0.127006
    68  H    0.121000
    69  H    0.109860
    70  H    0.094793
    71  H    0.121626
    72  H    0.116015
    73  H    0.307053
    74  H    0.289153
    75  H    0.076726
    76  H    0.092098
    77  H    0.105999
    78  H    0.105855
    79  H    0.145606
    80  H    0.102296
    81  H    0.072115
    82  H    0.109029
    83  H    0.070316
    84  H    0.077236
    85  H    0.080782
    86  H    0.083020
    87  H    0.078738
    88  H    0.093564
    89  H    0.130244
    90  H    0.108221
    91  H    0.117165
    92  H    0.143348
    93  H    0.114430
    94  H    0.106175
    95  H    0.061356
    96  H    0.077842
    97  H    0.070392
    98  H    0.080538
 Sum of Mulliken charges =  -0.00000

 Dipole moment (field-independent basis, Debye):
    X=             -0.9215    Y=             -1.1336    Z=              2.2643  Tot=              2.6946
 Quadrupole moment (field-independent basis, Debye-Ang):
   XX=           -285.7897   YY=           -242.4812   ZZ=           -260.0818
   XY=             11.9967   XZ=             -5.0367   YZ=             -1.0613

 Normal termination of Gaussian 16 at Mon Jul 15 13:45:11 2019.
