 Gaussian 16, Revision A.03,
 Gaussian 16:  ES64L-G16RevA.03 25-Dec-2016

 -------------------------------------
 # td=(NStates=1) CAM-B3LYP/6-31G(d,p)
 -------------------------------------

 --
 TD
 --
 Symbolic Z-matrix:
 Charge =  0 Multiplicity = 1

                         Standard orientation:
 ---------------------------------------------------------------------
 Center     Atomic      Atomic             Coordinates (Angstroms)
 Number     Number       Type             X           Y           Z
 ---------------------------------------------------------------------
      1          8           0       14.637067   -2.397994   -0.167226
      2          8           0      -14.660300    1.784612    1.450212
      3          6           0       11.128951   -1.579994    1.006921
      4          6           0      -12.279770   -1.024761    0.663971
      5          6           0       12.565147   -1.951385    1.099268
      6          6           0      -13.516096   -0.308512    0.831439
      7          6           0       13.325239   -2.036929   -0.304668
      8          6           0      -13.386372    1.152063    1.130307
      9          6           0       10.950667   -0.330570    0.150956
     10          6           0      -11.298681   -0.229709   -0.299457
     11          6           0       13.292038   -0.616235   -0.818428
     12          6           0      -12.777660    1.689575   -0.140598
     13          6           0       11.907601    0.104680   -0.670320
     14          6           0      -11.537531    0.971360   -0.745801
     15          6           0       10.572722   -1.244001    2.332788
     16          6           0       10.223839   -2.688921    0.357930
     17          6           0      -11.663857   -1.305972    2.042359
     18          6           0      -12.554645   -2.393303    0.056556
     19          6           0        9.641945    0.401837    0.163338
     20          6           0      -10.082988   -0.917809   -0.581466
     21          6           0       11.876231    1.254519   -1.660216
     22          6           0      -10.734852    1.734035   -1.680734
     23          6           0        9.360993    1.719771    0.212873
     24          6           0       -8.828542   -0.500472   -0.350839
     25          6           0        8.093111    2.266967    0.279059
     26          6           0       -7.537620   -1.204595   -0.579714
     27          6           0        8.038876    3.769563    0.710922
     28          6           0       -7.655693   -2.653321   -0.805428
     29          6           0        6.858030    1.636786   -0.000067
     30          6           0       -6.378709   -0.536765   -0.461874
     31          6           0        5.606012    2.204042    0.274392
     32          6           0       -4.972752   -1.137151   -0.627507
     33          6           0        4.391154    1.417441   -0.142723
     34          6           0       -3.942728   -0.409851   -0.498524
     35          6           0        3.092597    1.888932   -0.099709
     36          6           0       -2.554063   -0.783301   -0.576930
     37          6           0        2.785994    3.301667    0.314231
     38          6           0       -2.428076   -2.247789   -1.039538
     39          6           0        2.150479    0.971454   -0.399901
     40          6           0       -1.566062    0.226081   -0.441688
     41          6           0        0.698674    1.079787   -0.281172
     42          6           0       -0.215285    0.035761   -0.655711
     43          1           0       12.962934   -1.087418    1.728266
     44          1           0       12.593320   -2.815765    1.738729
     45          1           0      -14.066285   -0.550967    1.885161
     46          1           0      -14.360025   -0.513505    0.231882
     47          1           0       12.757396   -2.568484   -1.107770
     48          1           0      -12.816367    1.434375    1.895184
     49          1           0       14.112221   -0.168939   -0.305428
     50          1           0       13.514312   -0.546033   -1.864447
     51          1           0      -13.512636    1.664608   -1.048839
     52          1           0      -12.526253    2.834565   -0.031019
     53          1           0       10.803324   -2.205285    2.909115
     54          1           0        9.440829   -1.001480    2.670423
     55          1           0       11.224568   -0.515014    2.945809
     56          1           0       10.566844   -2.865153   -0.621130
     57          1           0       10.400192   -3.556149    0.982775
     58          1           0        9.189458   -2.551844    0.437050
     59          1           0      -11.608521   -0.351757    2.764381
     60          1           0      -10.580872   -1.507430    1.875980
     61          1           0      -12.157167   -2.033031    2.600600
     62          1           0      -13.345415   -2.904716    0.686485
     63          1           0      -11.520255   -2.918684    0.016136
     64          1           0      -13.139334   -2.337600   -1.076187
     65          1           0        8.796265   -0.273318    0.205099
     66          1           0      -10.187214   -2.049128   -1.320069
     67          1           0       10.727750    1.601671   -1.639146
     68          1           0       12.462583    2.075658   -1.192753
     69          1           0       12.280211    1.173059   -2.712505
     70          1           0      -11.402309    2.193024   -2.312163
     71          1           0       -9.931648    1.097892   -2.248417
     72          1           0      -10.349052    2.543987   -1.081307
     73          1           0       14.598773   -3.150656    0.216158
     74          1           0      -14.898542    1.350710    2.345143
     75          1           0       10.258359    2.504091    0.283453
     76          1           0       -8.582464    0.432193    0.008398
     77          1           0        9.076895    4.334348    0.832322
     78          1           0        7.382901    4.047483   -0.069445
     79          1           0        7.349407    3.953690    1.678974
     80          1           0       -8.393393   -2.946025    0.114563
     81          1           0       -8.182888   -2.441823   -1.826358
     82          1           0       -6.687072   -3.181361   -0.868108
     83          1           0        7.038114    0.602797   -0.371773
     84          1           0       -6.125443    0.552602   -0.127958
     85          1           0        5.341581    3.207644    0.752320
     86          1           0       -4.977662   -2.268764   -0.810325
     87          1           0        4.413836    0.255828   -0.701474
     88          1           0       -4.047752    0.709785   -0.382912
     89          1           0        2.813923    3.388329    1.345695
     90          1           0        1.691873    3.666550   -0.043365
     91          1           0        3.648233    3.934608   -0.310767
     92          1           0       -2.581531   -3.054283   -0.278197
     93          1           0       -3.060294   -2.441018   -1.905420
     94          1           0       -1.379860   -2.545129   -1.453980
     95          1           0        2.590090    0.163121   -0.989331
     96          1           0       -1.956209    1.197592   -0.322298
     97          1           0        0.387190    1.911390    0.130936
     98          1           0        0.249040   -0.923616   -1.107824
 ---------------------------------------------------------------------

 SCF Done:  E(RCAM-B3LYP) =  -1706.91536353     A.U. after   15 cycles

 Excitation energies and oscillator strengths:

 Excited State   1:      Singlet-A      2.1518 eV  576.19 nm  f=3.0732  <S**2>=0.000
     155 ->158        -0.12754
     156 ->157         0.69846
     156 <-157        -0.10139
 This state for optimization and/or second-order correction.
 Total Energy, E(TD-HF/TD-DFT) =  -1706.83628611
 Copying the excited state density for this state as the 1-particle RhoCI density.

 The electronic state is 1-A.
 Alpha  occ. eigenvalues --  -19.21436 -19.21237 -10.30952 -10.29322 -10.28420
 Alpha  occ. eigenvalues --  -10.28123 -10.28106 -10.27917 -10.27822 -10.27671
 Alpha  occ. eigenvalues --  -10.27278 -10.27257 -10.27245 -10.27158 -10.27044
 Alpha  occ. eigenvalues --  -10.26840 -10.26761 -10.26684 -10.26601 -10.26550
 Alpha  occ. eigenvalues --  -10.26493 -10.26458 -10.26362 -10.26282 -10.26233
 Alpha  occ. eigenvalues --  -10.26173 -10.26169 -10.26108 -10.25990 -10.25987
 Alpha  occ. eigenvalues --  -10.25959 -10.25883 -10.25753 -10.25543 -10.25417
 Alpha  occ. eigenvalues --  -10.25348 -10.25141 -10.25077 -10.24919 -10.24878
 Alpha  occ. eigenvalues --  -10.23942 -10.23823  -1.14819  -1.07778  -0.94774
 Alpha  occ. eigenvalues --   -0.94151  -0.92294  -0.91871  -0.90719  -0.90351
 Alpha  occ. eigenvalues --   -0.88534  -0.87318  -0.86994  -0.85294  -0.84964
 Alpha  occ. eigenvalues --   -0.82855  -0.81756  -0.80828  -0.79134  -0.78195
 Alpha  occ. eigenvalues --   -0.77189  -0.76924  -0.76120  -0.75598  -0.75507
 Alpha  occ. eigenvalues --   -0.75414  -0.74935  -0.74354  -0.73042  -0.70513
 Alpha  occ. eigenvalues --   -0.69082  -0.68019  -0.66145  -0.65023  -0.63965
 Alpha  occ. eigenvalues --   -0.63811  -0.62949  -0.62344  -0.60222  -0.59909
 Alpha  occ. eigenvalues --   -0.59129  -0.57925  -0.57643  -0.57327  -0.56337
 Alpha  occ. eigenvalues --   -0.56092  -0.55444  -0.54599  -0.54422  -0.53611
 Alpha  occ. eigenvalues --   -0.53095  -0.52413  -0.51974  -0.51513  -0.50797
 Alpha  occ. eigenvalues --   -0.50563  -0.50443  -0.50238  -0.49905  -0.49697
 Alpha  occ. eigenvalues --   -0.49316  -0.48936  -0.48558  -0.48408  -0.48133
 Alpha  occ. eigenvalues --   -0.47859  -0.47842  -0.47595  -0.47334  -0.46476
 Alpha  occ. eigenvalues --   -0.46250  -0.45986  -0.45736  -0.45653  -0.45114
 Alpha  occ. eigenvalues --   -0.44885  -0.44041  -0.43584  -0.43254  -0.43045
 Alpha  occ. eigenvalues --   -0.42757  -0.42562  -0.41885  -0.41768  -0.41711
 Alpha  occ. eigenvalues --   -0.41541  -0.41382  -0.41138  -0.40889  -0.40538
 Alpha  occ. eigenvalues --   -0.40389  -0.40198  -0.39934  -0.39484  -0.39298
 Alpha  occ. eigenvalues --   -0.39085  -0.38453  -0.38197  -0.38033  -0.37921
 Alpha  occ. eigenvalues --   -0.37383  -0.37121  -0.36707  -0.36100  -0.35868
 Alpha  occ. eigenvalues --   -0.35206  -0.34267  -0.33746  -0.33136  -0.32534
 Alpha  occ. eigenvalues --   -0.31869  -0.29313  -0.28436  -0.27052  -0.24094
 Alpha  occ. eigenvalues --   -0.19083
 Alpha virt. eigenvalues --   -0.05866  -0.00345   0.02781   0.06167   0.07854
 Alpha virt. eigenvalues --    0.09458   0.10105   0.11064   0.11625   0.11806
 Alpha virt. eigenvalues --    0.12551   0.12603   0.13037   0.13181   0.13941

 Mulliken charges:
               1
     1  O   -0.497571
     2  O   -0.574640
     3  C   -0.013860
     4  C    0.026686
     5  C   -0.219923
     6  C   -0.190830
     7  C    0.155513
     8  C    0.192387
     9  C    0.086671
    10  C    0.058982
    11  C   -0.222465
    12  C   -0.240593
    13  C    0.030602
    14  C    0.077506
    15  C   -0.306315
    16  C   -0.299078
    17  C   -0.299567
    18  C   -0.283885
    19  C   -0.128625
    20  C   -0.181267
    21  C   -0.368508
    22  C   -0.354143
    23  C   -0.105026
    24  C   -0.045655
    25  C    0.080152
    26  C    0.062016
    27  C   -0.364470
    28  C   -0.328935
    29  C   -0.099993
    30  C   -0.145072
    31  C   -0.145175
    32  C   -0.079703
    33  C   -0.120727
    34  C   -0.109095
    35  C    0.150906
    36  C    0.111776
    37  C   -0.364630
    38  C   -0.386031
    39  C   -0.140102
    40  C   -0.125298
    41  C   -0.077395
    42  C   -0.083024
    43  H    0.104877
    44  H    0.082775
    45  H    0.031090
    46  H    0.117469
    47  H    0.078473
    48  H    0.095002
    49  H    0.121626
    50  H    0.100688
    51  H    0.104785
    52  H    0.080891
    53  H    0.077263
    54  H    0.109402
    55  H    0.096885
    56  H    0.111192
    57  H    0.093291
    58  H    0.114209
    59  H    0.074945
    60  H    0.104537
    61  H    0.115858
    62  H    0.099775
    63  H    0.101920
    64  H    0.068603
    65  H    0.080717
    66  H    0.061380
    67  H    0.102659
    68  H    0.115348
    69  H    0.109417
    70  H    0.120602
    71  H    0.116806
    72  H    0.122233
    73  H    0.284067
    74  H    0.304934
    75  H    0.086752
    76  H    0.084010
    77  H    0.100541
    78  H    0.137951
    79  H    0.098704
    80  H    0.116501
    81  H    0.124291
    82  H    0.105841
    83  H    0.085532
    84  H    0.077124
    85  H    0.107852
    86  H    0.079107
    87  H    0.067281
    88  H    0.071958
    89  H    0.142228
    90  H    0.098500
    91  H    0.103315
    92  H    0.124438
    93  H    0.131341
    94  H    0.090089
    95  H    0.075176
    96  H    0.092956
    97  H    0.067824
    98  H    0.095371
 Sum of Mulliken charges =  -0.00000

 Dipole moment (field-independent basis, Debye):
    X=             -0.0833    Y=             -1.7182    Z=              1.1628  Tot=              2.0763
 Quadrupole moment (field-independent basis, Debye-Ang):
   XX=           -299.1642   YY=           -247.8957   ZZ=           -258.7336
   XY=              2.2407   XZ=             -2.6227   YZ=              1.6870

 Normal termination of Gaussian 16 at Sat Jul 13 05:30:22 2019.
