 Gaussian 16, Revision A.03,
 Gaussian 16:  ES64L-G16RevA.03 25-Dec-2016

 -------------------------------------
 # td=(NStates=1) CAM-B3LYP/6-31G(d,p)
 -------------------------------------

 --
 TD
 --
 Symbolic Z-matrix:
 Charge =  0 Multiplicity = 1

                         Standard orientation:
 ---------------------------------------------------------------------
 Center     Atomic      Atomic             Coordinates (Angstroms)
 Number     Number       Type             X           Y           Z
 ---------------------------------------------------------------------
      1          8           0       14.679143   -2.464567   -0.310377
      2          8           0      -14.910681    1.566312    0.730440
      3          6           0       11.140134   -1.610525    0.891261
      4          6           0      -12.347570   -1.132363    0.499519
      5          6           0       12.668873   -2.007234    0.963763
      6          6           0      -13.754547   -0.350710    0.503616
      7          6           0       13.340256   -2.003356   -0.380218
      8          6           0      -13.571560    1.030270    0.816325
      9          6           0       10.980053   -0.259899   -0.094062
     10          6           0      -11.310353   -0.281919   -0.202700
     11          6           0       13.316665   -0.598283   -1.010482
     12          6           0      -12.780999    1.788960   -0.202202
     13          6           0       11.930652    0.102783   -0.922930
     14          6           0      -11.529393    1.021751   -0.567016
     15          6           0       10.699332   -1.208164    2.326331
     16          6           0       10.315018   -2.697740    0.435203
     17          6           0      -11.966905   -1.370146    1.993540
     18          6           0      -12.579003   -2.474624   -0.034634
     19          6           0        9.647721    0.389244    0.132565
     20          6           0      -10.020049   -0.924689   -0.425658
     21          6           0       11.853779    1.264090   -1.810353
     22          6           0      -10.579257    1.859006   -1.375237
     23          6           0        9.295576    1.664082    0.041553
     24          6           0       -8.778902   -0.349425   -0.371686
     25          6           0        8.069208    2.269387    0.216221
     26          6           0       -7.561528   -1.174749   -0.557415
     27          6           0        8.108565    3.773111    0.581779
     28          6           0       -7.706235   -2.596321   -1.106201
     29          6           0        6.874626    1.561722   -0.030072
     30          6           0       -6.296774   -0.536258   -0.409251
     31          6           0        5.638852    2.094868    0.254360
     32          6           0       -5.035098   -1.027807   -0.558955
     33          6           0        4.425932    1.455903   -0.015807
     34          6           0       -3.863289   -0.237613   -0.096483
     35          6           0        3.138854    1.853594    0.127211
     36          6           0       -2.579376   -0.610080   -0.346373
     37          6           0        2.927255    3.270636    0.616538
     38          6           0       -2.329225   -2.074032   -0.814044
     39          6           0        2.130931    0.917934   -0.054725
     40          6           0       -1.573440    0.270056    0.031859
     41          6           0        0.761582    1.030463    0.187460
     42          6           0       -0.198110    0.130974   -0.234774
     43          1           0       13.217205   -1.381371    1.658275
     44          1           0       12.642495   -3.048765    1.353326
     45          1           0      -14.500646   -0.926889    1.256948
     46          1           0      -14.040948   -0.374922   -0.561247
     47          1           0       12.823012   -2.732515   -0.935782
     48          1           0      -13.305048    1.259610    1.794991
     49          1           0       13.959032    0.101881   -0.369772
     50          1           0       13.673139   -0.563396   -2.089133
     51          1           0      -13.422167    1.911721   -1.087530
     52          1           0      -12.694348    2.826697    0.036092
     53          1           0       10.955092   -2.066721    3.014915
     54          1           0        9.710233   -1.003316    2.122856
     55          1           0       11.388367   -0.334874    2.685151
     56          1           0       10.789748   -3.563954   -0.388958
     57          1           0       10.029473   -3.299659    1.386657
     58          1           0        9.357271   -2.375207    0.120596
     59          1           0      -11.978723   -0.512972    2.833733
     60          1           0      -10.864812   -1.473080    1.893568
     61          1           0      -12.717285   -2.250341    2.301219
     62          1           0      -13.337427   -2.919908    0.443591
     63          1           0      -11.724624   -3.164748    0.120109
     64          1           0      -12.739292   -2.377090   -1.167760
     65          1           0        8.765622   -0.288275    0.418870
     66          1           0      -10.153186   -2.013905   -0.584972
     67          1           0       10.727294    1.551783   -2.023941
     68          1           0       12.193882    2.347247   -1.466462
     69          1           0       12.283816    1.057055   -2.660256
     70          1           0      -11.270347    2.538401   -2.014802
     71          1           0       -9.811414    1.447915   -1.999828
     72          1           0       -9.758265    2.460943   -0.856437
     73          1           0       14.663510   -3.479945   -0.318094
     74          1           0      -15.726008    0.967535    1.116553
     75          1           0       10.126117    2.169148    0.031605
     76          1           0       -8.655454    0.679120   -0.010055
     77          1           0        9.225959    4.094671    0.421122
     78          1           0        7.535236    4.086686   -0.272932
     79          1           0        7.600675    4.008679    1.631625
     80          1           0       -8.217854   -3.336374   -0.536807
     81          1           0       -8.226519   -2.567373   -2.091831
     82          1           0       -6.580170   -3.210131   -0.909494
     83          1           0        7.097057    0.453961   -0.223708
     84          1           0       -6.385907    0.544112   -0.034836
     85          1           0        5.454654    3.155998    0.648826
     86          1           0       -4.959083   -1.957264   -0.937836
     87          1           0        4.624079    0.437139   -0.441734
     88          1           0       -4.101340    0.711585    0.300145
     89          1           0        3.097705    3.316897    1.763628
     90          1           0        1.755061    3.906535    0.367505
     91          1           0        3.516012    4.075216    0.016522
     92          1           0       -2.891197   -2.827088   -0.199549
     93          1           0       -2.781176   -2.147483   -1.813102
     94          1           0       -1.145173   -2.437406   -0.893409
     95          1           0        2.548847   -0.093045   -0.541681
     96          1           0       -1.953785    1.143592    0.467211
     97          1           0        0.627784    1.992203    0.475230
     98          1           0       -0.007367   -0.669655   -0.596385
 ---------------------------------------------------------------------

 SCF Done:  E(RCAM-B3LYP) =  -1706.91499636     A.U. after   16 cycles

 Excitation energies and oscillator strengths:

 Excited State   1:      Singlet-A      1.8295 eV  677.69 nm  f=3.9496  <S**2>=0.000
     155 ->158         0.14222
     156 ->157         0.69807
     156 <-157        -0.11260
 This state for optimization and/or second-order correction.
 Total Energy, E(TD-HF/TD-DFT) =  -1706.84776273
 Copying the excited state density for this state as the 1-particle RhoCI density.

 The electronic state is 1-A.
 Alpha  occ. eigenvalues --  -19.20948 -19.19568 -10.29653 -10.29414 -10.28523
 Alpha  occ. eigenvalues --  -10.28338 -10.27702 -10.27697 -10.27340 -10.27298
 Alpha  occ. eigenvalues --  -10.27268 -10.27255 -10.27076 -10.26917 -10.26898
 Alpha  occ. eigenvalues --  -10.26879 -10.26787 -10.26604 -10.26532 -10.26523
 Alpha  occ. eigenvalues --  -10.26461 -10.26445 -10.26387 -10.26368 -10.26221
 Alpha  occ. eigenvalues --  -10.26212 -10.26177 -10.26135 -10.25958 -10.25951
 Alpha  occ. eigenvalues --  -10.25716 -10.25706 -10.25644 -10.25590 -10.25486
 Alpha  occ. eigenvalues --  -10.24939 -10.24915 -10.24904 -10.24877 -10.24420
 Alpha  occ. eigenvalues --  -10.24348 -10.23619  -1.08393  -1.06047  -0.93816
 Alpha  occ. eigenvalues --   -0.93236  -0.92609  -0.91896  -0.90914  -0.89850
 Alpha  occ. eigenvalues --   -0.87994  -0.87720  -0.87448  -0.85683  -0.84815
 Alpha  occ. eigenvalues --   -0.82992  -0.82170  -0.80584  -0.79656  -0.78346
 Alpha  occ. eigenvalues --   -0.76466  -0.76160  -0.76126  -0.75980  -0.75470
 Alpha  occ. eigenvalues --   -0.75211  -0.75021  -0.74759  -0.73269  -0.71282
 Alpha  occ. eigenvalues --   -0.69036  -0.67851  -0.66268  -0.65370  -0.64887
 Alpha  occ. eigenvalues --   -0.63893  -0.62666  -0.61989  -0.61226  -0.59845
 Alpha  occ. eigenvalues --   -0.59194  -0.58696  -0.58238  -0.57761  -0.56500
 Alpha  occ. eigenvalues --   -0.55753  -0.55391  -0.54842  -0.54111  -0.53975
 Alpha  occ. eigenvalues --   -0.53433  -0.53129  -0.52248  -0.51812  -0.51159
 Alpha  occ. eigenvalues --   -0.50705  -0.50282  -0.49645  -0.49070  -0.48963
 Alpha  occ. eigenvalues --   -0.48830  -0.48695  -0.48267  -0.48181  -0.47977
 Alpha  occ. eigenvalues --   -0.47903  -0.47625  -0.47401  -0.47018  -0.46673
 Alpha  occ. eigenvalues --   -0.46483  -0.45823  -0.45509  -0.45244  -0.44725
 Alpha  occ. eigenvalues --   -0.44258  -0.44088  -0.43921  -0.43825  -0.42965
 Alpha  occ. eigenvalues --   -0.42898  -0.42223  -0.42168  -0.41916  -0.41759
 Alpha  occ. eigenvalues --   -0.41719  -0.41275  -0.40835  -0.40680  -0.40523
 Alpha  occ. eigenvalues --   -0.40328  -0.39859  -0.39658  -0.39475  -0.39212
 Alpha  occ. eigenvalues --   -0.39054  -0.38787  -0.38686  -0.38155  -0.37559
 Alpha  occ. eigenvalues --   -0.37338  -0.37252  -0.37132  -0.36659  -0.36594
 Alpha  occ. eigenvalues --   -0.35313  -0.33862  -0.33615  -0.32916  -0.31358
 Alpha  occ. eigenvalues --   -0.30758  -0.30569  -0.28596  -0.26682  -0.22709
 Alpha  occ. eigenvalues --   -0.18266
 Alpha virt. eigenvalues --   -0.07136  -0.01761   0.02444   0.05327   0.08118
 Alpha virt. eigenvalues --    0.09967   0.10784   0.10842   0.11227   0.11507
 Alpha virt. eigenvalues --    0.11949   0.12410   0.12462   0.13376   0.13538

 Mulliken charges:
               1
     1  O   -0.567814
     2  O   -0.610972
     3  C   -0.014388
     4  C   -0.042806
     5  C   -0.182202
     6  C   -0.179232
     7  C    0.178521
     8  C    0.217035
     9  C    0.067438
    10  C    0.064153
    11  C   -0.213398
    12  C   -0.241036
    13  C    0.041570
    14  C    0.059021
    15  C   -0.280665
    16  C   -0.289266
    17  C   -0.283372
    18  C   -0.292548
    19  C   -0.132349
    20  C   -0.130418
    21  C   -0.363032
    22  C   -0.372412
    23  C   -0.083417
    24  C   -0.101039
    25  C    0.069910
    26  C    0.087412
    27  C   -0.359900
    28  C   -0.367821
    29  C   -0.117048
    30  C   -0.112100
    31  C   -0.093902
    32  C   -0.077124
    33  C   -0.117737
    34  C   -0.133332
    35  C    0.143625
    36  C    0.133219
    37  C   -0.373005
    38  C   -0.372996
    39  C   -0.134615
    40  C   -0.127430
    41  C   -0.066408
    42  C   -0.007997
    43  H    0.097773
    44  H    0.073631
    45  H    0.060052
    46  H    0.102529
    47  H    0.075411
    48  H    0.092653
    49  H    0.119492
    50  H    0.101410
    51  H    0.125687
    52  H    0.125047
    53  H    0.096766
    54  H    0.110110
    55  H    0.095921
    56  H    0.070785
    57  H    0.088700
    58  H    0.114741
    59  H    0.084168
    60  H    0.110801
    61  H    0.081416
    62  H    0.110694
    63  H    0.097064
    64  H    0.095042
    65  H    0.069888
    66  H    0.083495
    67  H    0.105640
    68  H    0.101817
    69  H    0.114043
    70  H    0.093707
    71  H    0.127336
    72  H    0.105706
    73  H    0.306685
    74  H    0.300966
    75  H    0.070765
    76  H    0.093073
    77  H    0.102211
    78  H    0.140095
    79  H    0.119432
    80  H    0.131990
    81  H    0.133697
    82  H    0.069420
    83  H    0.084172
    84  H    0.068430
    85  H    0.079738
    86  H    0.073756
    87  H    0.072167
    88  H    0.087196
    89  H    0.130291
    90  H    0.062937
    91  H    0.123873
    92  H    0.127542
    93  H    0.128908
    94  H    0.092903
    95  H    0.066588
    96  H    0.074476
    97  H    0.075148
    98  H    0.031893
 Sum of Mulliken charges =  -0.00000

 Dipole moment (field-independent basis, Debye):
    X=             -0.6806    Y=             -1.8929    Z=              0.2342  Tot=              2.0251
 Quadrupole moment (field-independent basis, Debye-Ang):
   XX=           -278.0760   YY=           -241.4196   ZZ=           -263.9780
   XY=             14.0581   XZ=             -7.6663   YZ=              3.3141

 Normal termination of Gaussian 16 at Fri Jul 19 14:46:26 2019.
