 Gaussian 16, Revision A.03,
 Gaussian 16:  ES64L-G16RevA.03 25-Dec-2016

 -------------------------------------
 # td=(NStates=1) CAM-B3LYP/6-31G(d,p)
 -------------------------------------

 --
 TD
 --
 Symbolic Z-matrix:
 Charge =  0 Multiplicity = 1

                         Standard orientation:
 ---------------------------------------------------------------------
 Center     Atomic      Atomic             Coordinates (Angstroms)
 Number     Number       Type             X           Y           Z
 ---------------------------------------------------------------------
      1          8           0       14.688466   -2.236215   -0.259018
      2          8           0      -14.590658    2.170960    0.987083
      3          6           0       11.104175   -1.402175    0.981753
      4          6           0      -12.286642   -0.987262    0.678435
      5          6           0       12.637846   -1.745157    1.057385
      6          6           0      -13.647409   -0.144983    0.752549
      7          6           0       13.258325   -1.909932   -0.325485
      8          6           0      -13.424010    1.418403    0.862967
      9          6           0       10.890309   -0.178346   -0.038110
     10          6           0      -11.237989   -0.217142   -0.218742
     11          6           0       13.179731   -0.639335   -1.083287
     12          6           0      -12.581807    1.825105   -0.368738
     13          6           0       11.882082    0.078264   -0.989272
     14          6           0      -11.489044    0.975788   -0.746258
     15          6           0       10.878551   -0.970680    2.508308
     16          6           0       10.234719   -2.603789    0.552655
     17          6           0      -11.692182   -1.047706    2.243076
     18          6           0      -12.648300   -2.412370    0.162874
     19          6           0        9.712689    0.442551    0.178118
     20          6           0      -10.011048   -1.019402   -0.328467
     21          6           0       11.694594    1.304630   -1.935503
     22          6           0      -10.601068    1.684170   -1.712846
     23          6           0        9.303940    1.731390    0.047537
     24          6           0       -8.748363   -0.541222   -0.323507
     25          6           0        8.019647    2.332456    0.276582
     26          6           0       -7.552220   -1.337316   -0.626025
     27          6           0        7.885403    3.789522    0.615664
     28          6           0       -7.727761   -2.790290   -0.979202
     29          6           0        6.853944    1.591952    0.259209
     30          6           0       -6.350457   -0.686878   -0.500660
     31          6           0        5.444519    2.107701    0.278460
     32          6           0       -5.068888   -1.181896   -0.574937
     33          6           0        4.411841    1.327420    0.017094
     34          6           0       -3.892300   -0.581490   -0.429185
     35          6           0        3.015442    1.734471    0.065282
     36          6           0       -2.508476   -0.891185   -0.492111
     37          6           0        2.751183    3.111757    0.354897
     38          6           0       -2.371029   -2.427204   -0.801171
     39          6           0        2.069171    0.660252   -0.087591
     40          6           0       -1.604152    0.060831   -0.411537
     41          6           0        0.691022    0.903366   -0.193972
     42          6           0       -0.239317   -0.155739   -0.522455
     43          1           0       13.135170   -0.997921    1.718587
     44          1           0       12.702930   -2.953193    1.697010
     45          1           0      -14.077900   -0.407681    1.669869
     46          1           0      -14.292523   -0.378878   -0.087071
     47          1           0       12.766133   -2.600501   -0.722963
     48          1           0      -12.808346    1.660958    1.772866
     49          1           0       13.943852   -0.028422   -0.719639
     50          1           0       13.418988   -0.747582   -1.997851
     51          1           0      -13.180354    2.188715   -1.139284
     52          1           0      -12.110599    2.728928   -0.158559
     53          1           0       11.339382   -1.706682    3.153953
     54          1           0        9.684842   -0.876930    2.804308
     55          1           0       11.401057   -0.037150    2.649830
     56          1           0       10.411406   -2.905106   -0.533608
     57          1           0       10.288257   -3.592255    1.112731
     58          1           0        9.138638   -2.485486    0.501956
     59          1           0      -11.498688   -0.172381    2.664869
     60          1           0      -10.708490   -1.690965    2.145190
     61          1           0      -12.314238   -1.737475    2.797214
     62          1           0      -13.464376   -2.833094    0.577926
     63          1           0      -11.827600   -3.175063    0.521335
     64          1           0      -12.597441   -2.350940   -0.736448
     65          1           0        8.884608   -0.154841    0.821434
     66          1           0       -9.986611   -2.045684   -0.177453
     67          1           0       10.502101    1.500954   -2.188186
     68          1           0       12.289325    2.151937   -1.460495
     69          1           0       12.133645    1.030018   -2.865117
     70          1           0      -11.125991    2.281640   -2.465479
     71          1           0      -10.080032    0.945219   -2.372987
     72          1           0       -9.813384    2.406305   -1.253189
     73          1           0       14.800212   -3.138195    0.074588
     74          1           0      -14.934108    1.757664    1.921862
     75          1           0       10.269531    2.302438   -0.125611
     76          1           0       -8.554711    0.392667   -0.036140
     77          1           0        8.784146    4.185835    0.760689
     78          1           0        7.490311    4.336039   -0.133693
     79          1           0        7.424625    4.165408    1.535820
     80          1           0       -7.971760   -3.386935   -0.059692
     81          1           0       -8.348246   -2.951542   -1.809882
     82          1           0       -6.513736   -3.180458   -1.390943
     83          1           0        6.818618    0.514361   -0.226327
     84          1           0       -6.428380    0.311950   -0.365526
     85          1           0        5.460320    3.169840    0.591071
     86          1           0       -5.054586   -2.402558   -0.656209
     87          1           0        4.525812    0.222992   -0.002802
     88          1           0       -4.193893    0.499729   -0.474574
     89          1           0        2.841826    3.122610    1.525260
     90          1           0        1.663509    3.235478    0.121153
     91          1           0        3.500144    3.801933   -0.181536
     92          1           0       -2.808282   -2.982220    0.114066
     93          1           0       -2.643879   -2.754094   -1.821914
     94          1           0       -1.407339   -2.559020   -0.781991
     95          1           0        2.427382   -0.394433   -0.363544
     96          1           0       -1.966092    1.130067   -0.193206
     97          1           0        0.338509    1.966787   -0.175875
     98          1           0        0.123822   -1.111936   -0.623011
 ---------------------------------------------------------------------

 SCF Done:  E(RCAM-B3LYP) =  -1706.90939006     A.U. after   15 cycles

 Excitation energies and oscillator strengths:

 Excited State   1:      Singlet-A      2.3066 eV  537.51 nm  f=3.7104  <S**2>=0.000
     155 ->158        -0.17013
     156 ->157         0.68028
 This state for optimization and/or second-order correction.
 Total Energy, E(TD-HF/TD-DFT) =  -1706.82462295
 Copying the excited state density for this state as the 1-particle RhoCI density.

 The electronic state is 1-A.
 Alpha  occ. eigenvalues --  -19.22316 -19.20866 -10.30361 -10.28992 -10.28614
 Alpha  occ. eigenvalues --  -10.28193 -10.27937 -10.27843 -10.27659 -10.27577
 Alpha  occ. eigenvalues --  -10.27395 -10.27177 -10.27128 -10.26960 -10.26902
 Alpha  occ. eigenvalues --  -10.26777 -10.26614 -10.26550 -10.26477 -10.26138
 Alpha  occ. eigenvalues --  -10.26117 -10.26081 -10.26008 -10.25917 -10.25886
 Alpha  occ. eigenvalues --  -10.25785 -10.25687 -10.25684 -10.25658 -10.25472
 Alpha  occ. eigenvalues --  -10.25230 -10.25052 -10.24971 -10.24532 -10.24450
 Alpha  occ. eigenvalues --  -10.24377 -10.24279 -10.24278 -10.23666 -10.23536
 Alpha  occ. eigenvalues --  -10.23330 -10.22953  -1.09072  -1.07937  -0.93496
 Alpha  occ. eigenvalues --   -0.92880  -0.92360  -0.91772  -0.90502  -0.90072
 Alpha  occ. eigenvalues --   -0.87311  -0.86961  -0.86753  -0.86098  -0.84985
 Alpha  occ. eigenvalues --   -0.83130  -0.81850  -0.80706  -0.79596  -0.78816
 Alpha  occ. eigenvalues --   -0.77139  -0.77068  -0.76431  -0.76296  -0.75616
 Alpha  occ. eigenvalues --   -0.75393  -0.75277  -0.75226  -0.73696  -0.70805
 Alpha  occ. eigenvalues --   -0.69030  -0.67644  -0.66061  -0.65636  -0.64383
 Alpha  occ. eigenvalues --   -0.63468  -0.61905  -0.61762  -0.60345  -0.59678
 Alpha  occ. eigenvalues --   -0.59474  -0.59016  -0.58137  -0.57479  -0.56061
 Alpha  occ. eigenvalues --   -0.55942  -0.55539  -0.54612  -0.54234  -0.53461
 Alpha  occ. eigenvalues --   -0.53048  -0.52428  -0.51906  -0.51585  -0.51399
 Alpha  occ. eigenvalues --   -0.50539  -0.49939  -0.49774  -0.49597  -0.49455
 Alpha  occ. eigenvalues --   -0.49305  -0.49189  -0.48937  -0.48729  -0.48360
 Alpha  occ. eigenvalues --   -0.48142  -0.47819  -0.47333  -0.47001  -0.46295
 Alpha  occ. eigenvalues --   -0.46222  -0.45869  -0.45703  -0.45353  -0.45099
 Alpha  occ. eigenvalues --   -0.44909  -0.44376  -0.44249  -0.44128  -0.43723
 Alpha  occ. eigenvalues --   -0.42741  -0.42255  -0.42194  -0.42045  -0.42014
 Alpha  occ. eigenvalues --   -0.41790  -0.41753  -0.41425  -0.41152  -0.40724
 Alpha  occ. eigenvalues --   -0.40702  -0.40606  -0.40262  -0.39899  -0.39212
 Alpha  occ. eigenvalues --   -0.38844  -0.38635  -0.38279  -0.38167  -0.37863
 Alpha  occ. eigenvalues --   -0.37631  -0.37186  -0.36265  -0.36023  -0.35298
 Alpha  occ. eigenvalues --   -0.35005  -0.34499  -0.33879  -0.32793  -0.32102
 Alpha  occ. eigenvalues --   -0.31320  -0.30354  -0.28573  -0.25199  -0.22953
 Alpha  occ. eigenvalues --   -0.19525
 Alpha virt. eigenvalues --   -0.05281  -0.01185   0.01588   0.06078   0.08073
 Alpha virt. eigenvalues --    0.09817   0.10196   0.10892   0.11435   0.12427
 Alpha virt. eigenvalues --    0.12983   0.13308   0.13551   0.14055   0.14225

 Mulliken charges:
               1
     1  O   -0.579168
     2  O   -0.550027
     3  C   -0.003838
     4  C   -0.033131
     5  C   -0.177378
     6  C   -0.195134
     7  C    0.186632
     8  C    0.161490
     9  C    0.075315
    10  C    0.068512
    11  C   -0.190629
    12  C   -0.241072
    13  C    0.010453
    14  C    0.069688
    15  C   -0.303313
    16  C   -0.312886
    17  C   -0.311725
    18  C   -0.283430
    19  C   -0.094778
    20  C   -0.134181
    21  C   -0.363619
    22  C   -0.376937
    23  C   -0.137578
    24  C   -0.074754
    25  C    0.083001
    26  C    0.101386
    27  C   -0.383749
    28  C   -0.361593
    29  C   -0.143178
    30  C   -0.102025
    31  C   -0.087618
    32  C   -0.077287
    33  C   -0.102991
    34  C   -0.116193
    35  C    0.101159
    36  C    0.093317
    37  C   -0.363321
    38  C   -0.350911
    39  C   -0.126676
    40  C   -0.105582
    41  C   -0.094476
    42  C   -0.101889
    43  H    0.105268
    44  H    0.017856
    45  H    0.075328
    46  H    0.102203
    47  H    0.092413
    48  H    0.064970
    49  H    0.134541
    50  H    0.113215
    51  H    0.120917
    52  H    0.119624
    53  H    0.112239
    54  H    0.075490
    55  H    0.113740
    56  H    0.094071
    57  H    0.096440
    58  H    0.109113
    59  H    0.115631
    60  H    0.083344
    61  H    0.099632
    62  H    0.113645
    63  H    0.074146
    64  H    0.117948
    65  H    0.077186
    66  H    0.080465
    67  H    0.117375
    68  H    0.120908
    69  H    0.109160
    70  H    0.107557
    71  H    0.117436
    72  H    0.106483
    73  H    0.302774
    74  H    0.308946
    75  H    0.088124
    76  H    0.069196
    77  H    0.115496
    78  H    0.132975
    79  H    0.120623
    80  H    0.124930
    81  H    0.136786
    82  H    0.063075
    83  H    0.072507
    84  H    0.068218
    85  H    0.089702
    86  H    0.044688
    87  H    0.086582
    88  H    0.050836
    89  H    0.130411
    90  H    0.104606
    91  H    0.124813
    92  H    0.119464
    93  H    0.128618
    94  H    0.107606
    95  H    0.089591
    96  H    0.088412
    97  H    0.087297
    98  H    0.085499
 Sum of Mulliken charges =  -0.00000

 Dipole moment (field-independent basis, Debye):
    X=              1.3498    Y=             -0.8592    Z=              1.0049  Tot=              1.8895
 Quadrupole moment (field-independent basis, Debye-Ang):
   XX=           -275.4422   YY=           -241.1589   ZZ=           -259.1498
   XY=             12.3373   XZ=            -13.4133   YZ=              1.6073

 Normal termination of Gaussian 16 at Tue Jul  9 19:32:10 2019.
