 Gaussian 16, Revision A.03,
 Gaussian 16:  ES64L-G16RevA.03 25-Dec-2016

 -------------------------------------
 # td=(NStates=1) CAM-B3LYP/6-31G(d,p)
 -------------------------------------

 --
 TD
 --
 Symbolic Z-matrix:
 Charge =  0 Multiplicity = 1

                         Standard orientation:
 ---------------------------------------------------------------------
 Center     Atomic      Atomic             Coordinates (Angstroms)
 Number     Number       Type             X           Y           Z
 ---------------------------------------------------------------------
      1          8           0       14.750719   -2.202251   -0.164452
      2          8           0      -14.770813    1.575272    1.273598
      3          6           0       11.090028   -1.516284    0.870172
      4          6           0      -12.310727   -1.108161    0.654829
      5          6           0       12.474241   -2.021771    1.046662
      6          6           0      -13.590916   -0.456762    0.725846
      7          6           0       13.274537   -1.966921   -0.356600
      8          6           0      -13.534798    1.009602    1.064489
      9          6           0       10.919663   -0.443175    0.040419
     10          6           0      -11.241892   -0.203549   -0.116309
     11          6           0       13.204909   -0.627193   -0.906458
     12          6           0      -12.860617    1.665907    0.008662
     13          6           0       11.873471    0.111102   -0.822636
     14          6           0      -11.529770    1.006259   -0.416158
     15          6           0       10.639304   -1.321982    2.355656
     16          6           0       10.314486   -2.724434    0.515557
     17          6           0      -11.665085   -1.524766    1.945224
     18          6           0      -12.543645   -2.406867   -0.144135
     19          6           0        9.603643    0.301744    0.155950
     20          6           0       -9.974886   -0.875092   -0.504700
     21          6           0       11.747228    1.283124   -1.735868
     22          6           0      -10.686214    1.899606   -1.384715
     23          6           0        9.319844    1.618908    0.104579
     24          6           0       -8.779284   -0.400009   -0.558873
     25          6           0        8.036194    2.264085    0.172066
     26          6           0       -7.544367   -1.102023   -0.785181
     27          6           0        7.980442    3.755201    0.475342
     28          6           0       -7.639846   -2.604428   -1.208327
     29          6           0        6.837559    1.556158    0.123420
     30          6           0       -6.318450   -0.494463   -0.559373
     31          6           0        5.598566    2.131661    0.262137
     32          6           0       -5.002227   -0.940350   -0.682973
     33          6           0        4.519545    1.426138   -0.011067
     34          6           0       -3.890807   -0.139307   -0.478937
     35          6           0        3.056748    1.771908    0.062255
     36          6           0       -2.583095   -0.505632   -0.601330
     37          6           0        2.892828    3.201684    0.504508
     38          6           0       -2.309936   -1.967415   -1.004213
     39          6           0        2.079008    0.876856   -0.180072
     40          6           0       -1.607980    0.331063   -0.290353
     41          6           0        0.757417    1.160517   -0.071416
     42          6           0       -0.164852    0.127595   -0.374454
     43          1           0       13.057232   -1.398607    1.716552
     44          1           0       12.643311   -3.017348    1.695433
     45          1           0      -14.225606   -0.979682    1.524972
     46          1           0      -14.265363   -0.620192   -0.214931
     47          1           0       12.807246   -2.830279   -0.869375
     48          1           0      -12.896936    1.160518    2.110090
     49          1           0       13.979887   -0.045181   -0.137246
     50          1           0       13.576064   -0.405950   -2.001830
     51          1           0      -13.476453    1.662724   -0.916561
     52          1           0      -12.653256    2.725364    0.410525
     53          1           0       10.705979   -2.401714    2.934088
     54          1           0        9.586804   -1.126691    2.389625
     55          1           0       11.184297   -0.409231    2.915835
     56          1           0       10.445496   -3.264504   -0.708708
     57          1           0       10.589436   -3.593569    1.364123
     58          1           0        9.237071   -2.734045    0.872300
     59          1           0      -11.300057   -0.777448    2.608872
     60          1           0      -10.643157   -1.940762    1.699549
     61          1           0      -12.331215   -2.114933    2.606368
     62          1           0      -13.471937   -3.021423    0.363842
     63          1           0      -11.593003   -3.165641    0.033529
     64          1           0      -12.790231   -2.309079   -1.229982
     65          1           0        8.905908   -0.516086    0.378243
     66          1           0      -10.033591   -1.969145   -0.500462
     67          1           0       10.546225    1.725429   -1.802069
     68          1           0       12.469724    2.050124   -1.202883
     69          1           0       12.011186    1.015628   -2.765044
     70          1           0      -11.360571    2.483757   -2.189550
     71          1           0      -10.195537    1.152174   -1.816145
     72          1           0      -10.087790    2.654321   -0.781983
     73          1           0       14.944343   -3.105338   -0.056650
     74          1           0      -15.072552    1.368554    2.088732
     75          1           0       10.109039    2.409988    0.018541
     76          1           0       -8.474640    0.779344   -0.171051
     77          1           0        9.155225    4.192980    0.605036
     78          1           0        7.189260    4.337891   -0.206080
     79          1           0        7.655426    4.056900    1.545327
     80          1           0       -7.981310   -3.208320   -0.433349
     81          1           0       -8.284050   -2.840915   -2.176889
     82          1           0       -6.709456   -3.101065   -1.679373
     83          1           0        6.695339    0.260066    0.033926
     84          1           0       -6.272624    0.596970   -0.441497
     85          1           0        5.354120    3.248683    0.342307
     86          1           0       -4.946789   -2.099660   -1.025691
     87          1           0        4.518822    0.276727   -0.096568
     88          1           0       -4.006730    0.787530    0.086765
     89          1           0        3.209601    3.288431    1.561608
     90          1           0        1.864968    3.379889    0.113157
     91          1           0        3.657996    3.693040   -0.082583
     92          1           0       -2.815790   -2.519059   -0.366208
     93          1           0       -2.460679   -2.019085   -2.005411
     94          1           0       -1.243354   -2.276075   -1.123933
     95          1           0        2.282284    0.102925   -0.703526
     96          1           0       -1.722566    1.385846    0.047695
     97          1           0        0.382557    2.187820    0.063696
     98          1           0        0.069523   -1.047976   -0.660072
 ---------------------------------------------------------------------

 SCF Done:  E(RCAM-B3LYP) =  -1706.84449317     A.U. after   15 cycles

 Excitation energies and oscillator strengths:

 Excited State   1:      Singlet-A      2.4068 eV  515.14 nm  f=3.8513  <S**2>=0.000
     155 ->158        -0.18114
     156 ->157         0.67930
 This state for optimization and/or second-order correction.
 Total Energy, E(TD-HF/TD-DFT) =  -1706.75604488
 Copying the excited state density for this state as the 1-particle RhoCI density.

 The electronic state is 1-A.
 Alpha  occ. eigenvalues --  -19.20485 -19.20335 -10.31269 -10.30220 -10.28772
 Alpha  occ. eigenvalues --  -10.28455 -10.28136 -10.28070 -10.27470 -10.27420
 Alpha  occ. eigenvalues --  -10.27337 -10.27323 -10.27261 -10.27118 -10.27094
 Alpha  occ. eigenvalues --  -10.26984 -10.26975 -10.26958 -10.26935 -10.26888
 Alpha  occ. eigenvalues --  -10.26812 -10.26712 -10.26348 -10.26222 -10.26187
 Alpha  occ. eigenvalues --  -10.26131 -10.26118 -10.26081 -10.25982 -10.25979
 Alpha  occ. eigenvalues --  -10.25792 -10.25653 -10.25605 -10.25570 -10.25362
 Alpha  occ. eigenvalues --  -10.25176 -10.24994 -10.24963 -10.24666 -10.24392
 Alpha  occ. eigenvalues --  -10.24042 -10.24041  -1.12317  -1.07308  -0.95753
 Alpha  occ. eigenvalues --   -0.94569  -0.93076  -0.92431  -0.90791  -0.90375
 Alpha  occ. eigenvalues --   -0.88012  -0.87574  -0.87283  -0.86437  -0.84900
 Alpha  occ. eigenvalues --   -0.83688  -0.82642  -0.80184  -0.79669  -0.79350
 Alpha  occ. eigenvalues --   -0.77212  -0.76593  -0.76466  -0.75714  -0.74981
 Alpha  occ. eigenvalues --   -0.74613  -0.74329  -0.73760  -0.73606  -0.71114
 Alpha  occ. eigenvalues --   -0.69167  -0.67560  -0.65995  -0.65067  -0.64066
 Alpha  occ. eigenvalues --   -0.63366  -0.62736  -0.61804  -0.60030  -0.59660
 Alpha  occ. eigenvalues --   -0.59175  -0.59008  -0.58726  -0.57675  -0.56799
 Alpha  occ. eigenvalues --   -0.56020  -0.55586  -0.54320  -0.54075  -0.53806
 Alpha  occ. eigenvalues --   -0.53154  -0.52549  -0.52325  -0.51666  -0.51188
 Alpha  occ. eigenvalues --   -0.50867  -0.50275  -0.50040  -0.49935  -0.49286
 Alpha  occ. eigenvalues --   -0.49188  -0.48914  -0.48649  -0.48403  -0.48150
 Alpha  occ. eigenvalues --   -0.47955  -0.47587  -0.46769  -0.46660  -0.45977
 Alpha  occ. eigenvalues --   -0.45870  -0.45275  -0.45131  -0.44193  -0.44046
 Alpha  occ. eigenvalues --   -0.43625  -0.43567  -0.43318  -0.42875  -0.42588
 Alpha  occ. eigenvalues --   -0.42514  -0.42262  -0.42052  -0.41678  -0.41593
 Alpha  occ. eigenvalues --   -0.41190  -0.40708  -0.40670  -0.40536  -0.40272
 Alpha  occ. eigenvalues --   -0.39931  -0.39841  -0.39747  -0.39565  -0.39309
 Alpha  occ. eigenvalues --   -0.39011  -0.38544  -0.38443  -0.38396  -0.37803
 Alpha  occ. eigenvalues --   -0.37758  -0.36949  -0.36675  -0.36124  -0.36067
 Alpha  occ. eigenvalues --   -0.35437  -0.34488  -0.34167  -0.33616  -0.31501
 Alpha  occ. eigenvalues --   -0.31078  -0.30193  -0.28504  -0.26442  -0.23235
 Alpha  occ. eigenvalues --   -0.20108
 Alpha virt. eigenvalues --   -0.05333  -0.01292   0.02724   0.06062   0.07882
 Alpha virt. eigenvalues --    0.09981   0.10619   0.10923   0.11137   0.12035
 Alpha virt. eigenvalues --    0.12212   0.12415   0.12517   0.12654   0.13176

 Mulliken charges:
               1
     1  O   -0.568056
     2  O   -0.533427
     3  C   -0.046899
     4  C    0.020812
     5  C   -0.185308
     6  C   -0.196161
     7  C    0.142873
     8  C    0.175247
     9  C    0.106820
    10  C    0.121637
    11  C   -0.194399
    12  C   -0.190245
    13  C    0.056057
    14  C   -0.027806
    15  C   -0.284386
    16  C   -0.264874
    17  C   -0.297222
    18  C   -0.286581
    19  C   -0.100647
    20  C   -0.164372
    21  C   -0.354662
    22  C   -0.334226
    23  C   -0.127206
    24  C   -0.064903
    25  C    0.080729
    26  C    0.106127
    27  C   -0.364459
    28  C   -0.382923
    29  C   -0.105089
    30  C   -0.130436
    31  C   -0.059633
    32  C   -0.086550
    33  C   -0.107932
    34  C   -0.129925
    35  C    0.052161
    36  C    0.114771
    37  C   -0.360218
    38  C   -0.353720
    39  C   -0.065151
    40  C   -0.134873
    41  C   -0.110508
    42  C   -0.094126
    43  H    0.102402
    44  H    0.075932
    45  H    0.067463
    46  H    0.093431
    47  H    0.092488
    48  H    0.038582
    49  H    0.110829
    50  H    0.093856
    51  H    0.114561
    52  H    0.095832
    53  H    0.080468
    54  H    0.109126
    55  H    0.098656
    56  H    0.067136
    57  H    0.072428
    58  H    0.100393
    59  H    0.108652
    60  H    0.098945
    61  H    0.095429
    62  H    0.077098
    63  H    0.073555
    64  H    0.112508
    65  H    0.082504
    66  H    0.083888
    67  H    0.104449
    68  H    0.114400
    69  H    0.118095
    70  H    0.086557
    71  H    0.133002
    72  H    0.109694
    73  H    0.298074
    74  H    0.295191
    75  H    0.089659
    76  H    0.066243
    77  H    0.083207
    78  H    0.112967
    79  H    0.120778
    80  H    0.134558
    81  H    0.104743
    82  H    0.102678
    83  H    0.074235
    84  H    0.078850
    85  H    0.080748
    86  H    0.076883
    87  H    0.062748
    88  H    0.092811
    89  H    0.134982
    90  H    0.101545
    91  H    0.120644
    92  H    0.135151
    93  H    0.137564
    94  H    0.090294
    95  H    0.080021
    96  H    0.072874
    97  H    0.097941
    98  H    0.071938
 Sum of Mulliken charges =  -0.00000

 Dipole moment (field-independent basis, Debye):
    X=             -0.0248    Y=             -1.7679    Z=              1.2163  Tot=              2.1460
 Quadrupole moment (field-independent basis, Debye-Ang):
   XX=           -293.8047   YY=           -244.1357   ZZ=           -258.9805
   XY=              4.0781   XZ=            -11.0422   YZ=              3.8077

 Normal termination of Gaussian 16 at Thu Jul 18 03:53:23 2019.
