 Gaussian 16, Revision A.03,
 Gaussian 16:  ES64L-G16RevA.03 25-Dec-2016

 -------------------------------------
 # td=(NStates=1) CAM-B3LYP/6-31G(d,p)
 -------------------------------------

 --
 TD
 --
 Symbolic Z-matrix:
 Charge =  0 Multiplicity = 1

                         Standard orientation:
 ---------------------------------------------------------------------
 Center     Atomic      Atomic             Coordinates (Angstroms)
 Number     Number       Type             X           Y           Z
 ---------------------------------------------------------------------
      1          8           0       14.553804   -2.415366   -0.159726
      2          8           0      -14.789295    1.810240    1.000180
      3          6           0       11.074783   -1.417039    1.069756
      4          6           0      -12.293728   -0.989989    0.781047
      5          6           0       12.636545   -1.821237    1.143022
      6          6           0      -13.674465   -0.361560    0.696674
      7          6           0       13.253850   -2.049640   -0.167307
      8          6           0      -13.540927    1.158017    0.950383
      9          6           0       11.007563   -0.290842    0.093121
     10          6           0      -11.220241   -0.258936   -0.114395
     11          6           0       13.179667   -0.721502   -0.992824
     12          6           0      -12.654470    1.793164   -0.153200
     13          6           0       11.842443   -0.041944   -0.943585
     14          6           0      -11.414388    1.017540   -0.476734
     15          6           0       10.659378   -1.015090    2.407394
     16          6           0       10.293382   -2.619032    0.601596
     17          6           0      -11.842731   -1.204847    2.153629
     18          6           0      -12.567895   -2.441403    0.146458
     19          6           0        9.647602    0.449949    0.183634
     20          6           0       -9.949079   -1.012895   -0.342601
     21          6           0       11.834942    1.114138   -1.915926
     22          6           0      -10.595553    1.800000   -1.518505
     23          6           0        9.266552    1.740184    0.120367
     24          6           0       -8.755980   -0.502803   -0.359151
     25          6           0        7.994913    2.323278    0.291711
     26          6           0       -7.523877   -1.285895   -0.619266
     27          6           0        7.989556    3.812107    0.620525
     28          6           0       -7.617362   -2.756187   -1.086373
     29          6           0        6.868096    1.615651    0.088917
     30          6           0       -6.328862   -0.616789   -0.560785
     31          6           0        5.593517    2.155034    0.309201
     32          6           0       -4.976984   -1.057771   -0.761902
     33          6           0        4.495446    1.401504   -0.086567
     34          6           0       -3.949878   -0.365664   -0.496703
     35          6           0        3.110197    1.850133   -0.187211
     36          6           0       -2.532016   -0.758037   -0.662658
     37          6           0        2.835103    3.199305    0.431654
     38          6           0       -2.254157   -2.184194   -1.080978
     39          6           0        2.083128    0.918272   -0.347887
     40          6           0       -1.630855    0.174556   -0.283796
     41          6           0        0.716984    1.075500   -0.207772
     42          6           0       -0.217433    0.009233   -0.452482
     43          1           0       13.086757   -0.978839    1.631651
     44          1           0       12.842193   -2.689731    1.741843
     45          1           0      -14.332040   -0.901941    1.554808
     46          1           0      -14.346946   -0.521531   -0.178720
     47          1           0       12.632680   -2.598506   -0.841783
     48          1           0      -13.053248    1.231773    1.828219
     49          1           0       13.797244   -0.075084   -0.592446
     50          1           0       13.567426   -0.991215   -2.016299
     51          1           0      -13.168680    1.785596   -1.035471
     52          1           0      -12.392421    2.901499    0.138618
     53          1           0       10.867802   -1.831822    3.199850
     54          1           0        9.699177   -1.047243    2.801447
     55          1           0       11.103753   -0.097384    2.826098
     56          1           0       10.860978   -3.179374   -0.322143
     57          1           0       10.459987   -3.412222    1.270629
     58          1           0        9.149667   -2.451938    0.310001
     59          1           0      -11.720281   -0.102562    2.463818
     60          1           0      -10.977458   -1.772274    2.178083
     61          1           0      -12.708905   -1.704338    2.765858
     62          1           0      -13.603223   -3.030236    0.446699
     63          1           0      -11.637782   -3.154183    0.239127
     64          1           0      -12.708892   -2.046059   -0.760365
     65          1           0        8.864223   -0.352289    0.474203
     66          1           0      -10.106182   -2.096673   -0.432559
     67          1           0       10.824343    1.479156   -1.953594
     68          1           0       12.509475    2.095483   -1.507480
     69          1           0       12.072614    0.819482   -2.937317
     70          1           0      -11.347449    2.139882   -2.359598
     71          1           0       -9.769007    1.247949   -2.065808
     72          1           0      -10.329159    2.873401   -0.982763
     73          1           0       14.613435   -3.356014    0.313465
     74          1           0      -15.351338    1.231367    1.709351
     75          1           0       10.121200    2.294584   -0.293841
     76          1           0       -8.692517    0.668950    0.042418
     77          1           0        9.035301    4.174410    0.568178
     78          1           0        7.384864    4.281927   -0.137432
     79          1           0        7.652063    4.061569    1.624107
     80          1           0       -8.179510   -3.392296   -0.406472
     81          1           0       -8.185684   -2.712580   -1.802229
     82          1           0       -6.506891   -3.017932   -1.264715
     83          1           0        7.162238    0.499279   -0.210966
     84          1           0       -6.266789    0.445410   -0.284236
     85          1           0        5.526134    3.121069    0.932658
     86          1           0       -5.131010   -2.279090   -1.128989
     87          1           0        4.704575    0.370743   -0.500134
     88          1           0       -4.054508    0.629666   -0.118596
     89          1           0        2.908822    3.188935    1.481551
     90          1           0        1.817891    3.420753   -0.157682
     91          1           0        3.646915    3.794037    0.073919
     92          1           0       -2.713925   -2.623330   -0.240916
     93          1           0       -2.885778   -2.343154   -2.019673
     94          1           0       -1.060147   -2.392201   -0.981168
     95          1           0        2.343360   -0.096157   -0.629946
     96          1           0       -1.851075    1.117741    0.103185
     97          1           0        0.461594    2.071363    0.319476
     98          1           0        0.191455   -0.862439   -1.222439
 ---------------------------------------------------------------------

 SCF Done:  E(RCAM-B3LYP) =  -1706.92991589     A.U. after   15 cycles

 Excitation energies and oscillator strengths:

 Excited State   1:      Singlet-A      2.4911 eV  497.71 nm  f=3.3127  <S**2>=0.000
     155 ->158         0.13884
     156 ->157         0.68989
 This state for optimization and/or second-order correction.
 Total Energy, E(TD-HF/TD-DFT) =  -1706.83837010
 Copying the excited state density for this state as the 1-particle RhoCI density.

 The electronic state is 1-A.
 Alpha  occ. eigenvalues --  -19.22288 -19.21951 -10.29436 -10.28570 -10.28531
 Alpha  occ. eigenvalues --  -10.28075 -10.27736 -10.27650 -10.27636 -10.27427
 Alpha  occ. eigenvalues --  -10.27274 -10.27142 -10.27126 -10.27110 -10.27088
 Alpha  occ. eigenvalues --  -10.26931 -10.26656 -10.26547 -10.26478 -10.26339
 Alpha  occ. eigenvalues --  -10.26298 -10.26179 -10.26156 -10.26102 -10.26021
 Alpha  occ. eigenvalues --  -10.26004 -10.25780 -10.25766 -10.25730 -10.25673
 Alpha  occ. eigenvalues --  -10.25661 -10.25589 -10.25520 -10.25322 -10.25264
 Alpha  occ. eigenvalues --  -10.25189 -10.24885 -10.24878 -10.24832 -10.24316
 Alpha  occ. eigenvalues --  -10.24088 -10.23052  -1.10753  -1.08271  -0.93961
 Alpha  occ. eigenvalues --   -0.93860  -0.92717  -0.91575  -0.90709  -0.90047
 Alpha  occ. eigenvalues --   -0.87771  -0.87384  -0.87176  -0.85634  -0.84349
 Alpha  occ. eigenvalues --   -0.83434  -0.81989  -0.80177  -0.79865  -0.78907
 Alpha  occ. eigenvalues --   -0.77585  -0.76734  -0.76631  -0.75973  -0.75643
 Alpha  occ. eigenvalues --   -0.75403  -0.75159  -0.74629  -0.73500  -0.70350
 Alpha  occ. eigenvalues --   -0.68420  -0.67275  -0.66121  -0.65402  -0.64674
 Alpha  occ. eigenvalues --   -0.63105  -0.61964  -0.60796  -0.60197  -0.60027
 Alpha  occ. eigenvalues --   -0.59081  -0.58385  -0.58045  -0.57445  -0.56788
 Alpha  occ. eigenvalues --   -0.55526  -0.54671  -0.54511  -0.53900  -0.53766
 Alpha  occ. eigenvalues --   -0.53261  -0.52351  -0.51826  -0.51375  -0.50945
 Alpha  occ. eigenvalues --   -0.50785  -0.50213  -0.50028  -0.49940  -0.49624
 Alpha  occ. eigenvalues --   -0.49479  -0.49064  -0.49002  -0.48913  -0.48631
 Alpha  occ. eigenvalues --   -0.48178  -0.47612  -0.47280  -0.46774  -0.46405
 Alpha  occ. eigenvalues --   -0.45900  -0.45636  -0.45489  -0.45418  -0.44658
 Alpha  occ. eigenvalues --   -0.44531  -0.44281  -0.43538  -0.43332  -0.43289
 Alpha  occ. eigenvalues --   -0.43117  -0.42822  -0.42678  -0.42512  -0.42409
 Alpha  occ. eigenvalues --   -0.42021  -0.41695  -0.41637  -0.41412  -0.41019
 Alpha  occ. eigenvalues --   -0.40595  -0.40430  -0.40171  -0.40147  -0.39329
 Alpha  occ. eigenvalues --   -0.39121  -0.38745  -0.38315  -0.37740  -0.37366
 Alpha  occ. eigenvalues --   -0.36836  -0.36639  -0.36483  -0.35658  -0.35169
 Alpha  occ. eigenvalues --   -0.34883  -0.34249  -0.33781  -0.32698  -0.32249
 Alpha  occ. eigenvalues --   -0.31238  -0.30178  -0.28691  -0.26374  -0.24218
 Alpha  occ. eigenvalues --   -0.20124
 Alpha virt. eigenvalues --   -0.04976  -0.00075   0.02617   0.05885   0.07404
 Alpha virt. eigenvalues --    0.09857   0.09902   0.10259   0.10741   0.11469
 Alpha virt. eigenvalues --    0.11837   0.12282   0.12703   0.12856   0.13679

 Mulliken charges:
               1
     1  O   -0.551270
     2  O   -0.571126
     3  C   -0.005072
     4  C   -0.038327
     5  C   -0.186055
     6  C   -0.204833
     7  C    0.176307
     8  C    0.189203
     9  C    0.060797
    10  C    0.051967
    11  C   -0.218338
    12  C   -0.217721
    13  C    0.038062
    14  C    0.035523
    15  C   -0.309412
    16  C   -0.292500
    17  C   -0.253302
    18  C   -0.298412
    19  C   -0.120368
    20  C   -0.115955
    21  C   -0.346220
    22  C   -0.344190
    23  C   -0.119807
    24  C   -0.086058
    25  C    0.084782
    26  C    0.046985
    27  C   -0.378390
    28  C   -0.330384
    29  C   -0.094642
    30  C   -0.119417
    31  C   -0.117522
    32  C   -0.051066
    33  C   -0.101469
    34  C   -0.119029
    35  C    0.037148
    36  C    0.087788
    37  C   -0.356330
    38  C   -0.353842
    39  C   -0.076976
    40  C   -0.105724
    41  C   -0.104065
    42  C   -0.122224
    43  H    0.106074
    44  H    0.066782
    45  H    0.054863
    46  H    0.104731
    47  H    0.077459
    48  H    0.086518
    49  H    0.123681
    50  H    0.091707
    51  H    0.132146
    52  H    0.099559
    53  H    0.074892
    54  H    0.116895
    55  H    0.110451
    56  H    0.077941
    57  H    0.110305
    58  H    0.099326
    59  H    0.084277
    60  H    0.113231
    61  H    0.085583
    62  H    0.078502
    63  H    0.079336
    64  H    0.123676
    65  H    0.062843
    66  H    0.072679
    67  H    0.117876
    68  H    0.091487
    69  H    0.115626
    70  H    0.099377
    71  H    0.125900
    72  H    0.091383
    73  H    0.304620
    74  H    0.305949
    75  H    0.079343
    76  H    0.090855
    77  H    0.108025
    78  H    0.128203
    79  H    0.121729
    80  H    0.117889
    81  H    0.141197
    82  H    0.093826
    83  H    0.080026
    84  H    0.071535
    85  H    0.100682
    86  H    0.049649
    87  H    0.081835
    88  H    0.089448
    89  H    0.136730
    90  H    0.099442
    91  H    0.117254
    92  H    0.146113
    93  H    0.127527
    94  H    0.101597
    95  H    0.073794
    96  H    0.088472
    97  H    0.084839
    98  H    0.085797
 Sum of Mulliken charges =  -0.00000

 Dipole moment (field-independent basis, Debye):
    X=             -1.0382    Y=             -2.3195    Z=              1.5135  Tot=              2.9578
 Quadrupole moment (field-independent basis, Debye-Ang):
   XX=           -272.9174   YY=           -246.6934   ZZ=           -260.4512
   XY=              6.8466   XZ=              3.3540   YZ=              0.8250

 Normal termination of Gaussian 16 at Fri Jul 12 10:53:44 2019.
