 Gaussian 16, Revision A.03,
 Gaussian 16:  ES64L-G16RevA.03 25-Dec-2016

 -------------------------------------
 # td=(NStates=1) CAM-B3LYP/6-31G(d,p)
 -------------------------------------

 --
 TD
 --
 Symbolic Z-matrix:
 Charge =  0 Multiplicity = 1

                         Standard orientation:
 ---------------------------------------------------------------------
 Center     Atomic      Atomic             Coordinates (Angstroms)
 Number     Number       Type             X           Y           Z
 ---------------------------------------------------------------------
      1          8           0       14.657982   -2.198794   -0.431960
      2          8           0      -14.682289    1.943485    0.878915
      3          6           0       11.215586   -1.605110    0.851168
      4          6           0      -12.400086   -1.090771    0.468932
      5          6           0       12.692479   -1.872503    0.925242
      6          6           0      -13.703497   -0.254202    0.467049
      7          6           0       13.275892   -1.879233   -0.463440
      8          6           0      -13.507587    1.110541    0.729905
      9          6           0       10.883106   -0.403388   -0.110568
     10          6           0      -11.290999   -0.306591   -0.355382
     11          6           0       13.137090   -0.439798   -1.056329
     12          6           0      -12.706995    1.786759   -0.386462
     13          6           0       11.837686    0.107246   -1.048180
     14          6           0      -11.511788    0.996830   -0.700565
     15          6           0       10.735661   -1.128564    2.331816
     16          6           0       10.491873   -2.862993    0.487524
     17          6           0      -11.895716   -1.256851    1.974645
     18          6           0      -12.740124   -2.405565   -0.211680
     19          6           0        9.588953    0.415592    0.075436
     20          6           0      -10.051683   -1.082798   -0.476502
     21          6           0       11.494990    1.149907   -2.027030
     22          6           0      -10.608183    1.613389   -1.628010
     23          6           0        9.328461    1.624920   -0.004996
     24          6           0       -8.780806   -0.559087   -0.357609
     25          6           0        8.112487    2.305581    0.258681
     26          6           0       -7.506132   -1.274995   -0.493440
     27          6           0        8.089329    3.786749    0.457393
     28          6           0       -7.599851   -2.712970   -0.887230
     29          6           0        6.937643    1.532164    0.143554
     30          6           0       -6.392658   -0.535315   -0.281506
     31          6           0        5.634430    2.088311    0.433215
     32          6           0       -4.986248   -0.995377   -0.371886
     33          6           0        4.490866    1.369765    0.118733
     34          6           0       -3.897416   -0.243483   -0.069509
     35          6           0        3.192348    1.819605    0.224484
     36          6           0       -2.592998   -0.722919   -0.177665
     37          6           0        2.918524    3.234587    0.653179
     38          6           0       -2.296450   -2.121279   -0.487570
     39          6           0        2.146063    0.876233    0.048764
     40          6           0       -1.581186    0.226635   -0.031615
     41          6           0        0.739104    1.077996    0.010517
     42          6           0       -0.144765    0.034845   -0.035020
     43          1           0       13.193807   -0.982766    1.474146
     44          1           0       12.850078   -2.897319    1.561591
     45          1           0      -14.484047   -0.825346    1.207866
     46          1           0      -14.138199   -0.334735   -0.536676
     47          1           0       12.775497   -2.643421   -1.061114
     48          1           0      -12.947864    1.475731    1.712151
     49          1           0       13.794225    0.264009   -0.620837
     50          1           0       13.570762   -0.567524   -2.068266
     51          1           0      -13.317042    2.095563   -1.254545
     52          1           0      -12.325889    2.907579   -0.269858
     53          1           0       11.270453   -1.810331    3.142266
     54          1           0        9.620247   -1.173900    2.533103
     55          1           0       11.371730   -0.236431    2.355179
     56          1           0       10.984791   -3.411484   -0.416017
     57          1           0       10.389571   -3.503125    1.496839
     58          1           0        9.349038   -2.697095    0.230505
     59          1           0      -11.979397   -0.281200    2.504802
     60          1           0      -10.728269   -1.572329    2.177784
     61          1           0      -12.622759   -1.885308    2.306822
     62          1           0      -13.714768   -2.962304    0.124455
     63          1           0      -11.971289   -3.093818   -0.197075
     64          1           0      -12.672234   -2.254224   -1.391723
     65          1           0        8.803892   -0.273455    0.539736
     66          1           0      -10.222220   -2.204711   -0.655637
     67          1           0       10.437489    1.372044   -2.176838
     68          1           0       11.997186    2.048187   -1.949466
     69          1           0       11.676068    0.757864   -3.146760
     70          1           0      -11.161389    2.155017   -2.293602
     71          1           0       -9.964162    0.939728   -2.073513
     72          1           0      -10.057525    2.434746   -1.136781
     73          1           0       14.876288   -3.348937   -0.554875
     74          1           0      -15.302552    1.651979    1.371685
     75          1           0       10.138495    2.224421    0.024417
     76          1           0       -8.723458    0.430102   -0.089469
     77          1           0        8.925895    4.278065    0.170079
     78          1           0        7.145799    4.164185   -0.198665
     79          1           0        7.505894    4.032017    1.255395
     80          1           0       -8.136173   -3.345760    0.005824
     81          1           0       -8.183459   -2.775133   -1.714013
     82          1           0       -6.522787   -3.247468   -0.903859
     83          1           0        6.982462    0.587349   -0.161663
     84          1           0       -6.479405    0.461076   -0.139887
     85          1           0        5.502405    3.078661    0.801885
     86          1           0       -5.037316   -2.044862   -0.675463
     87          1           0        4.728680    0.254877   -0.221075
     88          1           0       -4.135922    0.859379    0.094969
     89          1           0        3.845700    3.649301    1.352134
     90          1           0        1.720861    3.027565    1.557187
     91          1           0        2.687599    3.842439   -0.404483
     92          1           0       -2.674467   -2.751447    0.334560
     93          1           0       -2.607309   -2.255275   -1.463390
     94          1           0       -1.207627   -2.187255   -0.262053
     95          1           0        2.382863   -0.180982   -0.049745
     96          1           0       -1.918837    1.151419    0.253215
     97          1           0        0.274613    2.254596    0.170893
     98          1           0        0.144024   -1.030654   -0.236052
 ---------------------------------------------------------------------

 SCF Done:  E(RCAM-B3LYP) =  -1706.86802011     A.U. after   15 cycles

 Excitation energies and oscillator strengths:

 Excited State   1:      Singlet-A      2.2194 eV  558.63 nm  f=3.4719  <S**2>=0.000
     155 ->158        -0.15404
     156 ->157         0.68788
 This state for optimization and/or second-order correction.
 Total Energy, E(TD-HF/TD-DFT) =  -1706.78645707
 Copying the excited state density for this state as the 1-particle RhoCI density.

 The electronic state is 1-A.
 Alpha  occ. eigenvalues --  -19.22123 -19.18709 -10.31372 -10.30882 -10.30572
 Alpha  occ. eigenvalues --  -10.27931 -10.27911 -10.27629 -10.27245 -10.27182
 Alpha  occ. eigenvalues --  -10.27131 -10.27005 -10.26932 -10.26850 -10.26725
 Alpha  occ. eigenvalues --  -10.26704 -10.26644 -10.26610 -10.26449 -10.26322
 Alpha  occ. eigenvalues --  -10.26200 -10.26165 -10.26133 -10.25995 -10.25962
 Alpha  occ. eigenvalues --  -10.25870 -10.25772 -10.25740 -10.25709 -10.25637
 Alpha  occ. eigenvalues --  -10.25524 -10.25237 -10.25236 -10.25140 -10.25115
 Alpha  occ. eigenvalues --  -10.25035 -10.24994 -10.24872 -10.24597 -10.24339
 Alpha  occ. eigenvalues --  -10.22943 -10.22583  -1.10236  -1.06562  -0.94049
 Alpha  occ. eigenvalues --   -0.93341  -0.92465  -0.91748  -0.90788  -0.90396
 Alpha  occ. eigenvalues --   -0.87920  -0.87629  -0.87168  -0.85796  -0.84926
 Alpha  occ. eigenvalues --   -0.83306  -0.81760  -0.80510  -0.80379  -0.78269
 Alpha  occ. eigenvalues --   -0.77211  -0.76360  -0.76104  -0.75905  -0.75387
 Alpha  occ. eigenvalues --   -0.75146  -0.74684  -0.73866  -0.73238  -0.70439
 Alpha  occ. eigenvalues --   -0.68972  -0.67657  -0.66146  -0.65024  -0.63910
 Alpha  occ. eigenvalues --   -0.62672  -0.62283  -0.61098  -0.60624  -0.60213
 Alpha  occ. eigenvalues --   -0.59401  -0.58728  -0.58268  -0.57439  -0.56419
 Alpha  occ. eigenvalues --   -0.55434  -0.55002  -0.54447  -0.54148  -0.53914
 Alpha  occ. eigenvalues --   -0.53451  -0.52864  -0.52349  -0.52029  -0.51743
 Alpha  occ. eigenvalues --   -0.50595  -0.50489  -0.50197  -0.50102  -0.49748
 Alpha  occ. eigenvalues --   -0.49091  -0.48968  -0.48399  -0.48157  -0.47902
 Alpha  occ. eigenvalues --   -0.47504  -0.47441  -0.47356  -0.46967  -0.46337
 Alpha  occ. eigenvalues --   -0.46086  -0.45744  -0.45500  -0.45341  -0.44633
 Alpha  occ. eigenvalues --   -0.44211  -0.44082  -0.43584  -0.43396  -0.43153
 Alpha  occ. eigenvalues --   -0.42809  -0.42800  -0.42138  -0.41848  -0.41693
 Alpha  occ. eigenvalues --   -0.41500  -0.41068  -0.40833  -0.40736  -0.40521
 Alpha  occ. eigenvalues --   -0.39988  -0.39721  -0.39666  -0.39453  -0.39171
 Alpha  occ. eigenvalues --   -0.38791  -0.38535  -0.38269  -0.38210  -0.37476
 Alpha  occ. eigenvalues --   -0.37014  -0.36616  -0.36534  -0.36211  -0.35913
 Alpha  occ. eigenvalues --   -0.35445  -0.34685  -0.34456  -0.31826  -0.31437
 Alpha  occ. eigenvalues --   -0.31201  -0.29541  -0.27428  -0.25588  -0.23059
 Alpha  occ. eigenvalues --   -0.19232
 Alpha virt. eigenvalues --   -0.05444  -0.00746   0.02429   0.05447   0.06806
 Alpha virt. eigenvalues --    0.07031   0.08471   0.10014   0.11726   0.11848
 Alpha virt. eigenvalues --    0.12118   0.12680   0.12972   0.13406   0.13859

 Mulliken charges:
               1
     1  O   -0.576469
     2  O   -0.562652
     3  C    0.005007
     4  C   -0.001615
     5  C   -0.163807
     6  C   -0.191876
     7  C    0.183529
     8  C    0.197720
     9  C    0.018965
    10  C    0.030181
    11  C   -0.241996
    12  C   -0.242312
    13  C    0.089335
    14  C    0.087737
    15  C   -0.303834
    16  C   -0.285432
    17  C   -0.293590
    18  C   -0.319528
    19  C   -0.098093
    20  C   -0.136050
    21  C   -0.375614
    22  C   -0.368453
    23  C   -0.088524
    24  C   -0.097792
    25  C    0.084270
    26  C    0.122787
    27  C   -0.368802
    28  C   -0.362657
    29  C   -0.102782
    30  C   -0.125396
    31  C   -0.095479
    32  C   -0.090652
    33  C   -0.097470
    34  C   -0.111822
    35  C    0.108092
    36  C    0.092488
    37  C   -0.317215
    38  C   -0.354308
    39  C   -0.124157
    40  C   -0.112655
    41  C   -0.082602
    42  C   -0.093569
    43  H    0.088761
    44  H    0.070500
    45  H    0.066165
    46  H    0.116470
    47  H    0.079763
    48  H    0.079352
    49  H    0.130398
    50  H    0.104067
    51  H    0.122716
    52  H    0.095167
    53  H    0.078863
    54  H    0.110074
    55  H    0.114307
    56  H    0.089499
    57  H    0.087715
    58  H    0.090752
    59  H    0.103093
    60  H    0.094484
    61  H    0.106212
    62  H    0.094710
    63  H    0.114315
    64  H    0.091721
    65  H    0.063435
    66  H    0.076889
    67  H    0.133666
    68  H    0.122952
    69  H    0.081972
    70  H    0.109981
    71  H    0.124547
    72  H    0.100581
    73  H    0.300947
    74  H    0.271195
    75  H    0.074227
    76  H    0.087686
    77  H    0.120253
    78  H    0.098298
    79  H    0.139913
    80  H    0.100946
    81  H    0.140214
    82  H    0.096333
    83  H    0.074224
    84  H    0.068980
    85  H    0.059002
    86  H    0.069951
    87  H    0.075290
    88  H    0.087060
    89  H    0.109357
    90  H    0.048768
    91  H    0.120601
    92  H    0.124610
    93  H    0.139521
    94  H    0.098896
    95  H    0.082987
    96  H    0.071611
    97  H    0.074850
    98  H    0.088244
 Sum of Mulliken charges =  -0.00000

 Dipole moment (field-independent basis, Debye):
    X=             -0.1215    Y=             -2.0859    Z=             -0.3202  Tot=              2.1138
 Quadrupole moment (field-independent basis, Debye-Ang):
   XX=           -259.2823   YY=           -241.4780   ZZ=           -264.2746
   XY=              7.9627   XZ=             -9.3649   YZ=              2.0079

 Normal termination of Gaussian 16 at Mon Jul 15 17:20:45 2019.
