 Gaussian 16, Revision A.03,
 Gaussian 16:  ES64L-G16RevA.03 25-Dec-2016

 -------------------------------------
 # td=(NStates=1) CAM-B3LYP/6-31G(d,p)
 -------------------------------------

 --
 TD
 --
 Symbolic Z-matrix:
 Charge =  0 Multiplicity = 1

                         Standard orientation:
 ---------------------------------------------------------------------
 Center     Atomic      Atomic             Coordinates (Angstroms)
 Number     Number       Type             X           Y           Z
 ---------------------------------------------------------------------
      1          8           0       14.742243   -2.386160   -0.267962
      2          8           0      -14.858514    1.805531    1.221561
      3          6           0       11.102277   -1.469903    1.089276
      4          6           0      -12.305405   -1.054504    0.765413
      5          6           0       12.659760   -1.892412    1.197810
      6          6           0      -13.655942   -0.301107    0.825905
      7          6           0       13.375524   -1.883034   -0.198987
      8          6           0      -13.503663    1.109673    1.191173
      9          6           0       10.937203   -0.293152    0.123022
     10          6           0      -11.287831   -0.288307   -0.006580
     11          6           0       13.206271   -0.591163   -0.913774
     12          6           0      -12.857172    1.782522   -0.049749
     13          6           0       11.830137    0.054398   -0.745651
     14          6           0      -11.559720    0.942587   -0.355728
     15          6           0       10.724308   -1.010873    2.545350
     16          6           0       10.341098   -2.802620    0.689375
     17          6           0      -11.777269   -1.288676    2.306758
     18          6           0      -12.582248   -2.430272    0.142545
     19          6           0        9.635943    0.333420    0.280855
     20          6           0       -9.976553   -0.958264   -0.372478
     21          6           0       11.602110    1.238673   -1.640558
     22          6           0      -10.733795    1.678927   -1.483709
     23          6           0        9.399661    1.704402    0.242221
     24          6           0       -8.803589   -0.462286   -0.321044
     25          6           0        8.037153    2.387947    0.304726
     26          6           0       -7.610236   -1.161643   -0.577947
     27          6           0        8.022017    3.735954    0.780789
     28          6           0       -7.629985   -2.580613   -1.026591
     29          6           0        6.991930    1.589528    0.014855
     30          6           0       -6.452403   -0.505287   -0.515997
     31          6           0        5.630887    2.013492    0.030564
     32          6           0       -5.051570   -0.986520   -0.732043
     33          6           0        4.465038    1.314202   -0.192345
     34          6           0       -3.899772   -0.242890   -0.727179
     35          6           0        3.137920    1.656161   -0.076359
     36          6           0       -2.590749   -0.699372   -0.983087
     37          6           0        2.916619    3.121229    0.332881
     38          6           0       -2.382167   -2.186995   -1.420890
     39          6           0        2.125312    0.826119   -0.421427
     40          6           0       -1.541738    0.261901   -0.813923
     41          6           0        0.722763    1.042473   -0.408969
     42          6           0       -0.181222    0.006235   -0.861277
     43          1           0       13.460680   -1.412932    1.927797
     44          1           0       12.811007   -2.912225    1.693970
     45          1           0      -14.355311   -0.899316    1.543893
     46          1           0      -14.215378   -0.382131   -0.103512
     47          1           0       12.804627   -2.603859   -0.932440
     48          1           0      -12.840777    1.238532    1.896629
     49          1           0       14.080536    0.170185   -0.734468
     50          1           0       13.306866   -0.797215   -1.940757
     51          1           0      -13.355225    1.715965   -0.958871
     52          1           0      -12.668712    2.861823   -0.017550
     53          1           0       11.043316   -1.717748    3.427565
     54          1           0        9.630485   -0.841180    2.524975
     55          1           0       11.348341    0.000339    2.772389
     56          1           0       10.798907   -3.137297   -0.123578
     57          1           0       10.411111   -3.469906    1.565850
     58          1           0        9.260899   -2.662099    0.321308
     59          1           0      -11.566227   -0.295306    2.701727
     60          1           0      -10.870966   -1.849390    2.284612
     61          1           0      -12.331231   -2.051172    2.894309
     62          1           0      -13.175664   -3.030394    0.667652
     63          1           0      -11.663206   -3.039036    0.301478
     64          1           0      -12.840206   -2.368348   -0.881222
     65          1           0        8.786096   -0.058851    0.883434
     66          1           0      -10.313150   -2.013975   -0.258329
     67          1           0       10.704508    1.549731   -1.879924
     68          1           0       12.162532    2.098530   -1.388746
     69          1           0       11.964722    1.040913   -2.607560
     70          1           0      -11.531422    2.458691   -1.971302
     71          1           0      -10.539410    0.842904   -2.386512
     72          1           0       -9.828973    2.346622   -1.161136
     73          1           0       14.686947   -3.288880    0.432126
     74          1           0      -15.327557    1.514866    2.099895
     75          1           0       10.141548    2.468449    0.113573
     76          1           0       -8.636081    0.645444   -0.074179
     77          1           0        9.034876    4.470327    1.233190
     78          1           0        7.732449    4.491364   -0.173395
     79          1           0        7.206570    3.954616    1.536565
     80          1           0       -7.634429   -3.390660   -0.332936
     81          1           0       -8.667222   -2.524368   -1.639046
     82          1           0       -6.719026   -3.035579   -1.828022
     83          1           0        7.162557    0.457887   -0.174149
     84          1           0       -6.273792    0.818869   -0.042871
     85          1           0        5.564171    3.025227    0.559485
     86          1           0       -4.786887   -1.952759   -0.846120
     87          1           0        4.657909    0.243759   -0.604822
     88          1           0       -3.965929    0.940412   -0.823645
     89          1           0        2.785230    3.329970    1.507440
     90          1           0        1.966828    3.431521   -0.049869
     91          1           0        3.681317    3.762426   -0.059147
     92          1           0       -2.383483   -3.043750   -0.532355
     93          1           0       -2.716151   -2.592329   -2.255700
     94          1           0       -1.356796   -2.145061   -1.644071
     95          1           0        2.568677   -0.079644   -0.673810
     96          1           0       -1.818611    1.183472   -0.345059
     97          1           0        0.286541    1.821685   -0.013035
     98          1           0        0.376330   -0.903790   -1.163875
 ---------------------------------------------------------------------

 SCF Done:  E(RCAM-B3LYP) =  -1706.85357415     A.U. after   15 cycles

 Excitation energies and oscillator strengths:

 Excited State   1:      Singlet-A      2.2464 eV  551.92 nm  f=3.5809  <S**2>=0.000
     155 ->158        -0.14809
     156 ->157         0.69137
 This state for optimization and/or second-order correction.
 Total Energy, E(TD-HF/TD-DFT) =  -1706.77101915
 Copying the excited state density for this state as the 1-particle RhoCI density.

 The electronic state is 1-A.
 Alpha  occ. eigenvalues --  -19.22552 -19.21392 -10.30970 -10.29586 -10.29429
 Alpha  occ. eigenvalues --  -10.28979 -10.28837 -10.28835 -10.27813 -10.27763
 Alpha  occ. eigenvalues --  -10.27717 -10.27662 -10.27638 -10.27181 -10.27119
 Alpha  occ. eigenvalues --  -10.26917 -10.26830 -10.26755 -10.26706 -10.26644
 Alpha  occ. eigenvalues --  -10.26572 -10.26570 -10.26534 -10.26378 -10.26369
 Alpha  occ. eigenvalues --  -10.26284 -10.26075 -10.26024 -10.25935 -10.25798
 Alpha  occ. eigenvalues --  -10.25698 -10.25660 -10.25656 -10.25585 -10.25126
 Alpha  occ. eigenvalues --  -10.25037 -10.24967 -10.24881 -10.24841 -10.24830
 Alpha  occ. eigenvalues --  -10.23782 -10.22518  -1.05917  -1.05144  -0.94003
 Alpha  occ. eigenvalues --   -0.93610  -0.92519  -0.91924  -0.91226  -0.90523
 Alpha  occ. eigenvalues --   -0.87419  -0.86686  -0.85842  -0.85536  -0.84897
 Alpha  occ. eigenvalues --   -0.83251  -0.81803  -0.80206  -0.79848  -0.78740
 Alpha  occ. eigenvalues --   -0.77206  -0.77119  -0.76348  -0.75991  -0.75950
 Alpha  occ. eigenvalues --   -0.75710  -0.74904  -0.74294  -0.73413  -0.71251
 Alpha  occ. eigenvalues --   -0.68817  -0.68039  -0.66412  -0.65067  -0.64240
 Alpha  occ. eigenvalues --   -0.63981  -0.63817  -0.63208  -0.60101  -0.59410
 Alpha  occ. eigenvalues --   -0.58843  -0.57984  -0.57669  -0.56957  -0.56157
 Alpha  occ. eigenvalues --   -0.55271  -0.54471  -0.54303  -0.53914  -0.53506
 Alpha  occ. eigenvalues --   -0.52977  -0.52319  -0.51710  -0.51341  -0.51110
 Alpha  occ. eigenvalues --   -0.50274  -0.50122  -0.49775  -0.49244  -0.48901
 Alpha  occ. eigenvalues --   -0.48790  -0.48256  -0.48205  -0.47951  -0.47683
 Alpha  occ. eigenvalues --   -0.47439  -0.47327  -0.47006  -0.46695  -0.45906
 Alpha  occ. eigenvalues --   -0.45645  -0.45543  -0.45476  -0.45015  -0.44683
 Alpha  occ. eigenvalues --   -0.44453  -0.44290  -0.43832  -0.43519  -0.43145
 Alpha  occ. eigenvalues --   -0.43135  -0.42689  -0.41985  -0.41716  -0.41559
 Alpha  occ. eigenvalues --   -0.41395  -0.41213  -0.41050  -0.41042  -0.40481
 Alpha  occ. eigenvalues --   -0.40350  -0.40150  -0.39808  -0.39420  -0.39302
 Alpha  occ. eigenvalues --   -0.39005  -0.38843  -0.38451  -0.38300  -0.38188
 Alpha  occ. eigenvalues --   -0.37327  -0.37210  -0.36967  -0.36105  -0.35729
 Alpha  occ. eigenvalues --   -0.35597  -0.34345  -0.33677  -0.33123  -0.32629
 Alpha  occ. eigenvalues --   -0.30948  -0.30727  -0.28737  -0.26462  -0.24245
 Alpha  occ. eigenvalues --   -0.19965
 Alpha virt. eigenvalues --   -0.06249  -0.00898   0.02248   0.05466   0.08020
 Alpha virt. eigenvalues --    0.08353   0.09882   0.10426   0.11013   0.11771
 Alpha virt. eigenvalues --    0.12256   0.12385   0.12796   0.13099   0.13137

 Mulliken charges:
               1
     1  O   -0.571113
     2  O   -0.577946
     3  C   -0.031736
     4  C   -0.058994
     5  C   -0.211303
     6  C   -0.162212
     7  C    0.184709
     8  C    0.160348
     9  C    0.113561
    10  C    0.101075
    11  C   -0.213661
    12  C   -0.208844
    13  C    0.034668
    14  C   -0.021873
    15  C   -0.288800
    16  C   -0.295605
    17  C   -0.319092
    18  C   -0.309955
    19  C   -0.148537
    20  C   -0.134419
    21  C   -0.370386
    22  C   -0.341240
    23  C   -0.102109
    24  C   -0.038460
    25  C    0.119649
    26  C    0.133401
    27  C   -0.384959
    28  C   -0.357809
    29  C   -0.110871
    30  C   -0.122773
    31  C   -0.104964
    32  C   -0.085915
    33  C   -0.131064
    34  C   -0.104393
    35  C    0.144485
    36  C    0.083895
    37  C   -0.375094
    38  C   -0.368224
    39  C   -0.123745
    40  C   -0.133262
    41  C   -0.078701
    42  C   -0.069736
    43  H    0.090597
    44  H    0.067220
    45  H    0.067660
    46  H    0.106711
    47  H    0.062024
    48  H    0.099839
    49  H    0.103306
    50  H    0.123659
    51  H    0.132472
    52  H    0.109273
    53  H    0.088904
    54  H    0.101469
    55  H    0.093923
    56  H    0.121299
    57  H    0.107064
    58  H    0.093179
    59  H    0.108849
    60  H    0.106889
    61  H    0.098369
    62  H    0.109256
    63  H    0.090753
    64  H    0.116371
    65  H    0.103582
    66  H    0.075482
    67  H    0.130171
    68  H    0.118050
    69  H    0.097816
    70  H    0.075176
    71  H    0.102045
    72  H    0.110605
    73  H    0.300494
    74  H    0.297389
    75  H    0.088655
    76  H    0.093798
    77  H    0.093416
    78  H    0.100145
    79  H    0.133360
    80  H    0.134209
    81  H    0.103038
    82  H    0.081026
    83  H    0.089164
    84  H    0.034983
    85  H    0.070357
    86  H    0.079175
    87  H    0.063599
    88  H    0.072025
    89  H    0.098326
    90  H    0.111124
    91  H    0.123824
    92  H    0.099995
    93  H    0.139035
    94  H    0.114514
    95  H    0.073026
    96  H    0.098251
    97  H    0.078499
    98  H    0.098563
 Sum of Mulliken charges =  -0.00000

 Dipole moment (field-independent basis, Debye):
    X=             -0.3184    Y=             -1.7245    Z=              2.0668  Tot=              2.7105
 Quadrupole moment (field-independent basis, Debye-Ang):
   XX=           -301.2834   YY=           -241.4306   ZZ=           -259.7216
   XY=             23.3820   XZ=             -3.4721   YZ=             -0.0741

 Normal termination of Gaussian 16 at Sat Jul 13 13:06:26 2019.
