 Gaussian 16, Revision A.03,
 Gaussian 16:  ES64L-G16RevA.03 25-Dec-2016

 -------------------------------------
 # td=(NStates=1) CAM-B3LYP/6-31G(d,p)
 -------------------------------------

 --
 TD
 --
 Symbolic Z-matrix:
 Charge =  0 Multiplicity = 1

                         Standard orientation:
 ---------------------------------------------------------------------
 Center     Atomic      Atomic             Coordinates (Angstroms)
 Number     Number       Type             X           Y           Z
 ---------------------------------------------------------------------
      1          8           0       14.607637   -2.461660   -0.312935
      2          8           0      -14.656748    2.094349    0.948365
      3          6           0       11.164811   -1.352498    1.038166
      4          6           0      -12.379874   -1.104707    0.537677
      5          6           0       12.663434   -1.856664    0.940510
      6          6           0      -13.675504   -0.146551    0.582751
      7          6           0       13.257523   -2.011112   -0.397378
      8          6           0      -13.551787    1.302475    0.884369
      9          6           0       10.968121   -0.249613    0.019861
     10          6           0      -11.233530   -0.271344   -0.220987
     11          6           0       13.276395   -0.654191   -0.913253
     12          6           0      -12.688442    1.875690   -0.254639
     13          6           0       11.938416    0.144253   -0.979237
     14          6           0      -11.444709    1.058522   -0.620950
     15          6           0       10.898260   -0.939154    2.477990
     16          6           0       10.227082   -2.571951    0.607065
     17          6           0      -11.988683   -1.515664    1.927175
     18          6           0      -12.782665   -2.339394   -0.382127
     19          6           0        9.787474    0.521465    0.129296
     20          6           0      -10.003642   -1.009217   -0.467046
     21          6           0       11.743647    1.188757   -2.080487
     22          6           0      -10.410659    1.819085   -1.332835
     23          6           0        9.400033    1.812947   -0.110622
     24          6           0       -8.803665   -0.426575   -0.348431
     25          6           0        8.051600    2.273276    0.089380
     26          6           0       -7.560588   -1.206268   -0.583501
     27          6           0        8.001947    3.788854    0.495244
     28          6           0       -7.824310   -2.600576   -0.902022
     29          6           0        6.853738    1.646921    0.062064
     30          6           0       -6.212517   -0.747259   -0.248524
     31          6           0        5.470494    2.078271    0.186716
     32          6           0       -5.022684   -1.211584   -0.493364
     33          6           0        4.494546    1.191833    0.098225
     34          6           0       -3.818394   -0.458021   -0.343656
     35          6           0        3.087404    1.580831    0.177405
     36          6           0       -2.508535   -0.845782   -0.441054
     37          6           0        2.777027    3.037806    0.427156
     38          6           0       -2.323420   -2.309957   -0.670825
     39          6           0        2.014766    0.672455    0.009400
     40          6           0       -1.482938    0.127509   -0.133672
     41          6           0        0.665376    1.005375    0.101034
     42          6           0       -0.205017   -0.011410   -0.162203
     43          1           0       13.196190   -1.061973    1.442846
     44          1           0       12.751697   -2.856304    1.489354
     45          1           0      -14.438014   -0.693605    1.117281
     46          1           0      -13.938134   -0.346200   -0.492199
     47          1           0       12.764298   -2.709317   -1.179405
     48          1           0      -13.118621    1.175500    1.940204
     49          1           0       14.009881    0.123062   -0.465349
     50          1           0       13.760652   -0.378238   -2.029801
     51          1           0      -13.321558    2.144868   -1.102724
     52          1           0      -12.136376    2.930436    0.068279
     53          1           0       11.511071   -1.627738    3.239237
     54          1           0        9.703842   -0.783634    2.618503
     55          1           0       11.277410   -0.027897    2.774977
     56          1           0       10.407911   -3.008480   -0.256660
     57          1           0       10.299115   -3.345984    1.374282
     58          1           0        9.047988   -2.181736    0.577502
     59          1           0      -11.699567   -0.644472    2.629869
     60          1           0      -11.191834   -2.305336    1.815344
     61          1           0      -12.997125   -1.962645    2.554406
     62          1           0      -13.390356   -2.900637    0.169871
     63          1           0      -11.876159   -2.825169   -0.669221
     64          1           0      -13.132182   -1.898068   -1.528408
     65          1           0        8.863683   -0.025495    0.617158
     66          1           0      -10.205290   -2.090922   -0.387256
     67          1           0       10.670376    1.188933   -2.103561
     68          1           0       11.982778    2.153509   -1.753544
     69          1           0       12.222952    0.967739   -3.050979
     70          1           0      -10.816463    2.449975   -2.218465
     71          1           0       -9.572597    1.306846   -1.757411
     72          1           0       -9.756822    2.636528   -0.818495
     73          1           0       14.600725   -3.404228   -0.087835
     74          1           0      -15.278225    1.611487    1.510623
     75          1           0       10.105382    2.424254   -0.353168
     76          1           0       -8.694571    0.643899   -0.064376
     77          1           0        8.947369    4.323747    0.580943
     78          1           0        7.225522    4.260384   -0.248538
     79          1           0        7.573316    4.316730    1.539627
     80          1           0       -8.369630   -3.217619   -0.110678
     81          1           0       -8.155174   -2.824293   -1.849796
     82          1           0       -6.880415   -3.322521   -1.017882
     83          1           0        6.878807    0.612753   -0.210394
     84          1           0       -5.899868    0.424395   -0.032234
     85          1           0        5.288049    3.129801    0.375248
     86          1           0       -5.042716   -2.246691   -0.820676
     87          1           0        4.623416    0.094520   -0.262732
     88          1           0       -3.920084    0.561384    0.149606
     89          1           0        3.263533    3.749449    1.276048
     90          1           0        1.731548    3.343049    0.567257
     91          1           0        3.080664    3.638919   -0.409233
     92          1           0       -2.701992   -2.831448    0.225576
     93          1           0       -3.003314   -2.421900   -1.475290
     94          1           0       -1.307984   -2.554630   -0.937005
     95          1           0        2.278607   -0.440670   -0.145351
     96          1           0       -2.080398    1.112435   -0.018247
     97          1           0        0.254963    1.882552    0.192029
     98          1           0        0.073409   -1.051819   -0.300626
 ---------------------------------------------------------------------

 SCF Done:  E(RCAM-B3LYP) =  -1706.90241185     A.U. after   16 cycles

 Excitation energies and oscillator strengths:

 Excited State   1:      Singlet-A      1.8424 eV  672.94 nm  f=3.7724  <S**2>=0.000
     155 ->158        -0.12597
     156 ->157         0.70284
     156 <-157        -0.13172
 This state for optimization and/or second-order correction.
 Total Energy, E(TD-HF/TD-DFT) =  -1706.83470377
 Copying the excited state density for this state as the 1-particle RhoCI density.

 The electronic state is 1-A.
 Alpha  occ. eigenvalues --  -19.21786 -19.21259 -10.31231 -10.30605 -10.28896
 Alpha  occ. eigenvalues --  -10.28501 -10.28399 -10.28328 -10.28086 -10.27406
 Alpha  occ. eigenvalues --  -10.27331 -10.27154 -10.27093 -10.26959 -10.26956
 Alpha  occ. eigenvalues --  -10.26866 -10.26777 -10.26771 -10.26610 -10.26476
 Alpha  occ. eigenvalues --  -10.26474 -10.26350 -10.26311 -10.26309 -10.26217
 Alpha  occ. eigenvalues --  -10.26204 -10.26141 -10.26058 -10.25800 -10.25725
 Alpha  occ. eigenvalues --  -10.25645 -10.25627 -10.25617 -10.25439 -10.25397
 Alpha  occ. eigenvalues --  -10.25186 -10.25161 -10.25105 -10.25099 -10.24949
 Alpha  occ. eigenvalues --  -10.24927 -10.24321  -1.11970  -1.09751  -0.93588
 Alpha  occ. eigenvalues --   -0.93313  -0.92602  -0.91611  -0.90723  -0.89685
 Alpha  occ. eigenvalues --   -0.88546  -0.86710  -0.86424  -0.86096  -0.85467
 Alpha  occ. eigenvalues --   -0.83705  -0.82875  -0.80518  -0.79777  -0.78958
 Alpha  occ. eigenvalues --   -0.76732  -0.76410  -0.76383  -0.75877  -0.75390
 Alpha  occ. eigenvalues --   -0.75117  -0.74650  -0.74601  -0.72942  -0.70774
 Alpha  occ. eigenvalues --   -0.69260  -0.67673  -0.65997  -0.64720  -0.64134
 Alpha  occ. eigenvalues --   -0.64055  -0.63529  -0.62052  -0.60644  -0.60259
 Alpha  occ. eigenvalues --   -0.60115  -0.58890  -0.58847  -0.57595  -0.56411
 Alpha  occ. eigenvalues --   -0.56202  -0.55902  -0.55043  -0.54977  -0.53959
 Alpha  occ. eigenvalues --   -0.53291  -0.52944  -0.52105  -0.51522  -0.51094
 Alpha  occ. eigenvalues --   -0.50962  -0.50058  -0.49777  -0.49523  -0.49500
 Alpha  occ. eigenvalues --   -0.49064  -0.48928  -0.48484  -0.48188  -0.48071
 Alpha  occ. eigenvalues --   -0.47545  -0.47494  -0.47342  -0.46820  -0.46334
 Alpha  occ. eigenvalues --   -0.46168  -0.45845  -0.45753  -0.44955  -0.44707
 Alpha  occ. eigenvalues --   -0.44417  -0.44340  -0.44300  -0.43857  -0.43301
 Alpha  occ. eigenvalues --   -0.43242  -0.42162  -0.42002  -0.41748  -0.41562
 Alpha  occ. eigenvalues --   -0.41430  -0.41351  -0.41162  -0.40427  -0.40186
 Alpha  occ. eigenvalues --   -0.40085  -0.39829  -0.39558  -0.39228  -0.38984
 Alpha  occ. eigenvalues --   -0.38825  -0.38660  -0.38604  -0.38210  -0.37675
 Alpha  occ. eigenvalues --   -0.37639  -0.37469  -0.37337  -0.36631  -0.35984
 Alpha  occ. eigenvalues --   -0.35237  -0.34346  -0.33960  -0.33014  -0.32663
 Alpha  occ. eigenvalues --   -0.31465  -0.29667  -0.27914  -0.25586  -0.23151
 Alpha  occ. eigenvalues --   -0.18116
 Alpha virt. eigenvalues --   -0.07267  -0.01353   0.01783   0.05027   0.07423
 Alpha virt. eigenvalues --    0.10188   0.11203   0.11451   0.11886   0.12292
 Alpha virt. eigenvalues --    0.12509   0.12806   0.12859   0.13137   0.13689

 Mulliken charges:
               1
     1  O   -0.558372
     2  O   -0.529848
     3  C   -0.007339
     4  C   -0.034462
     5  C   -0.192910
     6  C   -0.210305
     7  C    0.185035
     8  C    0.208231
     9  C    0.078957
    10  C    0.046671
    11  C   -0.226541
    12  C   -0.226517
    13  C    0.036014
    14  C    0.083022
    15  C   -0.302416
    16  C   -0.287450
    17  C   -0.274674
    18  C   -0.291536
    19  C   -0.118381
    20  C   -0.107294
    21  C   -0.372736
    22  C   -0.395021
    23  C   -0.089980
    24  C   -0.099550
    25  C    0.082536
    26  C    0.071266
    27  C   -0.368524
    28  C   -0.386124
    29  C   -0.129484
    30  C   -0.112569
    31  C   -0.057955
    32  C   -0.056174
    33  C   -0.108190
    34  C   -0.147258
    35  C    0.105622
    36  C    0.088360
    37  C   -0.395936
    38  C   -0.361254
    39  C   -0.140357
    40  C   -0.120779
    41  C   -0.039839
    42  C   -0.060991
    43  H    0.117626
    44  H    0.069822
    45  H    0.069061
    46  H    0.086803
    47  H    0.082140
    48  H    0.052777
    49  H    0.122653
    50  H    0.062901
    51  H    0.129732
    52  H    0.086229
    53  H    0.089745
    54  H    0.095209
    55  H    0.124455
    56  H    0.115976
    57  H    0.100149
    58  H    0.072896
    59  H    0.113773
    60  H    0.099358
    61  H    0.061475
    62  H    0.117748
    63  H    0.107041
    64  H    0.088034
    65  H    0.064338
    66  H    0.086948
    67  H    0.139796
    68  H    0.135403
    69  H    0.118144
    70  H    0.091445
    71  H    0.132716
    72  H    0.102319
    73  H    0.303995
    74  H    0.303165
    75  H    0.068277
    76  H    0.106855
    77  H    0.109776
    78  H    0.102523
    79  H    0.084316
    80  H    0.118178
    81  H    0.138570
    82  H    0.078053
    83  H    0.067532
    84  H    0.051028
    85  H    0.092910
    86  H    0.075878
    87  H    0.086411
    88  H    0.080481
    89  H    0.100193
    90  H    0.110407
    91  H    0.130518
    92  H    0.133159
    93  H    0.132177
    94  H    0.102819
    95  H    0.083656
    96  H    0.066906
    97  H    0.081066
    98  H    0.079493
 Sum of Mulliken charges =  -0.00000

 Dipole moment (field-independent basis, Debye):
    X=              0.5772    Y=             -2.2813    Z=              0.5356  Tot=              2.4134
 Quadrupole moment (field-independent basis, Debye-Ang):
   XX=           -261.2167   YY=           -242.6427   ZZ=           -263.5209
   XY=             15.8888   XZ=             -8.5508   YZ=              0.5052

 Normal termination of Gaussian 16 at Thu Jul 11 17:35:31 2019.
