 Gaussian 16, Revision A.03,
 Gaussian 16:  ES64L-G16RevA.03 25-Dec-2016

 -------------------------------------
 # td=(NStates=1) CAM-B3LYP/6-31G(d,p)
 -------------------------------------

 --
 TD
 --
 Symbolic Z-matrix:
 Charge =  0 Multiplicity = 1

                         Standard orientation:
 ---------------------------------------------------------------------
 Center     Atomic      Atomic             Coordinates (Angstroms)
 Number     Number       Type             X           Y           Z
 ---------------------------------------------------------------------
      1          8           0       14.743450   -2.262229   -0.336266
      2          8           0      -14.708095    1.933149    0.772714
      3          6           0       11.291897   -1.462208    0.960836
      4          6           0      -12.376590   -1.018597    0.579372
      5          6           0       12.794259   -1.725492    1.003906
      6          6           0      -13.731510   -0.200705    0.632573
      7          6           0       13.341585   -1.779477   -0.426942
      8          6           0      -13.422119    1.311921    0.703365
      9          6           0       10.990236   -0.207005   -0.068489
     10          6           0      -11.290150   -0.285993   -0.286565
     11          6           0       13.366236   -0.457802   -1.040239
     12          6           0      -12.654145    1.679178   -0.465271
     13          6           0       11.965708    0.155505   -0.994667
     14          6           0      -11.340976    1.023369   -0.693435
     15          6           0       10.797096   -1.075682    2.340280
     16          6           0       10.440721   -2.604374    0.485744
     17          6           0      -11.870701   -1.147249    2.022519
     18          6           0      -12.650844   -2.394688    0.006917
     19          6           0        9.627593    0.317063    0.054350
     20          6           0      -10.030228   -0.994596   -0.486135
     21          6           0       11.457570    1.194934   -2.043423
     22          6           0      -10.330919    1.749853   -1.523890
     23          6           0        9.286701    1.648543    0.039065
     24          6           0       -8.768262   -0.629769   -0.204648
     25          6           0        7.931894    2.233504    0.234826
     26          6           0       -7.527840   -1.211723   -0.496023
     27          6           0        7.876264    3.726751    0.633159
     28          6           0       -7.635671   -2.586621   -1.032295
     29          6           0        6.767566    1.496018    0.115202
     30          6           0       -6.436439   -0.608977   -0.273007
     31          6           0        5.546954    2.025464    0.269432
     32          6           0       -5.078656   -1.081830   -0.496434
     33          6           0        4.420918    1.252025    0.130756
     34          6           0       -3.948339   -0.378361   -0.254772
     35          6           0        3.051498    1.674008    0.241673
     36          6           0       -2.659805   -0.822920   -0.283113
     37          6           0        2.814397    3.192570    0.312899
     38          6           0       -2.405410   -2.216120   -0.806123
     39          6           0        2.030273    0.692984    0.044760
     40          6           0       -1.652491    0.105227   -0.028526
     41          6           0        0.599886    0.943676    0.195441
     42          6           0       -0.263628   -0.005791   -0.075101
     43          1           0       13.343672   -1.002773    1.691035
     44          1           0       12.935932   -2.718052    1.417969
     45          1           0      -14.476933   -0.519905    1.561382
     46          1           0      -14.097424   -0.452723   -0.323554
     47          1           0       12.892215   -2.536768   -1.179726
     48          1           0      -12.840495    1.351727    1.653029
     49          1           0       13.982563    0.077940   -0.287462
     50          1           0       13.740931   -0.221803   -2.118229
     51          1           0      -13.225166    1.667085   -1.393139
     52          1           0      -12.530258    2.883198   -0.345705
     53          1           0       10.854362   -1.974041    2.906571
     54          1           0        9.761709   -0.996556    2.322345
     55          1           0       11.406235   -0.483417    2.738642
     56          1           0       10.456142   -2.822955   -0.652749
     57          1           0       10.533186   -3.593114    1.168507
     58          1           0        9.307778   -2.333902    0.540562
     59          1           0      -11.635893   -0.139409    2.389712
     60          1           0      -10.720249   -1.698141    2.040614
     61          1           0      -12.651727   -1.450383    2.623954
     62          1           0      -13.381610   -2.754521    0.650093
     63          1           0      -11.747897   -3.030022    0.101997
     64          1           0      -13.118739   -2.547940   -1.142098
     65          1           0        8.842321   -0.432720    0.377903
     66          1           0      -10.251708   -2.031055   -0.709292
     67          1           0       10.391851    0.936803   -2.434273
     68          1           0       11.548035    2.318208   -1.782242
     69          1           0       12.295037    1.256491   -2.933673
     70          1           0      -10.902346    2.376607   -2.129665
     71          1           0       -9.714573    1.190687   -2.222228
     72          1           0       -9.478368    2.312922   -0.788730
     73          1           0       14.688271   -3.250827   -0.085006
     74          1           0      -15.087898    1.501402    1.434713
     75          1           0       10.063982    2.281423   -0.179103
     76          1           0       -8.718261    0.453478   -0.058758
     77          1           0        8.858463    4.104392    0.820329
     78          1           0        7.505315    4.544856   -0.125978
     79          1           0        7.259609    3.658903    1.495904
     80          1           0       -7.887024   -3.387310   -0.315333
     81          1           0       -8.222930   -2.817975   -1.823885
     82          1           0       -6.709586   -2.872801   -1.372259
     83          1           0        6.907092    0.368385    0.049030
     84          1           0       -6.664048    0.325465    0.313835
     85          1           0        5.577593    3.080755    0.627270
     86          1           0       -4.770519   -2.143874   -0.681661
     87          1           0        4.306440    0.084698   -0.324468
     88          1           0       -4.111705    0.673333    0.013821
     89          1           0        3.193501    3.241578    1.324667
     90          1           0        1.895451    3.561810    0.523710
     91          1           0        3.447752    3.681630   -0.423864
     92          1           0       -2.881203   -2.956715   -0.433487
     93          1           0       -2.485001   -2.411729   -1.778426
     94          1           0       -1.231852   -2.463554   -0.699773
     95          1           0        2.623068   -0.311198   -0.143798
     96          1           0       -2.017012    0.976730    0.273071
     97          1           0        0.413178    1.939370    0.627811
     98          1           0        0.298743   -1.020754   -0.459361
 ---------------------------------------------------------------------

 SCF Done:  E(RCAM-B3LYP) =  -1706.92683194     A.U. after   14 cycles

 Excitation energies and oscillator strengths:

 Excited State   1:      Singlet-A      2.3975 eV  517.13 nm  f=3.6419  <S**2>=0.000
     155 ->158        -0.16812
     156 ->157         0.68326
 This state for optimization and/or second-order correction.
 Total Energy, E(TD-HF/TD-DFT) =  -1706.83872417
 Copying the excited state density for this state as the 1-particle RhoCI density.

 The electronic state is 1-A.
 Alpha  occ. eigenvalues --  -19.20469 -19.20466 -10.31069 -10.30463 -10.27984
 Alpha  occ. eigenvalues --  -10.27875 -10.27772 -10.27676 -10.27478 -10.27455
 Alpha  occ. eigenvalues --  -10.27434 -10.27297 -10.27165 -10.26954 -10.26908
 Alpha  occ. eigenvalues --  -10.26828 -10.26676 -10.26599 -10.26416 -10.26336
 Alpha  occ. eigenvalues --  -10.26319 -10.26209 -10.26167 -10.26118 -10.26091
 Alpha  occ. eigenvalues --  -10.25974 -10.25907 -10.25879 -10.25795 -10.25650
 Alpha  occ. eigenvalues --  -10.25546 -10.25496 -10.25422 -10.25411 -10.25272
 Alpha  occ. eigenvalues --  -10.25227 -10.25217 -10.24908 -10.24731 -10.24119
 Alpha  occ. eigenvalues --  -10.22925 -10.21728  -1.11646  -1.06330  -0.94025
 Alpha  occ. eigenvalues --   -0.93120  -0.93078  -0.92183  -0.91795  -0.89967
 Alpha  occ. eigenvalues --   -0.87951  -0.87676  -0.87162  -0.85995  -0.85585
 Alpha  occ. eigenvalues --   -0.83133  -0.82401  -0.80503  -0.79845  -0.79605
 Alpha  occ. eigenvalues --   -0.78282  -0.77157  -0.77059  -0.76259  -0.76161
 Alpha  occ. eigenvalues --   -0.75794  -0.75139  -0.74630  -0.73774  -0.71040
 Alpha  occ. eigenvalues --   -0.68923  -0.67739  -0.65743  -0.64515  -0.64080
 Alpha  occ. eigenvalues --   -0.63209  -0.62365  -0.61804  -0.60499  -0.60075
 Alpha  occ. eigenvalues --   -0.59800  -0.59377  -0.58172  -0.57788  -0.56619
 Alpha  occ. eigenvalues --   -0.56043  -0.54928  -0.54852  -0.54437  -0.54162
 Alpha  occ. eigenvalues --   -0.53793  -0.53541  -0.52616  -0.52309  -0.51086
 Alpha  occ. eigenvalues --   -0.50770  -0.50379  -0.49839  -0.49595  -0.49440
 Alpha  occ. eigenvalues --   -0.49316  -0.48877  -0.48641  -0.48342  -0.47851
 Alpha  occ. eigenvalues --   -0.47635  -0.47518  -0.47065  -0.46713  -0.46451
 Alpha  occ. eigenvalues --   -0.46392  -0.46236  -0.45793  -0.45264  -0.45021
 Alpha  occ. eigenvalues --   -0.44895  -0.44416  -0.43915  -0.43700  -0.43407
 Alpha  occ. eigenvalues --   -0.43281  -0.43007  -0.42778  -0.42361  -0.42066
 Alpha  occ. eigenvalues --   -0.41666  -0.41244  -0.40972  -0.40783  -0.40660
 Alpha  occ. eigenvalues --   -0.40535  -0.40210  -0.40021  -0.39841  -0.39430
 Alpha  occ. eigenvalues --   -0.39285  -0.39070  -0.38892  -0.38596  -0.38317
 Alpha  occ. eigenvalues --   -0.38228  -0.37895  -0.37095  -0.36204  -0.36029
 Alpha  occ. eigenvalues --   -0.35740  -0.35488  -0.33649  -0.32325  -0.31741
 Alpha  occ. eigenvalues --   -0.31408  -0.30301  -0.28032  -0.26224  -0.23522
 Alpha  occ. eigenvalues --   -0.20015
 Alpha virt. eigenvalues --   -0.05249  -0.01023   0.02612   0.05126   0.07899
 Alpha virt. eigenvalues --    0.09617   0.10975   0.11381   0.11479   0.11994
 Alpha virt. eigenvalues --    0.12240   0.12714   0.13355   0.13365   0.13769

 Mulliken charges:
               1
     1  O   -0.585904
     2  O   -0.534837
     3  C   -0.011491
     4  C   -0.032267
     5  C   -0.187789
     6  C   -0.204255
     7  C    0.154866
     8  C    0.179589
     9  C    0.050862
    10  C    0.057843
    11  C   -0.189771
    12  C   -0.236917
    13  C    0.030209
    14  C    0.065482
    15  C   -0.262877
    16  C   -0.300282
    17  C   -0.283582
    18  C   -0.290144
    19  C   -0.118551
    20  C   -0.145186
    21  C   -0.358801
    22  C   -0.351429
    23  C   -0.090038
    24  C   -0.108156
    25  C    0.039390
    26  C    0.190898
    27  C   -0.374044
    28  C   -0.383358
    29  C   -0.067298
    30  C   -0.153882
    31  C   -0.105835
    32  C   -0.116725
    33  C   -0.120283
    34  C   -0.095411
    35  C    0.073011
    36  C    0.123104
    37  C   -0.351996
    38  C   -0.382969
    39  C   -0.140915
    40  C   -0.120002
    41  C   -0.071811
    42  C   -0.071638
    43  H    0.108936
    44  H    0.086812
    45  H    0.054491
    46  H    0.113534
    47  H    0.086725
    48  H    0.082033
    49  H    0.123592
    50  H    0.105399
    51  H    0.126856
    52  H    0.082497
    53  H    0.088175
    54  H    0.103851
    55  H    0.101079
    56  H    0.101529
    57  H    0.082895
    58  H    0.089624
    59  H    0.107644
    60  H    0.084512
    61  H    0.107525
    62  H    0.108298
    63  H    0.104280
    64  H    0.078717
    65  H    0.079085
    66  H    0.069643
    67  H    0.132120
    68  H    0.110373
    69  H    0.065102
    70  H    0.114978
    71  H    0.132052
    72  H    0.093408
    73  H    0.302191
    74  H    0.290503
    75  H    0.081809
    76  H    0.058083
    77  H    0.115804
    78  H    0.107085
    79  H    0.134466
    80  H    0.113740
    81  H    0.123127
    82  H    0.106492
    83  H    0.079196
    84  H    0.082983
    85  H    0.099504
    86  H    0.079055
    87  H    0.072638
    88  H    0.072422
    89  H    0.127067
    90  H    0.109723
    91  H    0.134303
    92  H    0.129815
    93  H    0.140087
    94  H    0.082613
    95  H    0.069724
    96  H    0.072067
    97  H    0.093230
    98  H    0.079701
 Sum of Mulliken charges =  -0.00000

 Dipole moment (field-independent basis, Debye):
    X=             -0.3505    Y=             -1.3944    Z=              1.2687  Tot=              1.9175
 Quadrupole moment (field-independent basis, Debye-Ang):
   XX=           -299.9800   YY=           -243.4544   ZZ=           -260.0847
   XY=             15.8624   XZ=             -0.5563   YZ=              2.8339

 Normal termination of Gaussian 16 at Sat Jul 13 08:33:45 2019.
