 Gaussian 16, Revision A.03,
 Gaussian 16:  ES64L-G16RevA.03 25-Dec-2016

 -------------------------------------
 # td=(NStates=1) CAM-B3LYP/6-31G(d,p)
 -------------------------------------

 --
 TD
 --
 Symbolic Z-matrix:
 Charge =  0 Multiplicity = 1

                         Standard orientation:
 ---------------------------------------------------------------------
 Center     Atomic      Atomic             Coordinates (Angstroms)
 Number     Number       Type             X           Y           Z
 ---------------------------------------------------------------------
      1          8           0       14.657508   -2.392665   -0.307675
      2          8           0      -14.865532    1.820989    0.787267
      3          6           0       11.103691   -1.522468    0.767633
      4          6           0      -12.337603   -1.083601    0.426596
      5          6           0       12.629732   -1.934961    0.871206
      6          6           0      -13.678639   -0.260875    0.566998
      7          6           0       13.343620   -1.994111   -0.393133
      8          6           0      -13.537588    1.223028    0.780755
      9          6           0       10.934290   -0.192771   -0.040137
     10          6           0      -11.354795   -0.364313   -0.299893
     11          6           0       13.256921   -0.598292   -0.986976
     12          6           0      -12.724788    1.827553   -0.319566
     13          6           0       11.982819    0.202722   -0.862139
     14          6           0      -11.514738    0.961894   -0.644992
     15          6           0       10.783463   -1.238683    2.290429
     16          6           0       10.306594   -2.756837    0.251716
     17          6           0      -11.833287   -1.285954    1.915378
     18          6           0      -12.679782   -2.433423   -0.169388
     19          6           0        9.672453    0.462480    0.187718
     20          6           0      -10.040507   -0.985363   -0.455072
     21          6           0       11.726826    1.353776   -1.738356
     22          6           0      -10.510384    1.705660   -1.554085
     23          6           0        9.273682    1.769705    0.078226
     24          6           0       -8.762900   -0.444214   -0.239859
     25          6           0        7.951808    2.364899    0.254465
     26          6           0       -7.546136   -1.182636   -0.441203
     27          6           0        7.944551    3.869250    0.445432
     28          6           0       -7.629405   -2.606545   -0.928037
     29          6           0        6.922170    1.533282    0.107627
     30          6           0       -6.403961   -0.569841   -0.123293
     31          6           0        5.639332    2.030157    0.274911
     32          6           0       -5.037846   -1.020951   -0.307603
     33          6           0        4.462580    1.301449    0.102191
     34          6           0       -3.944193   -0.308847   -0.229885
     35          6           0        3.117716    1.737992    0.147975
     36          6           0       -2.577015   -0.776388   -0.274679
     37          6           0        2.848569    3.121825    0.512886
     38          6           0       -2.328123   -2.143484   -0.642826
     39          6           0        2.111282    0.816932   -0.063588
     40          6           0       -1.529486    0.151388   -0.022878
     41          6           0        0.792802    1.002744    0.007307
     42          6           0       -0.156563    0.022855   -0.195632
     43          1           0       13.419433   -1.272784    1.536803
     44          1           0       12.824350   -3.041032    1.218186
     45          1           0      -14.349659   -0.904410    1.287207
     46          1           0      -14.238624   -0.378655   -0.377525
     47          1           0       12.862369   -2.707871   -1.253052
     48          1           0      -13.008223    1.319300    1.868497
     49          1           0       14.189232    0.152674   -0.542083
     50          1           0       13.542118   -0.639386   -1.975895
     51          1           0      -13.300697    1.789683   -1.174794
     52          1           0      -12.471939    2.816844   -0.299352
     53          1           0       11.054297   -2.089339    2.873063
     54          1           0        9.759241   -1.010775    2.622119
     55          1           0       11.396707   -0.610472    2.646824
     56          1           0       10.559092   -3.140209   -0.745912
     57          1           0       10.153579   -3.348944    1.098379
     58          1           0        9.421289   -2.221826   -0.123829
     59          1           0      -11.511777   -0.490304    2.473067
     60          1           0      -10.873123   -1.807074    1.737574
     61          1           0      -12.579915   -1.818742    2.376826
     62          1           0      -13.733575   -2.925940   -0.003711
     63          1           0      -11.920557   -3.181036   -0.134068
     64          1           0      -12.698211   -2.307734   -1.359588
     65          1           0        9.021998   -0.232460    0.459175
     66          1           0      -10.116206   -1.910534   -0.539979
     67          1           0       10.732843    1.629344   -1.890251
     68          1           0       12.275636    2.277472   -1.561772
     69          1           0       12.125291    1.199771   -2.624990
     70          1           0      -11.163745    2.466977   -2.183935
     71          1           0       -9.905202    0.874546   -2.206097
     72          1           0       -9.857599    2.426207   -1.124876
     73          1           0       14.569787   -3.386641   -0.358659
     74          1           0      -15.282693    1.772828    1.668423
     75          1           0       10.037458    2.641057   -0.235868
     76          1           0       -8.827637    0.644439    0.171938
     77          1           0        8.854784    4.207949    0.519466
     78          1           0        7.398035    4.238327   -0.312605
     79          1           0        7.346347    4.193502    1.403152
     80          1           0       -8.190672   -3.232228   -0.255586
     81          1           0       -8.094376   -2.547238   -1.924950
     82          1           0       -6.579053   -3.136364   -0.917529
     83          1           0        6.919041    0.282061    0.156587
     84          1           0       -6.386319    0.635396    0.093495
     85          1           0        5.262064    3.010203    0.642218
     86          1           0       -4.690861   -2.146347   -0.509398
     87          1           0        4.748946    0.293998    0.097481
     88          1           0       -4.130347    0.605695    0.081770
     89          1           0        3.080024    3.504008    1.593358
     90          1           0        1.932430    3.249049    0.133991
     91          1           0        3.476317    3.981185   -0.062915
     92          1           0       -2.511866   -2.895317    0.115411
     93          1           0       -2.876631   -2.350878   -1.447822
     94          1           0       -1.210375   -2.190458   -0.728286
     95          1           0        2.476810   -0.275865   -0.215665
     96          1           0       -1.777189    1.129167    0.175645
     97          1           0        0.234951    1.906785    0.307890
     98          1           0        0.213817   -1.004388   -0.441669
 ---------------------------------------------------------------------

 SCF Done:  E(RCAM-B3LYP) =  -1706.91577719     A.U. after   15 cycles

 Excitation energies and oscillator strengths:

 Excited State   1:      Singlet-A      2.2208 eV  558.30 nm  f=3.7822  <S**2>=0.000
     155 ->158         0.15422
     156 ->157         0.68798
 This state for optimization and/or second-order correction.
 Total Energy, E(TD-HF/TD-DFT) =  -1706.83416587
 Copying the excited state density for this state as the 1-particle RhoCI density.

 The electronic state is 1-A.
 Alpha  occ. eigenvalues --  -19.22034 -19.20945 -10.31735 -10.30744 -10.28191
 Alpha  occ. eigenvalues --  -10.27575 -10.27481 -10.27391 -10.27144 -10.26957
 Alpha  occ. eigenvalues --  -10.26920 -10.26906 -10.26894 -10.26880 -10.26787
 Alpha  occ. eigenvalues --  -10.26513 -10.26501 -10.26459 -10.26399 -10.26287
 Alpha  occ. eigenvalues --  -10.26225 -10.26112 -10.26019 -10.25914 -10.25849
 Alpha  occ. eigenvalues --  -10.25788 -10.25753 -10.25538 -10.25288 -10.25205
 Alpha  occ. eigenvalues --  -10.25026 -10.24958 -10.24702 -10.24669 -10.24502
 Alpha  occ. eigenvalues --  -10.24500 -10.24265 -10.24226 -10.24131 -10.22943
 Alpha  occ. eigenvalues --  -10.22586 -10.22477  -1.11341  -1.07892  -0.94309
 Alpha  occ. eigenvalues --   -0.93116  -0.92888  -0.92261  -0.91238  -0.90612
 Alpha  occ. eigenvalues --   -0.87947  -0.87140  -0.86869  -0.85788  -0.85223
 Alpha  occ. eigenvalues --   -0.83928  -0.82898  -0.81147  -0.79728  -0.79480
 Alpha  occ. eigenvalues --   -0.77570  -0.77475  -0.76933  -0.76557  -0.76335
 Alpha  occ. eigenvalues --   -0.75885  -0.75319  -0.75165  -0.73843  -0.71136
 Alpha  occ. eigenvalues --   -0.69496  -0.67666  -0.65796  -0.64896  -0.64589
 Alpha  occ. eigenvalues --   -0.63930  -0.62719  -0.62045  -0.60530  -0.60115
 Alpha  occ. eigenvalues --   -0.60086  -0.58567  -0.58510  -0.58118  -0.56559
 Alpha  occ. eigenvalues --   -0.56153  -0.55197  -0.55068  -0.54968  -0.54119
 Alpha  occ. eigenvalues --   -0.53529  -0.52848  -0.52171  -0.51837  -0.51691
 Alpha  occ. eigenvalues --   -0.51130  -0.50936  -0.50491  -0.50020  -0.49528
 Alpha  occ. eigenvalues --   -0.49202  -0.48896  -0.48788  -0.48624  -0.48235
 Alpha  occ. eigenvalues --   -0.47870  -0.47574  -0.47438  -0.46913  -0.46844
 Alpha  occ. eigenvalues --   -0.46633  -0.45983  -0.45583  -0.45382  -0.44715
 Alpha  occ. eigenvalues --   -0.44520  -0.44426  -0.44055  -0.43470  -0.43344
 Alpha  occ. eigenvalues --   -0.43120  -0.42904  -0.42887  -0.42615  -0.42010
 Alpha  occ. eigenvalues --   -0.41856  -0.41536  -0.41120  -0.40727  -0.40721
 Alpha  occ. eigenvalues --   -0.40403  -0.40246  -0.40190  -0.39976  -0.39910
 Alpha  occ. eigenvalues --   -0.39383  -0.38826  -0.38362  -0.38135  -0.37980
 Alpha  occ. eigenvalues --   -0.37813  -0.36867  -0.36801  -0.36532  -0.35520
 Alpha  occ. eigenvalues --   -0.35276  -0.34856  -0.34282  -0.32654  -0.32099
 Alpha  occ. eigenvalues --   -0.31984  -0.30036  -0.28113  -0.25269  -0.23293
 Alpha  occ. eigenvalues --   -0.19281
 Alpha virt. eigenvalues --   -0.05693  -0.00985   0.01726   0.05814   0.08176
 Alpha virt. eigenvalues --    0.10097   0.10189   0.11129   0.12050   0.12337
 Alpha virt. eigenvalues --    0.12527   0.13185   0.13531   0.14112   0.14346

 Mulliken charges:
               1
     1  O   -0.536582
     2  O   -0.570396
     3  C   -0.041917
     4  C   -0.033252
     5  C   -0.150887
     6  C   -0.180440
     7  C    0.156065
     8  C    0.161624
     9  C    0.036359
    10  C    0.100640
    11  C   -0.215735
    12  C   -0.205434
    13  C    0.077605
    14  C    0.020825
    15  C   -0.304500
    16  C   -0.299782
    17  C   -0.285879
    18  C   -0.325105
    19  C   -0.061186
    20  C   -0.118557
    21  C   -0.374472
    22  C   -0.361760
    23  C   -0.134574
    24  C   -0.091237
    25  C    0.083922
    26  C    0.125202
    27  C   -0.342981
    28  C   -0.366218
    29  C   -0.120832
    30  C   -0.147903
    31  C   -0.077941
    32  C   -0.078282
    33  C   -0.127276
    34  C   -0.073923
    35  C    0.122782
    36  C    0.096568
    37  C   -0.376065
    38  C   -0.380982
    39  C   -0.118646
    40  C   -0.121998
    41  C   -0.082136
    42  C   -0.082142
    43  H    0.089368
    44  H    0.052428
    45  H    0.071440
    46  H    0.098218
    47  H    0.042246
    48  H    0.057905
    49  H    0.077124
    50  H    0.110102
    51  H    0.138175
    52  H    0.115697
    53  H    0.094350
    54  H    0.095181
    55  H    0.120911
    56  H    0.109886
    57  H    0.119742
    58  H    0.097193
    59  H    0.109920
    60  H    0.091921
    61  H    0.102779
    62  H    0.101243
    63  H    0.112776
    64  H    0.087601
    65  H    0.070823
    66  H    0.047371
    67  H    0.129709
    68  H    0.105519
    69  H    0.109137
    70  H    0.078219
    71  H    0.113263
    72  H    0.121879
    73  H    0.314318
    74  H    0.309776
    75  H    0.071172
    76  H    0.092085
    77  H    0.117711
    78  H    0.142441
    79  H    0.107789
    80  H    0.128575
    81  H    0.129726
    82  H    0.103817
    83  H    0.088342
    84  H    0.074154
    85  H    0.070032
    86  H    0.058433
    87  H    0.055639
    88  H    0.057739
    89  H    0.121818
    90  H    0.121443
    91  H    0.092405
    92  H    0.127382
    93  H    0.134712
    94  H    0.103011
    95  H    0.086595
    96  H    0.069361
    97  H    0.086997
    98  H    0.069830
 Sum of Mulliken charges =  -0.00000

 Dipole moment (field-independent basis, Debye):
    X=             -0.5129    Y=             -1.2334    Z=              0.8848  Tot=              1.6022
 Quadrupole moment (field-independent basis, Debye-Ang):
   XX=           -283.0663   YY=           -236.4718   ZZ=           -261.0407
   XY=              2.3121   XZ=            -21.7189   YZ=              4.9804

 Normal termination of Gaussian 16 at Mon Jul  8 22:12:14 2019.
