 Gaussian 16, Revision A.03,
 Gaussian 16:  ES64L-G16RevA.03 25-Dec-2016

 -------------------------------------
 # td=(NStates=1) CAM-B3LYP/6-31G(d,p)
 -------------------------------------

 --
 TD
 --
 Symbolic Z-matrix:
 Charge =  0 Multiplicity = 1

                         Standard orientation:
 ---------------------------------------------------------------------
 Center     Atomic      Atomic             Coordinates (Angstroms)
 Number     Number       Type             X           Y           Z
 ---------------------------------------------------------------------
      1          8           0       14.826918   -2.115549   -0.178630
      2          8           0      -14.613100    2.037681    1.234432
      3          6           0       11.166929   -1.506690    1.107366
      4          6           0      -12.547937   -1.033033    0.634681
      5          6           0       12.756647   -1.883334    1.184428
      6          6           0      -13.749979   -0.154539    0.689553
      7          6           0       13.474760   -1.885791   -0.238851
      8          6           0      -13.404035    1.271704    1.152510
      9          6           0       10.987525   -0.290424    0.121744
     10          6           0      -11.414154   -0.287655   -0.144703
     11          6           0       13.367835   -0.453457   -0.814856
     12          6           0      -12.633930    1.835339    0.025043
     13          6           0       11.907439    0.129906   -0.838589
     14          6           0      -11.527390    1.011006   -0.475456
     15          6           0       10.861242   -1.003128    2.502398
     16          6           0       10.387030   -2.633438    0.622049
     17          6           0      -12.002971   -1.564170    2.064311
     18          6           0      -12.815280   -2.261659   -0.308166
     19          6           0        9.591938    0.308740    0.141147
     20          6           0      -10.164965   -1.117383   -0.441632
     21          6           0       11.726052    1.219082   -1.886938
     22          6           0      -10.610834    1.694886   -1.363341
     23          6           0        9.417234    1.603130    0.069094
     24          6           0       -8.919250   -0.569135   -0.468619
     25          6           0        8.120814    2.275072    0.033315
     26          6           0       -7.652596   -1.202427   -0.669620
     27          6           0        7.913094    3.636967    0.578756
     28          6           0       -7.663242   -2.609402   -1.050795
     29          6           0        6.896106    1.609263   -0.151396
     30          6           0       -6.414152   -0.611790   -0.469925
     31          6           0        5.548005    1.923640    0.073233
     32          6           0       -5.139690   -1.047030   -0.650352
     33          6           0        4.424366    1.208489   -0.151599
     34          6           0       -3.997570   -0.289198   -0.388965
     35          6           0        3.147975    1.648406    0.017367
     36          6           0       -2.564226   -0.711910   -0.665432
     37          6           0        2.848307    3.040475    0.459397
     38          6           0       -2.327750   -2.142696   -1.038987
     39          6           0        2.129945    0.631073   -0.333441
     40          6           0       -1.566341    0.240110   -0.417382
     41          6           0        0.769510    0.954154   -0.242024
     42          6           0       -0.185055   -0.039498   -0.489691
     43          1           0       13.334207   -0.978668    1.755572
     44          1           0       12.923367   -2.836848    1.544080
     45          1           0      -14.520487   -0.566134    1.226502
     46          1           0      -14.271845    0.046217   -0.216988
     47          1           0       13.039283   -2.574581   -0.979660
     48          1           0      -12.741873    1.117929    2.256861
     49          1           0       14.056945    0.179618   -0.139948
     50          1           0       13.739373   -0.295013   -1.919447
     51          1           0      -13.450561    2.342527   -0.715791
     52          1           0      -12.126168    2.867642    0.605295
     53          1           0       11.200000   -1.995362    3.182383
     54          1           0        9.867173   -0.696865    2.677912
     55          1           0       11.449530   -0.180801    2.867106
     56          1           0       10.564680   -2.992762   -0.420145
     57          1           0       10.816564   -3.466264    1.331807
     58          1           0        9.370997   -2.585015    0.910839
     59          1           0      -11.710116   -0.712819    2.650982
     60          1           0      -11.062490   -2.237510    2.081070
     61          1           0      -12.906699   -2.000661    2.538158
     62          1           0      -13.789821   -2.658475    0.282994
     63          1           0      -12.059785   -3.065408   -0.245449
     64          1           0      -12.885910   -1.967712   -1.191329
     65          1           0        8.756387   -0.522564    0.180454
     66          1           0      -10.191627   -2.098851   -0.788162
     67          1           0       10.632309    1.239034   -2.119488
     68          1           0       11.853126    2.316053   -1.500869
     69          1           0       12.060456    1.070970   -2.689269
     70          1           0      -11.088474    2.504346   -2.080446
     71          1           0       -9.720927    1.190248   -1.751425
     72          1           0       -9.856292    2.250864   -0.586197
     73          1           0       15.096732   -2.902901    0.466253
     74          1           0      -15.173807    1.778019    1.968163
     75          1           0       10.406081    2.262554    0.232136
     76          1           0       -8.607666    0.388420   -0.008987
     77          1           0        8.940509    4.250617    0.633381
     78          1           0        7.170097    4.350497   -0.086675
     79          1           0        7.668413    3.774891    1.662076
     80          1           0       -8.009638   -3.277199   -0.170517
     81          1           0       -8.686791   -2.731278   -1.699661
     82          1           0       -6.807552   -3.001751   -1.409699
     83          1           0        6.956616    0.611382   -0.687390
     84          1           0       -6.598939    0.291346   -0.137043
     85          1           0        5.625000    2.851804    0.528414
     86          1           0       -5.014306   -2.046343   -0.903207
     87          1           0        4.597406    0.153819   -0.631814
     88          1           0       -4.061575    0.737162   -0.165380
     89          1           0        3.464274    3.313403    1.387095
     90          1           0        1.817196    3.195021    0.511638
     91          1           0        3.239706    3.867132   -0.452607
     92          1           0       -2.954126   -2.756653   -0.221547
     93          1           0       -2.587786   -2.453717   -2.145131
     94          1           0       -1.328089   -2.284622   -0.644361
     95          1           0        2.599975   -0.333440   -0.910147
     96          1           0       -1.749275    1.192326   -0.214465
     97          1           0        0.301996    1.976350    0.280441
     98          1           0       -0.144773   -0.938954   -1.028573
 ---------------------------------------------------------------------

 SCF Done:  E(RCAM-B3LYP) =  -1706.84932042     A.U. after   15 cycles

 Excitation energies and oscillator strengths:

 Excited State   1:      Singlet-A      2.0538 eV  603.69 nm  f=3.7243  <S**2>=0.000
     155 ->158         0.14511
     156 ->157         0.69378
 This state for optimization and/or second-order correction.
 Total Energy, E(TD-HF/TD-DFT) =  -1706.77384516
 Copying the excited state density for this state as the 1-particle RhoCI density.

 The electronic state is 1-A.
 Alpha  occ. eigenvalues --  -19.21694 -19.21523 -10.31987 -10.30216 -10.28774
 Alpha  occ. eigenvalues --  -10.28722 -10.28296 -10.27936 -10.27880 -10.27771
 Alpha  occ. eigenvalues --  -10.27647 -10.27607 -10.27531 -10.27272 -10.27267
 Alpha  occ. eigenvalues --  -10.26944 -10.26781 -10.26758 -10.26541 -10.26456
 Alpha  occ. eigenvalues --  -10.26424 -10.26362 -10.26330 -10.26106 -10.26082
 Alpha  occ. eigenvalues --  -10.26070 -10.26054 -10.26017 -10.25868 -10.25867
 Alpha  occ. eigenvalues --  -10.25800 -10.25655 -10.25623 -10.25378 -10.25370
 Alpha  occ. eigenvalues --  -10.25364 -10.25312 -10.24922 -10.24362 -10.24146
 Alpha  occ. eigenvalues --  -10.23437 -10.23401  -1.09511  -1.09226  -0.93828
 Alpha  occ. eigenvalues --   -0.92559  -0.92361  -0.92055  -0.91020  -0.89745
 Alpha  occ. eigenvalues --   -0.87608  -0.86952  -0.86527  -0.85569  -0.84314
 Alpha  occ. eigenvalues --   -0.83269  -0.81690  -0.80120  -0.79842  -0.78490
 Alpha  occ. eigenvalues --   -0.76929  -0.76615  -0.76279  -0.76142  -0.75769
 Alpha  occ. eigenvalues --   -0.75636  -0.75067  -0.73953  -0.72952  -0.70691
 Alpha  occ. eigenvalues --   -0.68731  -0.67120  -0.65799  -0.64445  -0.63463
 Alpha  occ. eigenvalues --   -0.63244  -0.63195  -0.62469  -0.60829  -0.59986
 Alpha  occ. eigenvalues --   -0.59211  -0.58710  -0.57666  -0.57053  -0.56507
 Alpha  occ. eigenvalues --   -0.55945  -0.55848  -0.54729  -0.54509  -0.53859
 Alpha  occ. eigenvalues --   -0.52967  -0.52724  -0.52107  -0.51902  -0.51392
 Alpha  occ. eigenvalues --   -0.51128  -0.50015  -0.49776  -0.49728  -0.49430
 Alpha  occ. eigenvalues --   -0.49312  -0.48791  -0.48045  -0.47860  -0.47370
 Alpha  occ. eigenvalues --   -0.47253  -0.47076  -0.46758  -0.46598  -0.46149
 Alpha  occ. eigenvalues --   -0.45866  -0.45675  -0.45503  -0.45147  -0.44614
 Alpha  occ. eigenvalues --   -0.44459  -0.44261  -0.43792  -0.43463  -0.43275
 Alpha  occ. eigenvalues --   -0.42939  -0.42881  -0.42626  -0.42172  -0.41990
 Alpha  occ. eigenvalues --   -0.41551  -0.41418  -0.41313  -0.41131  -0.40878
 Alpha  occ. eigenvalues --   -0.40210  -0.39779  -0.39681  -0.39063  -0.38974
 Alpha  occ. eigenvalues --   -0.38522  -0.38369  -0.38147  -0.38000  -0.37661
 Alpha  occ. eigenvalues --   -0.37473  -0.37026  -0.36982  -0.36013  -0.35564
 Alpha  occ. eigenvalues --   -0.34843  -0.34021  -0.33629  -0.32314  -0.31578
 Alpha  occ. eigenvalues --   -0.31384  -0.29046  -0.27729  -0.26282  -0.23392
 Alpha  occ. eigenvalues --   -0.19156
 Alpha virt. eigenvalues --   -0.06558  -0.01640   0.02275   0.05589   0.07290
 Alpha virt. eigenvalues --    0.08828   0.10640   0.10894   0.11304   0.11487
 Alpha virt. eigenvalues --    0.11760   0.12341   0.12588   0.13170   0.13262

 Mulliken charges:
               1
     1  O   -0.556387
     2  O   -0.563467
     3  C   -0.000873
     4  C   -0.017721
     5  C   -0.198176
     6  C   -0.184497
     7  C    0.185228
     8  C    0.174058
     9  C    0.021472
    10  C    0.037424
    11  C   -0.204756
    12  C   -0.218215
    13  C    0.024911
    14  C    0.110182
    15  C   -0.283249
    16  C   -0.294094
    17  C   -0.308081
    18  C   -0.274426
    19  C   -0.098024
    20  C   -0.114857
    21  C   -0.326320
    22  C   -0.363122
    23  C   -0.103348
    24  C   -0.106423
    25  C    0.092185
    26  C    0.105753
    27  C   -0.385340
    28  C   -0.376068
    29  C   -0.127000
    30  C   -0.083049
    31  C   -0.063252
    32  C   -0.073455
    33  C   -0.106087
    34  C   -0.105357
    35  C    0.125309
    36  C    0.064327
    37  C   -0.344255
    38  C   -0.372954
    39  C   -0.118865
    40  C   -0.087076
    41  C   -0.118431
    42  C   -0.075281
    43  H    0.087933
    44  H    0.082486
    45  H    0.076723
    46  H    0.110588
    47  H    0.070628
    48  H    0.046787
    49  H    0.106148
    50  H    0.083475
    51  H    0.119479
    52  H    0.072328
    53  H    0.059162
    54  H    0.111579
    55  H    0.118258
    56  H    0.120948
    57  H    0.078115
    58  H    0.115647
    59  H    0.109226
    60  H    0.106413
    61  H    0.096391
    62  H    0.071090
    63  H    0.100743
    64  H    0.116759
    65  H    0.092031
    66  H    0.084054
    67  H    0.114591
    68  H    0.103283
    69  H    0.102505
    70  H    0.102194
    71  H    0.130570
    72  H    0.084070
    73  H    0.304469
    74  H    0.308106
    75  H    0.092199
    76  H    0.080105
    77  H    0.081286
    78  H    0.102059
    79  H    0.128312
    80  H    0.109285
    81  H    0.085538
    82  H    0.112703
    83  H    0.051194
    84  H    0.047080
    85  H    0.067535
    86  H    0.075110
    87  H    0.074295
    88  H    0.079520
    89  H    0.124842
    90  H    0.113650
    91  H    0.090508
    92  H    0.109536
    93  H    0.127619
    94  H    0.121321
    95  H    0.099670
    96  H    0.066888
    97  H    0.094315
    98  H    0.090312
 Sum of Mulliken charges =  -0.00000

 Dipole moment (field-independent basis, Debye):
    X=             -0.5973    Y=             -1.7672    Z=              1.9097  Tot=              2.6696
 Quadrupole moment (field-independent basis, Debye-Ang):
   XX=           -274.8175   YY=           -248.3529   ZZ=           -260.6633
   XY=              2.0116   XZ=             -0.7630   YZ=              2.4380

 Normal termination of Gaussian 16 at Mon Jul 15 21:29:12 2019.
