 Gaussian 16, Revision A.03,
 Gaussian 16:  ES64L-G16RevA.03 25-Dec-2016

 -------------------------------------
 # td=(NStates=1) CAM-B3LYP/6-31G(d,p)
 -------------------------------------

 --
 TD
 --
 Symbolic Z-matrix:
 Charge =  0 Multiplicity = 1

                         Standard orientation:
 ---------------------------------------------------------------------
 Center     Atomic      Atomic             Coordinates (Angstroms)
 Number     Number       Type             X           Y           Z
 ---------------------------------------------------------------------
      1          8           0       14.685819   -2.200374   -0.226118
      2          8           0      -14.923964    1.823379    0.919775
      3          6           0       11.130308   -1.512515    1.001381
      4          6           0      -12.345910   -1.082720    0.619079
      5          6           0       12.599840   -1.865086    1.061197
      6          6           0      -13.673299   -0.331527    0.586110
      7          6           0       13.307002   -1.890339   -0.275838
      8          6           0      -13.635828    1.110836    0.869699
      9          6           0       10.843095   -0.220886    0.034760
     10          6           0      -11.370613   -0.310502   -0.084371
     11          6           0       13.210521   -0.514598   -0.910082
     12          6           0      -12.777190    1.874886   -0.170653
     13          6           0       11.805109    0.108246   -0.879049
     14          6           0      -11.468102    0.990954   -0.442183
     15          6           0       10.646096   -1.268727    2.345547
     16          6           0       10.331335   -2.685665    0.565389
     17          6           0      -11.947133   -1.243513    2.040297
     18          6           0      -12.543202   -2.403125   -0.157083
     19          6           0        9.554197    0.351682    0.120315
     20          6           0       -9.977333   -0.984847   -0.388942
     21          6           0       11.634305    1.159947   -1.876398
     22          6           0      -10.513528    1.851599   -1.247445
     23          6           0        9.369202    1.733436    0.089672
     24          6           0       -8.643631   -0.475804   -0.391082
     25          6           0        8.068380    2.268893    0.164999
     26          6           0       -7.514065   -1.236674   -0.534538
     27          6           0        7.867085    3.738633    0.584404
     28          6           0       -7.528512   -2.642525   -0.933386
     29          6           0        6.953302    1.494919   -0.147440
     30          6           0       -6.274259   -0.524154   -0.393882
     31          6           0        5.697184    2.028217    0.030258
     32          6           0       -4.969147   -1.156629   -0.626665
     33          6           0        4.578056    1.275909   -0.061558
     34          6           0       -3.883142   -0.278777   -0.489393
     35          6           0        3.249779    1.770406    0.131485
     36          6           0       -2.563465   -0.717953   -0.613100
     37          6           0        2.977105    3.083517    0.675902
     38          6           0       -2.366013   -2.198141   -0.981694
     39          6           0        2.077152    0.935747   -0.213242
     40          6           0       -1.525948    0.241400   -0.352884
     41          6           0        0.779305    1.062816   -0.009187
     42          6           0       -0.168549    0.023951   -0.301123
     43          1           0       13.219057   -1.117496    1.652958
     44          1           0       12.533635   -2.806261    1.592799
     45          1           0      -14.323707   -0.863398    1.290104
     46          1           0      -13.953513   -0.154466   -0.536668
     47          1           0       12.708925   -2.673013   -0.892596
     48          1           0      -13.177164    1.257640    1.851627
     49          1           0       14.040523    0.104851   -0.562213
     50          1           0       13.438818   -0.787881   -1.829185
     51          1           0      -13.447433    1.932209   -1.025568
     52          1           0      -12.264624    2.797510    0.110085
     53          1           0       10.997642   -1.855103    3.131995
     54          1           0        9.539166   -0.918568    2.416500
     55          1           0       10.931571   -0.453924    2.613646
     56          1           0       10.722569   -3.087483   -0.295435
     57          1           0       10.474123   -3.495408    1.143099
     58          1           0        9.176486   -2.614213    0.651913
     59          1           0      -11.775437   -0.377619    2.661921
     60          1           0      -10.954202   -1.802017    1.955762
     61          1           0      -12.555611   -1.893834    2.759573
     62          1           0      -13.353742   -2.865223    0.551461
     63          1           0      -11.605755   -3.000875   -0.579126
     64          1           0      -13.183854   -2.191358   -1.186189
     65          1           0        8.706295   -0.283769    0.256614
     66          1           0      -10.110008   -2.061438   -0.502347
     67          1           0       10.573868    1.494354   -2.001700
     68          1           0       12.299776    2.089174   -1.584985
     69          1           0       12.086109    0.741631   -2.668039
     70          1           0      -11.172712    2.454667   -2.029597
     71          1           0       -9.895898    1.252407   -1.808341
     72          1           0       -9.974036    2.474391   -0.456547
     73          1           0       14.718576   -2.975804    0.558289
     74          1           0      -15.502555    1.302196    1.368123
     75          1           0       10.183285    2.512676    0.028979
     76          1           0       -8.590447    0.424842    0.122536
     77          1           0        8.999979    4.191771    0.444787
     78          1           0        7.147726    4.289552   -0.051328
     79          1           0        7.561653    3.676077    1.729750
     80          1           0       -8.419903   -3.121635   -0.369552
     81          1           0       -8.059862   -2.683710   -1.952094
     82          1           0       -6.657229   -3.073176   -0.997399
     83          1           0        7.188410    0.439345   -0.515130
     84          1           0       -6.347543    0.578261   -0.149961
     85          1           0        5.724669    3.171456    0.104140
     86          1           0       -4.961860   -2.076045   -0.971321
     87          1           0        4.478761    0.420708   -0.566305
     88          1           0       -4.036051    0.691261   -0.384357
     89          1           0        3.745194    3.392400    1.592285
     90          1           0        1.916315    3.193895    0.952709
     91          1           0        3.106523    3.927077   -0.063388
     92          1           0       -3.122673   -2.927649   -0.451160
     93          1           0       -2.532021   -2.669244   -2.170766
     94          1           0       -1.214668   -2.471556   -0.545693
     95          1           0        2.161950   -0.132293   -0.692299
     96          1           0       -2.013627    1.279915   -0.022015
     97          1           0        0.317541    1.971996    0.434228
     98          1           0        0.475207   -0.979566   -0.299495
 ---------------------------------------------------------------------

 SCF Done:  E(RCAM-B3LYP) =  -1706.85186712     A.U. after   17 cycles

 Excitation energies and oscillator strengths:

 Excited State   1:      Singlet-A      1.6416 eV  755.29 nm  f=3.6166  <S**2>=0.000
     155 ->158         0.12323
     156 ->157         0.70663
     156 <-157        -0.14344
 This state for optimization and/or second-order correction.
 Total Energy, E(TD-HF/TD-DFT) =  -1706.79154120
 Copying the excited state density for this state as the 1-particle RhoCI density.

 The electronic state is 1-A.
 Alpha  occ. eigenvalues --  -19.22989 -19.20043 -10.30808 -10.29864 -10.29350
 Alpha  occ. eigenvalues --  -10.28548 -10.28051 -10.27921 -10.27865 -10.27571
 Alpha  occ. eigenvalues --  -10.27460 -10.27352 -10.27175 -10.26966 -10.26864
 Alpha  occ. eigenvalues --  -10.26799 -10.26722 -10.26659 -10.26599 -10.26580
 Alpha  occ. eigenvalues --  -10.26545 -10.26520 -10.26485 -10.26446 -10.26127
 Alpha  occ. eigenvalues --  -10.25995 -10.25918 -10.25776 -10.25686 -10.25670
 Alpha  occ. eigenvalues --  -10.25447 -10.25404 -10.25354 -10.25300 -10.25269
 Alpha  occ. eigenvalues --  -10.25181 -10.24975 -10.24803 -10.24624 -10.24335
 Alpha  occ. eigenvalues --  -10.23096 -10.21714  -1.08948  -1.08626  -0.94917
 Alpha  occ. eigenvalues --   -0.94382  -0.92496  -0.91776  -0.91021  -0.90041
 Alpha  occ. eigenvalues --   -0.89099  -0.87732  -0.86754  -0.85673  -0.84610
 Alpha  occ. eigenvalues --   -0.83480  -0.82138  -0.80788  -0.79635  -0.78807
 Alpha  occ. eigenvalues --   -0.77952  -0.77033  -0.76795  -0.76385  -0.76038
 Alpha  occ. eigenvalues --   -0.75988  -0.74835  -0.74500  -0.72482  -0.70547
 Alpha  occ. eigenvalues --   -0.68899  -0.67123  -0.65734  -0.65398  -0.64225
 Alpha  occ. eigenvalues --   -0.63868  -0.63266  -0.61834  -0.60560  -0.60130
 Alpha  occ. eigenvalues --   -0.59280  -0.58503  -0.58272  -0.57807  -0.56690
 Alpha  occ. eigenvalues --   -0.56570  -0.55845  -0.55557  -0.54717  -0.54196
 Alpha  occ. eigenvalues --   -0.53572  -0.52904  -0.52255  -0.51733  -0.51382
 Alpha  occ. eigenvalues --   -0.51085  -0.50523  -0.50243  -0.50063  -0.49861
 Alpha  occ. eigenvalues --   -0.49093  -0.48876  -0.48578  -0.48319  -0.48173
 Alpha  occ. eigenvalues --   -0.47415  -0.46840  -0.46718  -0.46482  -0.46299
 Alpha  occ. eigenvalues --   -0.45952  -0.45628  -0.45599  -0.45552  -0.45220
 Alpha  occ. eigenvalues --   -0.44723  -0.44541  -0.44289  -0.43873  -0.43822
 Alpha  occ. eigenvalues --   -0.43317  -0.42899  -0.42707  -0.42462  -0.41949
 Alpha  occ. eigenvalues --   -0.41659  -0.41500  -0.41295  -0.41140  -0.40934
 Alpha  occ. eigenvalues --   -0.40421  -0.40195  -0.39959  -0.39801  -0.39510
 Alpha  occ. eigenvalues --   -0.39225  -0.38985  -0.38559  -0.38300  -0.37784
 Alpha  occ. eigenvalues --   -0.37603  -0.37343  -0.36952  -0.36355  -0.36228
 Alpha  occ. eigenvalues --   -0.35015  -0.34414  -0.33835  -0.32334  -0.32090
 Alpha  occ. eigenvalues --   -0.31751  -0.29910  -0.28718  -0.25608  -0.22772
 Alpha  occ. eigenvalues --   -0.17393
 Alpha virt. eigenvalues --   -0.07525  -0.01484   0.01439   0.05841   0.08069
 Alpha virt. eigenvalues --    0.09384   0.09678   0.10373   0.11223   0.11504
 Alpha virt. eigenvalues --    0.11987   0.12217   0.12445   0.13106   0.13218

 Mulliken charges:
               1
     1  O   -0.563612
     2  O   -0.556501
     3  C   -0.020007
     4  C   -0.021883
     5  C   -0.212851
     6  C   -0.187132
     7  C    0.176515
     8  C    0.153751
     9  C    0.068160
    10  C    0.106559
    11  C   -0.214007
    12  C   -0.212028
    13  C    0.029992
    14  C   -0.012044
    15  C   -0.280787
    16  C   -0.289439
    17  C   -0.302222
    18  C   -0.289688
    19  C   -0.136639
    20  C   -0.158169
    21  C   -0.347970
    22  C   -0.346755
    23  C   -0.112111
    24  C   -0.107246
    25  C    0.070119
    26  C    0.123486
    27  C   -0.362099
    28  C   -0.359089
    29  C   -0.080558
    30  C   -0.139449
    31  C   -0.092162
    32  C   -0.077325
    33  C   -0.100539
    34  C   -0.089428
    35  C    0.107989
    36  C    0.127403
    37  C   -0.378857
    38  C   -0.349210
    39  C   -0.140171
    40  C   -0.138158
    41  C   -0.054583
    42  C   -0.112605
    43  H    0.092498
    44  H    0.079793
    45  H    0.083934
    46  H    0.091015
    47  H    0.061075
    48  H    0.071978
    49  H    0.124394
    50  H    0.124836
    51  H    0.122738
    52  H    0.114151
    53  H    0.098307
    54  H    0.081260
    55  H    0.108570
    56  H    0.095395
    57  H    0.105560
    58  H    0.092269
    59  H    0.120761
    60  H    0.102070
    61  H    0.089364
    62  H    0.093634
    63  H    0.110802
    64  H    0.092222
    65  H    0.105069
    66  H    0.047781
    67  H    0.119860
    68  H    0.095819
    69  H    0.116128
    70  H    0.097113
    71  H    0.132684
    72  H    0.113938
    73  H    0.307410
    74  H    0.290790
    75  H    0.097022
    76  H    0.092106
    77  H    0.083819
    78  H    0.132160
    79  H    0.127776
    80  H    0.110091
    81  H    0.118544
    82  H    0.109782
    83  H    0.086372
    84  H    0.081448
    85  H    0.091391
    86  H    0.080068
    87  H    0.081436
    88  H    0.073235
    89  H    0.094305
    90  H    0.113349
    91  H    0.118819
    92  H    0.109819
    93  H    0.092861
    94  H    0.083981
    95  H    0.061976
    96  H    0.086524
    97  H    0.077590
    98  H    0.093657
 Sum of Mulliken charges =  -0.00000

 Dipole moment (field-independent basis, Debye):
    X=              1.8963    Y=             -1.3797    Z=              1.6721  Tot=              2.8802
 Quadrupole moment (field-independent basis, Debye-Ang):
   XX=           -269.8574   YY=           -247.0115   ZZ=           -262.4009
   XY=             20.2802   XZ=              4.6974   YZ=             -0.8178

 Normal termination of Gaussian 16 at Thu Jul 11 22:33:35 2019.
