 Gaussian 16, Revision A.03,
 Gaussian 16:  ES64L-G16RevA.03 25-Dec-2016

 -------------------------------------
 # td=(NStates=1) CAM-B3LYP/6-31G(d,p)
 -------------------------------------

 --
 TD
 --
 Symbolic Z-matrix:
 Charge =  0 Multiplicity = 1

                         Standard orientation:
 ---------------------------------------------------------------------
 Center     Atomic      Atomic             Coordinates (Angstroms)
 Number     Number       Type             X           Y           Z
 ---------------------------------------------------------------------
      1          8           0       14.589488   -2.306197   -0.361372
      2          8           0      -14.775571    1.854344    0.889631
      3          6           0       11.056386   -1.638236    0.837814
      4          6           0      -12.315671   -1.016263    0.581611
      5          6           0       12.538849   -2.051354    0.883285
      6          6           0      -13.652868   -0.281245    0.698276
      7          6           0       13.270884   -1.968193   -0.487368
      8          6           0      -13.483420    1.178604    0.892942
      9          6           0       11.021957   -0.301458    0.016987
     10          6           0      -11.284219   -0.343790   -0.281924
     11          6           0       13.290331   -0.461279   -0.943361
     12          6           0      -12.709582    1.724335   -0.306771
     13          6           0       11.923014    0.172637   -0.846417
     14          6           0      -11.513985    0.914667   -0.692819
     15          6           0       10.625562   -1.339614    2.335503
     16          6           0       10.128241   -2.795243    0.280877
     17          6           0      -11.770499   -1.405989    1.938559
     18          6           0      -12.640098   -2.433574   -0.125640
     19          6           0        9.606227    0.363812    0.065613
     20          6           0      -10.007061   -1.043207   -0.480571
     21          6           0       11.838489    1.427198   -1.650597
     22          6           0      -10.651089    1.763185   -1.617223
     23          6           0        9.348946    1.648052    0.120973
     24          6           0       -8.830262   -0.372691   -0.373496
     25          6           0        8.123074    2.254328    0.420411
     26          6           0       -7.526155   -1.087736   -0.482764
     27          6           0        8.062349    3.740147    0.625302
     28          6           0       -7.524395   -2.582899   -0.877611
     29          6           0        6.886599    1.599593    0.176423
     30          6           0       -6.322300   -0.440428   -0.245134
     31          6           0        5.576116    2.124431    0.200288
     32          6           0       -5.057778   -0.956392   -0.402069
     33          6           0        4.471120    1.403212   -0.055932
     34          6           0       -3.955266   -0.260443   -0.140356
     35          6           0        3.098318    1.858020   -0.029398
     36          6           0       -2.617535   -0.667546   -0.382578
     37          6           0        2.719449    3.159258    0.544223
     38          6           0       -2.323856   -2.157897   -0.702474
     39          6           0        2.093580    0.816171   -0.282630
     40          6           0       -1.466391    0.037201   -0.109460
     41          6           0        0.799928    0.922223    0.033007
     42          6           0       -0.084035   -0.087101   -0.293849
     43          1           0       13.033190   -1.475265    1.484064
     44          1           0       12.455322   -2.974472    1.373259
     45          1           0      -14.176480   -0.748117    1.248956
     46          1           0      -14.248032   -0.284886   -0.332791
     47          1           0       12.656369   -2.585764   -1.341826
     48          1           0      -12.923003    1.451604    1.730402
     49          1           0       14.123363    0.234464   -0.529998
     50          1           0       13.444428   -0.328849   -2.021087
     51          1           0      -13.510768    1.846527   -1.099331
     52          1           0      -12.241717    2.816871   -0.225496
     53          1           0       10.794928   -1.933197    3.269845
     54          1           0        9.553087   -1.038969    2.246228
     55          1           0       10.838318   -0.286373    2.727057
     56          1           0       10.481563   -3.165093   -0.763102
     57          1           0       10.157616   -3.609967    0.855730
     58          1           0        9.108249   -2.309614    0.371200
     59          1           0      -11.484302   -0.612137    2.568931
     60          1           0      -10.806536   -1.834560    1.920822
     61          1           0      -12.436201   -2.086170    2.500039
     62          1           0      -13.535151   -2.943111    0.110958
     63          1           0      -11.831690   -3.264144   -0.141892
     64          1           0      -12.675778   -2.265365   -1.313768
     65          1           0        8.800316   -0.203003    0.423109
     66          1           0      -10.046012   -2.008105   -0.522860
     67          1           0       10.738857    1.620989   -1.846827
     68          1           0       12.103909    2.219333   -0.962771
     69          1           0       12.505782    1.479311   -2.651964
     70          1           0      -11.271963    2.212828   -2.432759
     71          1           0       -9.786445    1.340085   -2.281548
     72          1           0      -10.103039    2.573844   -0.940664
     73          1           0       14.740736   -3.132787   -0.049855
     74          1           0      -15.039061    1.502174    1.800012
     75          1           0       10.319745    2.342443    0.111277
     76          1           0       -8.806140    0.687357   -0.175424
     77          1           0        9.196588    3.821734    0.976697
     78          1           0        7.913482    4.417055   -0.188865
     79          1           0        7.204128    3.988140    1.480386
     80          1           0       -8.153627   -3.085818   -0.158462
     81          1           0       -7.842412   -2.680303   -1.868634
     82          1           0       -6.432568   -3.053971   -0.991844
     83          1           0        7.002039    0.612221    0.015393
     84          1           0       -6.338836    0.787583    0.007409
     85          1           0        5.346087    3.148132    0.477903
     86          1           0       -4.839267   -2.061534   -0.614382
     87          1           0        4.459440    0.453697   -0.389812
     88          1           0       -4.136597    0.777473   -0.169497
     89          1           0        2.923984    3.444165    1.685669
     90          1           0        1.785618    3.453926    0.289520
     91          1           0        3.469460    3.855551    0.048151
     92          1           0       -2.635524   -2.817073    0.147626
     93          1           0       -2.942672   -2.638793   -1.624129
     94          1           0       -1.362577   -2.292253   -0.926744
     95          1           0        2.271835   -0.141128   -0.700138
     96          1           0       -1.592334    1.025686    0.244799
     97          1           0        0.330272    1.878927    0.622317
     98          1           0        0.470970   -1.003441   -0.747266
 ---------------------------------------------------------------------

 SCF Done:  E(RCAM-B3LYP) =  -1706.94186075     A.U. after   15 cycles

 Excitation energies and oscillator strengths:

 Excited State   1:      Singlet-A      2.0938 eV  592.15 nm  f=3.6849  <S**2>=0.000
     155 ->158        -0.14398
     156 ->157         0.69390
 This state for optimization and/or second-order correction.
 Total Energy, E(TD-HF/TD-DFT) =  -1706.86491537
 Copying the excited state density for this state as the 1-particle RhoCI density.

 The electronic state is 1-A.
 Alpha  occ. eigenvalues --  -19.21788 -19.20822 -10.31999 -10.29831 -10.28515
 Alpha  occ. eigenvalues --  -10.28207 -10.28090 -10.28054 -10.27431 -10.27292
 Alpha  occ. eigenvalues --  -10.27255 -10.26942 -10.26789 -10.26764 -10.26757
 Alpha  occ. eigenvalues --  -10.26567 -10.26415 -10.26350 -10.26236 -10.26163
 Alpha  occ. eigenvalues --  -10.26139 -10.26045 -10.26039 -10.26019 -10.25985
 Alpha  occ. eigenvalues --  -10.25941 -10.25904 -10.25797 -10.25637 -10.25569
 Alpha  occ. eigenvalues --  -10.25428 -10.25387 -10.25380 -10.25211 -10.25143
 Alpha  occ. eigenvalues --  -10.25084 -10.25006 -10.24971 -10.24929 -10.23972
 Alpha  occ. eigenvalues --  -10.23882 -10.22748  -1.12278  -1.08627  -0.94234
 Alpha  occ. eigenvalues --   -0.92994  -0.92498  -0.91744  -0.90880  -0.89746
 Alpha  occ. eigenvalues --   -0.88316  -0.87040  -0.86919  -0.86154  -0.84655
 Alpha  occ. eigenvalues --   -0.83472  -0.82241  -0.80382  -0.79977  -0.78640
 Alpha  occ. eigenvalues --   -0.76747  -0.76293  -0.76258  -0.76196  -0.75890
 Alpha  occ. eigenvalues --   -0.75713  -0.75261  -0.74986  -0.73168  -0.70883
 Alpha  occ. eigenvalues --   -0.69266  -0.68046  -0.66525  -0.65835  -0.64960
 Alpha  occ. eigenvalues --   -0.64044  -0.63462  -0.61631  -0.61096  -0.60259
 Alpha  occ. eigenvalues --   -0.59781  -0.59453  -0.58838  -0.58047  -0.56705
 Alpha  occ. eigenvalues --   -0.55883  -0.55398  -0.54824  -0.54689  -0.53670
 Alpha  occ. eigenvalues --   -0.53256  -0.52534  -0.51731  -0.51494  -0.50582
 Alpha  occ. eigenvalues --   -0.50043  -0.49763  -0.49563  -0.49392  -0.49284
 Alpha  occ. eigenvalues --   -0.49181  -0.48829  -0.48559  -0.48335  -0.48017
 Alpha  occ. eigenvalues --   -0.47522  -0.47231  -0.46830  -0.46772  -0.46259
 Alpha  occ. eigenvalues --   -0.46228  -0.46097  -0.45686  -0.45484  -0.45133
 Alpha  occ. eigenvalues --   -0.44863  -0.44820  -0.44709  -0.44139  -0.43563
 Alpha  occ. eigenvalues --   -0.43153  -0.42625  -0.42006  -0.41776  -0.41699
 Alpha  occ. eigenvalues --   -0.41393  -0.41184  -0.41067  -0.40806  -0.40732
 Alpha  occ. eigenvalues --   -0.40266  -0.40138  -0.39853  -0.39527  -0.39367
 Alpha  occ. eigenvalues --   -0.39107  -0.38834  -0.38815  -0.38099  -0.37997
 Alpha  occ. eigenvalues --   -0.37903  -0.37649  -0.37524  -0.36572  -0.36189
 Alpha  occ. eigenvalues --   -0.35841  -0.35354  -0.34429  -0.33008  -0.32664
 Alpha  occ. eigenvalues --   -0.31645  -0.29980  -0.28736  -0.26187  -0.23494
 Alpha  occ. eigenvalues --   -0.19040
 Alpha virt. eigenvalues --   -0.06237  -0.01020   0.02165   0.06267   0.07971
 Alpha virt. eigenvalues --    0.09962   0.11136   0.11561   0.12049   0.12229
 Alpha virt. eigenvalues --    0.12593   0.12829   0.13080   0.13373   0.13998

 Mulliken charges:
               1
     1  O   -0.525790
     2  O   -0.550839
     3  C   -0.028151
     4  C   -0.027479
     5  C   -0.176190
     6  C   -0.124297
     7  C    0.175408
     8  C    0.122794
     9  C    0.065914
    10  C    0.083429
    11  C   -0.213057
    12  C   -0.225674
    13  C    0.050454
    14  C    0.039237
    15  C   -0.335703
    16  C   -0.286717
    17  C   -0.306304
    18  C   -0.326095
    19  C   -0.135139
    20  C   -0.087289
    21  C   -0.374544
    22  C   -0.366772
    23  C   -0.090904
    24  C   -0.077119
    25  C    0.056742
    26  C    0.067791
    27  C   -0.343916
    28  C   -0.363589
    29  C   -0.087363
    30  C   -0.128404
    31  C   -0.086057
    32  C   -0.046021
    33  C   -0.062255
    34  C   -0.117919
    35  C    0.063613
    36  C    0.093474
    37  C   -0.364984
    38  C   -0.361422
    39  C   -0.128380
    40  C   -0.127364
    41  C   -0.051210
    42  C   -0.093311
    43  H    0.111987
    44  H    0.077925
    45  H    0.069578
    46  H    0.092017
    47  H    0.049173
    48  H    0.094095
    49  H    0.111328
    50  H    0.102565
    51  H    0.120888
    52  H    0.090806
    53  H    0.110010
    54  H    0.092615
    55  H    0.102055
    56  H    0.095979
    57  H    0.118280
    58  H    0.098136
    59  H    0.100620
    60  H    0.111904
    61  H    0.097309
    62  H    0.109975
    63  H    0.090389
    64  H    0.085589
    65  H    0.081017
    66  H    0.067711
    67  H    0.127655
    68  H    0.132564
    69  H    0.095172
    70  H    0.113702
    71  H    0.108392
    72  H    0.099557
    73  H    0.292819
    74  H    0.305476
    75  H    0.074756
    76  H    0.092830
    77  H    0.083891
    78  H    0.135038
    79  H    0.092834
    80  H    0.124902
    81  H    0.136837
    82  H    0.095088
    83  H    0.065654
    84  H    0.064341
    85  H    0.072650
    86  H    0.083358
    87  H    0.070329
    88  H    0.077761
    89  H    0.112788
    90  H    0.123244
    91  H    0.109531
    92  H    0.120762
    93  H    0.078287
    94  H    0.115461
    95  H    0.085192
    96  H    0.068287
    97  H    0.081804
    98  H    0.078489
 Sum of Mulliken charges =  -0.00000

 Dipole moment (field-independent basis, Debye):
    X=             -0.0260    Y=             -2.0439    Z=              1.7023  Tot=              2.6601
 Quadrupole moment (field-independent basis, Debye-Ang):
   XX=           -274.1450   YY=           -243.9563   ZZ=           -259.5214
   XY=              8.2680   XZ=             -9.9263   YZ=              0.7282

 Normal termination of Gaussian 16 at Fri Jul 12 22:47:26 2019.
