 Gaussian 16, Revision A.03,
 Gaussian 16:  ES64L-G16RevA.03 25-Dec-2016

 -------------------------------------
 # td=(NStates=1) CAM-B3LYP/6-31G(d,p)
 -------------------------------------

 --
 TD
 --
 Symbolic Z-matrix:
 Charge =  0 Multiplicity = 1

                         Standard orientation:
 ---------------------------------------------------------------------
 Center     Atomic      Atomic             Coordinates (Angstroms)
 Number     Number       Type             X           Y           Z
 ---------------------------------------------------------------------
      1          8           0       14.656736   -2.242803   -0.099808
      2          8           0      -14.532286    1.948602    1.362732
      3          6           0       11.066668   -1.417957    1.114427
      4          6           0      -12.431413   -1.043373    0.540205
      5          6           0       12.637881   -1.833716    1.223023
      6          6           0      -13.589905   -0.235347    0.658207
      7          6           0       13.264462   -1.946026   -0.097930
      8          6           0      -13.263316    1.176299    1.210242
      9          6           0       10.949533   -0.186685    0.143568
     10          6           0      -11.313163   -0.252800   -0.172287
     11          6           0       13.214495   -0.602777   -0.898932
     12          6           0      -12.506066    1.943256    0.135554
     13          6           0       11.909812    0.164449   -0.719677
     14          6           0      -11.450722    1.124951   -0.456337
     15          6           0       10.543988   -1.162721    2.449133
     16          6           0       10.220501   -2.609961    0.514243
     17          6           0      -11.872604   -1.517423    1.847954
     18          6           0      -12.683212   -2.341008   -0.187083
     19          6           0        9.703226    0.438949    0.199369
     20          6           0      -10.068383   -0.915358   -0.557031
     21          6           0       11.815156    1.206290   -1.799268
     22          6           0      -10.480426    2.066922   -1.285241
     23          6           0        9.356056    1.820737   -0.021814
     24          6           0       -8.780006   -0.576089   -0.287764
     25          6           0        8.007843    2.290970    0.026290
     26          6           0       -7.560500   -1.259593   -0.625932
     27          6           0        7.836138    3.794462    0.361359
     28          6           0       -7.667397   -2.608366   -1.243597
     29          6           0        6.899554    1.509568   -0.117741
     30          6           0       -6.295827   -0.610492   -0.393405
     31          6           0        5.573889    1.933234    0.205681
     32          6           0       -5.041885   -1.134556   -0.666393
     33          6           0        4.504690    1.214607   -0.051919
     34          6           0       -3.939979   -0.400246   -0.468211
     35          6           0        3.185743    1.633452   -0.061263
     36          6           0       -2.578267   -0.838063   -0.542320
     37          6           0        2.851233    3.031996    0.358591
     38          6           0       -2.354660   -2.270553   -1.043754
     39          6           0        2.091288    0.779328   -0.259132
     40          6           0       -1.665680    0.099432   -0.511714
     41          6           0        0.683117    0.978013   -0.187861
     42          6           0       -0.236455   -0.017779   -0.543568
     43          1           0       13.175622   -1.024953    1.744985
     44          1           0       12.660709   -2.864301    1.841228
     45          1           0      -14.350420   -0.664010    1.256372
     46          1           0      -14.095545   -0.217917   -0.243097
     47          1           0       12.713343   -2.760419   -0.636526
     48          1           0      -12.609643    1.036602    2.116503
     49          1           0       13.986343   -0.230153   -0.403042
     50          1           0       13.313354   -0.773494   -1.916887
     51          1           0      -13.187200    2.232023   -0.535890
     52          1           0      -12.000304    2.929062    0.606257
     53          1           0       10.552412   -2.060682    3.141660
     54          1           0        9.470259   -0.772208    2.281660
     55          1           0       11.116529   -0.457734    3.067958
     56          1           0       10.334267   -2.581262   -0.574878
     57          1           0       10.504221   -3.551882    1.066574
     58          1           0        9.071253   -2.410385    0.543010
     59          1           0      -11.736987   -0.717616    2.631649
     60          1           0      -10.848751   -1.936237    1.506071
     61          1           0      -12.249483   -2.472845    2.300958
     62          1           0      -13.551112   -2.803779    0.272968
     63          1           0      -11.910575   -3.166561   -0.001066
     64          1           0      -12.973552   -2.360395   -1.169143
     65          1           0        8.984914   -0.116757    0.551260
     66          1           0      -10.385619   -1.917220   -0.813854
     67          1           0       10.771420    1.449265   -1.953212
     68          1           0       12.293213    2.220194   -1.527047
     69          1           0       12.191865    0.922313   -2.748861
     70          1           0      -11.130578    2.709385   -1.833303
     71          1           0       -9.914255    1.431689   -2.114806
     72          1           0       -9.733623    2.680241   -0.698385
     73          1           0       14.625339   -3.082278    0.498054
     74          1           0      -15.019729    1.483131    2.126758
     75          1           0       10.136252    2.679120   -0.281968
     76          1           0       -8.617021    0.428959    0.166715
     77          1           0        8.879386    4.310800    0.423110
     78          1           0        7.098784    4.222476   -0.414853
     79          1           0        7.457711    3.794713    1.493173
     80          1           0       -8.304214   -3.258710   -0.414557
     81          1           0       -8.148780   -2.307408   -2.338391
     82          1           0       -6.828818   -3.168868   -1.646224
     83          1           0        7.029994    0.486019   -0.406513
     84          1           0       -6.447894    0.296363    0.340778
     85          1           0        5.420996    2.957245    0.742616
     86          1           0       -4.707003   -2.066860   -1.015131
     87          1           0        4.599551    0.075803   -0.332509
     88          1           0       -4.218710    0.817254   -0.320595
     89          1           0        3.119039    3.226481    1.394159
     90          1           0        1.846763    3.100826    0.548175
     91          1           0        3.393370    3.716056   -0.362076
     92          1           0       -2.691585   -2.811254   -0.248358
     93          1           0       -2.926650   -2.306891   -1.951846
     94          1           0       -1.357684   -2.480216   -1.299500
     95          1           0        2.418415   -0.117793   -0.719433
     96          1           0       -2.009121    1.167836   -0.062582
     97          1           0        0.370188    1.938944    0.152459
     98          1           0        0.211291   -1.054253   -0.660011
 ---------------------------------------------------------------------

 SCF Done:  E(RCAM-B3LYP) =  -1707.01534000     A.U. after   15 cycles

 Excitation energies and oscillator strengths:

 Excited State   1:      Singlet-A      2.2991 eV  539.27 nm  f=3.7470  <S**2>=0.000
     155 ->158         0.18672
     156 ->157         0.67657
 This state for optimization and/or second-order correction.
 Total Energy, E(TD-HF/TD-DFT) =  -1706.93084964
 Copying the excited state density for this state as the 1-particle RhoCI density.

 The electronic state is 1-A.
 Alpha  occ. eigenvalues --  -19.21995 -19.21657 -10.30766 -10.29906 -10.28279
 Alpha  occ. eigenvalues --  -10.27672 -10.27643 -10.27583 -10.27493 -10.27311
 Alpha  occ. eigenvalues --  -10.27079 -10.26813 -10.26802 -10.26782 -10.26758
 Alpha  occ. eigenvalues --  -10.26715 -10.26710 -10.26695 -10.26681 -10.26598
 Alpha  occ. eigenvalues --  -10.26499 -10.26328 -10.26214 -10.26197 -10.26000
 Alpha  occ. eigenvalues --  -10.25904 -10.25752 -10.25703 -10.25620 -10.25508
 Alpha  occ. eigenvalues --  -10.25408 -10.25192 -10.25065 -10.25053 -10.25037
 Alpha  occ. eigenvalues --  -10.25018 -10.24780 -10.24431 -10.24414 -10.24338
 Alpha  occ. eigenvalues --  -10.23578 -10.23337  -1.09211  -1.06597  -0.94787
 Alpha  occ. eigenvalues --   -0.93887  -0.92729  -0.92106  -0.90202  -0.89815
 Alpha  occ. eigenvalues --   -0.87644  -0.87475  -0.87200  -0.85870  -0.84954
 Alpha  occ. eigenvalues --   -0.83356  -0.82303  -0.80058  -0.79579  -0.79014
 Alpha  occ. eigenvalues --   -0.76497  -0.76304  -0.76226  -0.76122  -0.75993
 Alpha  occ. eigenvalues --   -0.75598  -0.75484  -0.75152  -0.73538  -0.70563
 Alpha  occ. eigenvalues --   -0.69273  -0.67820  -0.65709  -0.64756  -0.64189
 Alpha  occ. eigenvalues --   -0.63726  -0.62904  -0.61303  -0.59820  -0.59588
 Alpha  occ. eigenvalues --   -0.59201  -0.59075  -0.58024  -0.57435  -0.55886
 Alpha  occ. eigenvalues --   -0.55451  -0.54846  -0.54532  -0.54129  -0.53426
 Alpha  occ. eigenvalues --   -0.53169  -0.52736  -0.52512  -0.51998  -0.51295
 Alpha  occ. eigenvalues --   -0.51176  -0.50686  -0.49977  -0.49786  -0.49536
 Alpha  occ. eigenvalues --   -0.49258  -0.48863  -0.48741  -0.48416  -0.48203
 Alpha  occ. eigenvalues --   -0.47873  -0.47571  -0.47535  -0.46936  -0.46436
 Alpha  occ. eigenvalues --   -0.45608  -0.45470  -0.45332  -0.45195  -0.44873
 Alpha  occ. eigenvalues --   -0.44816  -0.44191  -0.44076  -0.43610  -0.43565
 Alpha  occ. eigenvalues --   -0.43392  -0.42995  -0.42886  -0.42516  -0.42226
 Alpha  occ. eigenvalues --   -0.42022  -0.41700  -0.41253  -0.41049  -0.40771
 Alpha  occ. eigenvalues --   -0.40465  -0.40047  -0.39603  -0.39281  -0.39185
 Alpha  occ. eigenvalues --   -0.39032  -0.38758  -0.38561  -0.38554  -0.37758
 Alpha  occ. eigenvalues --   -0.37463  -0.36905  -0.36596  -0.36567  -0.35966
 Alpha  occ. eigenvalues --   -0.35602  -0.34935  -0.34349  -0.32936  -0.32354
 Alpha  occ. eigenvalues --   -0.32271  -0.30339  -0.27926  -0.25878  -0.22726
 Alpha  occ. eigenvalues --   -0.19748
 Alpha virt. eigenvalues --   -0.05369  -0.01628   0.01688   0.05819   0.07925
 Alpha virt. eigenvalues --    0.10205   0.11171   0.11631   0.12013   0.12283
 Alpha virt. eigenvalues --    0.12628   0.12725   0.13248   0.13455   0.14023

 Mulliken charges:
               1
     1  O   -0.552832
     2  O   -0.571823
     3  C   -0.026203
     4  C    0.011761
     5  C   -0.190072
     6  C   -0.180400
     7  C    0.139133
     8  C    0.129813
     9  C    0.110833
    10  C    0.049851
    11  C   -0.205195
    12  C   -0.194073
    13  C    0.023851
    14  C    0.027720
    15  C   -0.281941
    16  C   -0.301760
    17  C   -0.296640
    18  C   -0.330146
    19  C   -0.118625
    20  C   -0.144886
    21  C   -0.374610
    22  C   -0.352478
    23  C   -0.128023
    24  C   -0.081896
    25  C    0.078846
    26  C    0.106394
    27  C   -0.358240
    28  C   -0.347448
    29  C   -0.105377
    30  C   -0.154266
    31  C   -0.106929
    32  C   -0.064759
    33  C   -0.090186
    34  C   -0.097570
    35  C    0.101719
    36  C    0.081730
    37  C   -0.364707
    38  C   -0.365852
    39  C   -0.137054
    40  C   -0.118912
    41  C   -0.073762
    42  C   -0.105121
    43  H    0.102802
    44  H    0.061546
    45  H    0.078402
    46  H    0.106723
    47  H    0.071264
    48  H    0.088300
    49  H    0.136671
    50  H    0.118134
    51  H    0.133502
    52  H    0.091568
    53  H    0.092025
    54  H    0.093392
    55  H    0.103592
    56  H    0.114292
    57  H    0.103933
    58  H    0.091201
    59  H    0.093424
    60  H    0.095627
    61  H    0.096946
    62  H    0.100486
    63  H    0.096978
    64  H    0.114159
    65  H    0.076157
    66  H    0.078860
    67  H    0.122182
    68  H    0.108669
    69  H    0.112384
    70  H    0.116139
    71  H    0.101836
    72  H    0.114787
    73  H    0.302100
    74  H    0.303777
    75  H    0.085512
    76  H    0.081760
    77  H    0.098657
    78  H    0.123311
    79  H    0.114135
    80  H    0.104983
    81  H    0.101354
    82  H    0.118235
    83  H    0.078150
    84  H    0.087755
    85  H    0.093645
    86  H    0.081396
    87  H    0.068331
    88  H    0.063087
    89  H    0.114004
    90  H    0.104338
    91  H    0.118386
    92  H    0.139715
    93  H    0.133572
    94  H    0.116822
    95  H    0.068944
    96  H    0.072136
    97  H    0.086420
    98  H    0.083627
 Sum of Mulliken charges =  -0.00000

 Dipole moment (field-independent basis, Debye):
    X=             -0.1017    Y=             -2.5761    Z=              1.5177  Tot=              2.9916
 Quadrupole moment (field-independent basis, Debye-Ang):
   XX=           -278.8592   YY=           -246.5772   ZZ=           -258.1298
   XY=             16.7860   XZ=             -0.1896   YZ=              0.2332

 Normal termination of Gaussian 16 at Wed Jul 10 20:34:02 2019.
