 Gaussian 16, Revision A.03,
 Gaussian 16:  ES64L-G16RevA.03 25-Dec-2016

 -------------------------------------
 # td=(NStates=1) CAM-B3LYP/6-31G(d,p)
 -------------------------------------

 --
 TD
 --
 Symbolic Z-matrix:
 Charge =  0 Multiplicity = 1

                         Standard orientation:
 ---------------------------------------------------------------------
 Center     Atomic      Atomic             Coordinates (Angstroms)
 Number     Number       Type             X           Y           Z
 ---------------------------------------------------------------------
      1          8           0       14.764699   -2.191917   -0.202032
      2          8           0      -14.947883    1.706646    0.764467
      3          6           0       11.210800   -1.531395    0.939140
      4          6           0      -12.364027   -1.052541    0.591318
      5          6           0       12.631806   -1.950859    0.961852
      6          6           0      -13.671284   -0.253439    0.487590
      7          6           0       13.378437   -1.899944   -0.406944
      8          6           0      -13.547751    1.196566    0.861467
      9          6           0       10.892695   -0.265228   -0.010964
     10          6           0      -11.281710   -0.243262   -0.169954
     11          6           0       13.333786   -0.540955   -0.929146
     12          6           0      -12.696514    1.812114   -0.213470
     13          6           0       11.904278    0.089696   -0.895511
     14          6           0      -11.411048    0.996319   -0.592760
     15          6           0       10.569194   -1.136126    2.365508
     16          6           0       10.321052   -2.696601    0.453385
     17          6           0      -11.942404   -1.216107    1.955457
     18          6           0      -12.618121   -2.519421   -0.027430
     19          6           0        9.617470    0.366818    0.096312
     20          6           0      -10.044237   -0.970648   -0.416061
     21          6           0       11.721299    1.186839   -1.905501
     22          6           0      -10.520025    1.817930   -1.543121
     23          6           0        9.332158    1.649940    0.058320
     24          6           0       -8.776062   -0.510847   -0.273575
     25          6           0        8.041528    2.283283    0.177972
     26          6           0       -7.612264   -1.220910   -0.515018
     27          6           0        7.996496    3.820653    0.528410
     28          6           0       -7.605622   -2.784617   -0.879121
     29          6           0        6.860698    1.536675    0.069343
     30          6           0       -6.320946   -0.588622   -0.393098
     31          6           0        5.570261    2.035992    0.262364
     32          6           0       -4.995081   -1.052141   -0.596472
     33          6           0        4.433584    1.277625   -0.057010
     34          6           0       -3.843574   -0.252062   -0.404595
     35          6           0        3.122437    1.740131    0.152915
     36          6           0       -2.498018   -0.625273   -0.378612
     37          6           0        2.938986    3.144518    0.479113
     38          6           0       -2.326331   -2.050934   -0.927809
     39          6           0        2.164555    0.814630   -0.109451
     40          6           0       -1.586187    0.275306   -0.096223
     41          6           0        0.789354    0.955312    0.153007
     42          6           0       -0.307691    0.073140   -0.142596
     43          1           0       13.227526   -1.362354    1.612985
     44          1           0       12.569170   -3.101410    1.328332
     45          1           0      -14.577352   -0.756533    1.127954
     46          1           0      -14.270844   -0.381295   -0.528767
     47          1           0       12.920263   -2.573201   -1.006380
     48          1           0      -13.063360    1.244301    1.961176
     49          1           0       14.002018    0.121629   -0.396578
     50          1           0       13.649500   -0.600917   -2.015862
     51          1           0      -13.255118    2.195940   -1.025252
     52          1           0      -12.317983    2.845714    0.231899
     53          1           0       10.738920   -1.752541    2.981630
     54          1           0        9.481396   -0.917268    2.153482
     55          1           0       10.875262   -0.110041    2.794375
     56          1           0       10.735605   -3.126896   -0.663187
     57          1           0       10.195586   -3.395260    1.193763
     58          1           0        9.279654   -2.436123    0.283475
     59          1           0      -11.688123   -0.402721    2.396562
     60          1           0      -10.818928   -1.600350    1.883386
     61          1           0      -12.606214   -1.855887    2.528008
     62          1           0      -13.671026   -2.834224    0.307230
     63          1           0      -11.878701   -3.140646    0.185468
     64          1           0      -12.635935   -2.397630   -1.171198
     65          1           0        8.928874   -0.456965    0.236140
     66          1           0      -10.142209   -2.080197   -0.638318
     67          1           0       10.662025    0.971742   -2.081672
     68          1           0       12.399320    1.942419   -1.618051
     69          1           0       12.397381    0.930796   -2.742271
     70          1           0      -11.159095    2.403692   -2.197149
     71          1           0       -9.828013    1.032395   -1.794811
     72          1           0      -10.024206    2.418088   -0.905405
     73          1           0       14.961483   -3.106621    0.042137
     74          1           0      -15.128365    1.391583    1.524242
     75          1           0       10.293256    2.301407    0.330694
     76          1           0       -8.819170    0.528249    0.095230
     77          1           0        8.963665    4.357976    0.351421
     78          1           0        7.162024    4.089718   -0.087845
     79          1           0        7.595982    3.815157    1.721268
     80          1           0       -8.432401   -3.188899   -0.115448
     81          1           0       -8.073992   -2.830055   -1.895987
     82          1           0       -6.610769   -3.244741   -0.985081
     83          1           0        6.785744    0.471065   -0.257803
     84          1           0       -6.392375    0.459743    0.082003
     85          1           0        5.361797    3.013068    0.548444
     86          1           0       -4.920561   -2.143197   -0.699996
     87          1           0        4.752434    0.329653   -0.284231
     88          1           0       -4.275816    0.837731   -0.337324
     89          1           0        3.368490    3.299829    1.472813
     90          1           0        1.733567    3.445983    0.393130
     91          1           0        3.488851    4.018191   -0.043291
     92          1           0       -2.773724   -2.715710   -0.204384
     93          1           0       -2.526968   -2.149705   -1.857363
     94          1           0       -1.232055   -2.299085   -0.901564
     95          1           0        2.609915   -0.243574   -0.170849
     96          1           0       -1.924550    1.290895    0.093178
     97          1           0        0.228656    1.931207    0.434108
     98          1           0       -0.026926   -0.871299   -0.422142
 ---------------------------------------------------------------------

 SCF Done:  E(RCAM-B3LYP) =  -1706.87394610     A.U. after   15 cycles

 Excitation energies and oscillator strengths:

 Excited State   1:      Singlet-A      1.9970 eV  620.86 nm  f=3.9960  <S**2>=0.000
     155 ->158        -0.15416
     156 ->157         0.69159
 This state for optimization and/or second-order correction.
 Total Energy, E(TD-HF/TD-DFT) =  -1706.80055888
 Copying the excited state density for this state as the 1-particle RhoCI density.

 The electronic state is 1-A.
 Alpha  occ. eigenvalues --  -19.20774 -19.20205 -10.31625 -10.29424 -10.28276
 Alpha  occ. eigenvalues --  -10.28024 -10.27725 -10.27706 -10.27568 -10.27501
 Alpha  occ. eigenvalues --  -10.27468 -10.27347 -10.27233 -10.27121 -10.27068
 Alpha  occ. eigenvalues --  -10.26923 -10.26855 -10.26762 -10.26682 -10.26571
 Alpha  occ. eigenvalues --  -10.26446 -10.26228 -10.26134 -10.26074 -10.26071
 Alpha  occ. eigenvalues --  -10.25836 -10.25560 -10.25532 -10.25531 -10.25400
 Alpha  occ. eigenvalues --  -10.25339 -10.25227 -10.25225 -10.25216 -10.25081
 Alpha  occ. eigenvalues --  -10.24846 -10.24769 -10.24730 -10.24133 -10.24029
 Alpha  occ. eigenvalues --  -10.23505 -10.23325  -1.11628  -1.08729  -0.94311
 Alpha  occ. eigenvalues --   -0.93660  -0.93116  -0.92650  -0.90318  -0.90065
 Alpha  occ. eigenvalues --   -0.87792  -0.87296  -0.86962  -0.86339  -0.84996
 Alpha  occ. eigenvalues --   -0.83616  -0.82472  -0.80921  -0.79949  -0.79479
 Alpha  occ. eigenvalues --   -0.77108  -0.77001  -0.76633  -0.76521  -0.75733
 Alpha  occ. eigenvalues --   -0.75685  -0.75529  -0.74997  -0.73592  -0.71223
 Alpha  occ. eigenvalues --   -0.69471  -0.67523  -0.65951  -0.65220  -0.64483
 Alpha  occ. eigenvalues --   -0.63263  -0.62506  -0.61969  -0.61557  -0.60428
 Alpha  occ. eigenvalues --   -0.59987  -0.59393  -0.58858  -0.58387  -0.56735
 Alpha  occ. eigenvalues --   -0.56153  -0.55095  -0.54573  -0.54223  -0.53650
 Alpha  occ. eigenvalues --   -0.53198  -0.52498  -0.52373  -0.52202  -0.51229
 Alpha  occ. eigenvalues --   -0.51201  -0.50548  -0.50472  -0.49966  -0.49795
 Alpha  occ. eigenvalues --   -0.49685  -0.49122  -0.48701  -0.48571  -0.48383
 Alpha  occ. eigenvalues --   -0.47710  -0.47520  -0.47260  -0.46966  -0.46654
 Alpha  occ. eigenvalues --   -0.46097  -0.46063  -0.45987  -0.45896  -0.45554
 Alpha  occ. eigenvalues --   -0.45269  -0.44724  -0.44396  -0.44084  -0.43798
 Alpha  occ. eigenvalues --   -0.43344  -0.42752  -0.42217  -0.41950  -0.41845
 Alpha  occ. eigenvalues --   -0.41503  -0.41249  -0.41044  -0.40715  -0.40614
 Alpha  occ. eigenvalues --   -0.40233  -0.39987  -0.39527  -0.39298  -0.39007
 Alpha  occ. eigenvalues --   -0.38844  -0.38701  -0.38499  -0.38333  -0.38194
 Alpha  occ. eigenvalues --   -0.37786  -0.37213  -0.36995  -0.36850  -0.36738
 Alpha  occ. eigenvalues --   -0.35696  -0.34734  -0.34042  -0.32982  -0.31986
 Alpha  occ. eigenvalues --   -0.31652  -0.30329  -0.28521  -0.26187  -0.23006
 Alpha  occ. eigenvalues --   -0.18900
 Alpha virt. eigenvalues --   -0.06631  -0.01594   0.02237   0.06266   0.08581
 Alpha virt. eigenvalues --    0.10378   0.11654   0.11913   0.12005   0.12537
 Alpha virt. eigenvalues --    0.12749   0.13152   0.13319   0.13814   0.13978

 Mulliken charges:
               1
     1  O   -0.573821
     2  O   -0.517737
     3  C   -0.012597
     4  C   -0.008692
     5  C   -0.192816
     6  C   -0.174037
     7  C    0.186655
     8  C    0.101640
     9  C    0.078680
    10  C    0.073074
    11  C   -0.205493
    12  C   -0.214445
    13  C   -0.028463
    14  C    0.003740
    15  C   -0.279744
    16  C   -0.292567
    17  C   -0.267196
    18  C   -0.304452
    19  C   -0.107026
    20  C   -0.164548
    21  C   -0.345972
    22  C   -0.343398
    23  C   -0.116614
    24  C   -0.086052
    25  C    0.049828
    26  C    0.082839
    27  C   -0.346674
    28  C   -0.358988
    29  C   -0.111712
    30  C   -0.140739
    31  C   -0.074789
    32  C   -0.083436
    33  C   -0.114161
    34  C   -0.123003
    35  C    0.171624
    36  C    0.078419
    37  C   -0.388321
    38  C   -0.356965
    39  C   -0.139742
    40  C   -0.061336
    41  C   -0.111730
    42  C   -0.086351
    43  H    0.107465
    44  H    0.057209
    45  H    0.044215
    46  H    0.100268
    47  H    0.087232
    48  H    0.085387
    49  H    0.128757
    50  H    0.100331
    51  H    0.132207
    52  H    0.079161
    53  H    0.096612
    54  H    0.095210
    55  H    0.091214
    56  H    0.069235
    57  H    0.110465
    58  H    0.098487
    59  H    0.106987
    60  H    0.079025
    61  H    0.101639
    62  H    0.100216
    63  H    0.113522
    64  H    0.098331
    65  H    0.085651
    66  H    0.073525
    67  H    0.141680
    68  H    0.125245
    69  H    0.088463
    70  H    0.118394
    71  H    0.127324
    72  H    0.132203
    73  H    0.302859
    74  H    0.286824
    75  H    0.083729
    76  H    0.092422
    77  H    0.120739
    78  H    0.135388
    79  H    0.101404
    80  H    0.109115
    81  H    0.124252
    82  H    0.118456
    83  H    0.082430
    84  H    0.069912
    85  H    0.065417
    86  H    0.073926
    87  H    0.068286
    88  H    0.076890
    89  H    0.133007
    90  H    0.094837
    91  H    0.122493
    92  H    0.130564
    93  H    0.144631
    94  H    0.094506
    95  H    0.089655
    96  H    0.080114
    97  H    0.068757
    98  H    0.060843
 Sum of Mulliken charges =  -0.00000

 Dipole moment (field-independent basis, Debye):
    X=              1.7398    Y=             -1.7617    Z=              1.3435  Tot=              2.8170
 Quadrupole moment (field-independent basis, Debye-Ang):
   XX=           -295.1867   YY=           -242.4792   ZZ=           -262.1341
   XY=              3.3614   XZ=             -9.0927   YZ=              3.6218

 Normal termination of Gaussian 16 at Mon Jul 15 06:11:33 2019.
