 Gaussian 16, Revision A.03,
 Gaussian 16:  ES64L-G16RevA.03 25-Dec-2016

 -------------------------------------
 # td=(NStates=1) CAM-B3LYP/6-31G(d,p)
 -------------------------------------

 --
 TD
 --
 Symbolic Z-matrix:
 Charge =  0 Multiplicity = 1

                         Standard orientation:
 ---------------------------------------------------------------------
 Center     Atomic      Atomic             Coordinates (Angstroms)
 Number     Number       Type             X           Y           Z
 ---------------------------------------------------------------------
      1          8           0       14.781642   -2.163173   -0.210956
      2          8           0      -14.706875    1.847448    1.172852
      3          6           0       11.278957   -1.449608    1.005476
      4          6           0      -12.404536   -1.136560    0.532011
      5          6           0       12.761739   -1.847917    1.034918
      6          6           0      -13.793363   -0.268017    0.659290
      7          6           0       13.341898   -2.014019   -0.260298
      8          6           0      -13.490517    1.166100    1.010171
      9          6           0       11.014417   -0.233581    0.073762
     10          6           0      -11.352999   -0.337483   -0.228703
     11          6           0       13.336989   -0.543320   -1.016986
     12          6           0      -12.734002    1.792831   -0.141617
     13          6           0       11.953668    0.049517   -0.955637
     14          6           0      -11.581827    1.052246   -0.552393
     15          6           0       10.757568   -1.157410    2.408486
     16          6           0       10.429301   -2.677190    0.520078
     17          6           0      -11.872189   -1.494004    2.012546
     18          6           0      -12.795089   -2.339259   -0.277907
     19          6           0        9.705967    0.372038    0.234825
     20          6           0      -10.092480   -0.980857   -0.503812
     21          6           0       11.661885    1.056255   -2.060988
     22          6           0      -10.603136    1.788329   -1.550529
     23          6           0        9.435058    1.754373   -0.022386
     24          6           0       -8.843478   -0.443555   -0.213500
     25          6           0        8.079047    2.314158    0.196854
     26          6           0       -7.614529   -1.180754   -0.559589
     27          6           0        8.099040    3.852194    0.214807
     28          6           0       -7.647308   -2.491431   -1.289751
     29          6           0        6.992776    1.526438    0.053675
     30          6           0       -6.429128   -0.449790   -0.316298
     31          6           0        5.701629    2.088283    0.219216
     32          6           0       -5.081829   -1.025809   -0.510007
     33          6           0        4.487266    1.224114    0.125177
     34          6           0       -3.979289   -0.318093   -0.296879
     35          6           0        3.168468    1.671719    0.314736
     36          6           0       -2.574031   -0.595363   -0.517015
     37          6           0        2.867539    3.051395    0.610361
     38          6           0       -2.340580   -1.982471   -1.055371
     39          6           0        2.078327    0.627526   -0.029552
     40          6           0       -1.651083    0.211125   -0.159663
     41          6           0        0.670840    0.945622    0.064542
     42          6           0       -0.308055    0.013204   -0.228576
     43          1           0       13.233884   -0.997971    1.657864
     44          1           0       12.977486   -2.640211    1.642162
     45          1           0      -14.599935   -0.784568    1.270618
     46          1           0      -14.251032   -0.242751   -0.310327
     47          1           0       12.782295   -2.761827   -0.815647
     48          1           0      -12.984123    1.118169    2.036608
     49          1           0       13.940580    0.124680   -0.453939
     50          1           0       13.675694   -0.691579   -1.926573
     51          1           0      -13.513649    1.898592   -0.962481
     52          1           0      -12.379842    2.785813   -0.034027
     53          1           0       10.723290   -1.839329    3.194611
     54          1           0        9.746055   -1.074938    2.281608
     55          1           0       11.275475   -0.294365    2.842825
     56          1           0       10.703463   -3.216404   -0.371356
     57          1           0       10.519323   -3.520799    1.399117
     58          1           0        9.202343   -2.537509    0.322134
     59          1           0      -11.647999   -0.651722    2.524060
     60          1           0      -10.813702   -1.947579    1.988750
     61          1           0      -12.376597   -2.193074    2.572377
     62          1           0      -13.677809   -2.757184   -0.051753
     63          1           0      -12.074496   -3.302408   -0.217381
     64          1           0      -12.726084   -2.225524   -1.289455
     65          1           0        8.931072   -0.253586    0.688216
     66          1           0      -10.201026   -2.071373   -0.644841
     67          1           0       10.529549    1.105069   -2.383581
     68          1           0       12.185719    1.882906   -2.041532
     69          1           0       12.241335    0.686382   -3.090123
     70          1           0      -11.306904    2.371502   -1.840515
     71          1           0      -10.029356    1.062566   -2.114455
     72          1           0       -9.732272    2.223441   -1.097493
     73          1           0       15.119878   -2.972320    0.541594
     74          1           0      -15.233880    1.187342    1.714375
     75          1           0       10.028452    2.457391   -0.576266
     76          1           0       -8.897235    0.703911    0.323597
     77          1           0        9.067786    4.173599   -0.008727
     78          1           0        7.401536    4.294516   -0.398580
     79          1           0        7.636771    4.267252    1.326889
     80          1           0       -8.227250   -3.037474   -0.644456
     81          1           0       -8.059819   -2.147746   -2.452022
     82          1           0       -6.612495   -3.078060   -1.447824
     83          1           0        7.135655    0.426499    0.135455
     84          1           0       -6.621372    0.547731    0.093145
     85          1           0        5.254797    3.052650    0.447861
     86          1           0       -5.111019   -2.050426   -0.780828
     87          1           0        4.511208    0.282136   -0.275242
     88          1           0       -4.181384    1.007101    0.051028
     89          1           0        4.096771    3.433113    1.207834
     90          1           0        1.816604    2.984357    1.583383
     91          1           0        2.521563    3.700733   -0.765307
     92          1           0       -3.289247   -2.612642   -0.551804
     93          1           0       -2.696627   -1.899256   -2.269663
     94          1           0       -1.331047   -2.537667   -0.552999
     95          1           0        2.359670   -0.352203   -0.267218
     96          1           0       -1.918765    1.067298    0.136276
     97          1           0        0.511201    1.888987    0.347005
     98          1           0       -0.030203   -1.061311   -0.648986
 ---------------------------------------------------------------------

 SCF Done:  E(RCAM-B3LYP) =  -1706.64529182     A.U. after   16 cycles

 Excitation energies and oscillator strengths:

 Excited State   1:      Singlet-A      1.9930 eV  622.09 nm  f=3.1332  <S**2>=0.000
     155 ->158         0.13086
     156 ->157         0.69509
     156 <-157        -0.10026
 This state for optimization and/or second-order correction.
 Total Energy, E(TD-HF/TD-DFT) =  -1706.57204955
 Copying the excited state density for this state as the 1-particle RhoCI density.

 The electronic state is 1-A.
 Alpha  occ. eigenvalues --  -19.22289 -19.21200 -10.33754 -10.30658 -10.30419
 Alpha  occ. eigenvalues --  -10.29702 -10.28452 -10.28334 -10.28227 -10.28215
 Alpha  occ. eigenvalues --  -10.28151 -10.28056 -10.27950 -10.27523 -10.27314
 Alpha  occ. eigenvalues --  -10.27080 -10.27021 -10.27018 -10.26995 -10.26893
 Alpha  occ. eigenvalues --  -10.26684 -10.26605 -10.26581 -10.26496 -10.26363
 Alpha  occ. eigenvalues --  -10.26316 -10.26083 -10.25973 -10.25928 -10.25890
 Alpha  occ. eigenvalues --  -10.25861 -10.25843 -10.25739 -10.25678 -10.25423
 Alpha  occ. eigenvalues --  -10.24404 -10.24310 -10.23781 -10.23729 -10.23474
 Alpha  occ. eigenvalues --  -10.22978 -10.22909  -1.09858  -1.06004  -0.93211
 Alpha  occ. eigenvalues --   -0.93076  -0.92933  -0.90962  -0.90298  -0.89373
 Alpha  occ. eigenvalues --   -0.87335  -0.87050  -0.86667  -0.84990  -0.84414
 Alpha  occ. eigenvalues --   -0.83083  -0.81289  -0.80105  -0.79657  -0.78002
 Alpha  occ. eigenvalues --   -0.77469  -0.76528  -0.76489  -0.76071  -0.75731
 Alpha  occ. eigenvalues --   -0.75078  -0.74210  -0.74097  -0.72904  -0.70149
 Alpha  occ. eigenvalues --   -0.68647  -0.67642  -0.66059  -0.65579  -0.64412
 Alpha  occ. eigenvalues --   -0.64166  -0.63559  -0.62074  -0.59627  -0.59225
 Alpha  occ. eigenvalues --   -0.58796  -0.58632  -0.57749  -0.56918  -0.56185
 Alpha  occ. eigenvalues --   -0.55350  -0.55081  -0.54990  -0.54096  -0.53656
 Alpha  occ. eigenvalues --   -0.53564  -0.52825  -0.52264  -0.51498  -0.50983
 Alpha  occ. eigenvalues --   -0.50666  -0.50200  -0.49840  -0.49774  -0.49502
 Alpha  occ. eigenvalues --   -0.49019  -0.48638  -0.48342  -0.48104  -0.47862
 Alpha  occ. eigenvalues --   -0.47062  -0.46730  -0.46562  -0.46423  -0.46143
 Alpha  occ. eigenvalues --   -0.45545  -0.45417  -0.44999  -0.44743  -0.44503
 Alpha  occ. eigenvalues --   -0.44457  -0.44302  -0.44118  -0.43559  -0.43233
 Alpha  occ. eigenvalues --   -0.42941  -0.42671  -0.42134  -0.42076  -0.41947
 Alpha  occ. eigenvalues --   -0.41586  -0.41490  -0.40771  -0.40662  -0.40583
 Alpha  occ. eigenvalues --   -0.40481  -0.39902  -0.39765  -0.39692  -0.39318
 Alpha  occ. eigenvalues --   -0.39110  -0.38495  -0.38300  -0.37938  -0.37193
 Alpha  occ. eigenvalues --   -0.37116  -0.36683  -0.36462  -0.35965  -0.35044
 Alpha  occ. eigenvalues --   -0.34762  -0.34368  -0.33542  -0.32477  -0.31983
 Alpha  occ. eigenvalues --   -0.31534  -0.29396  -0.27458  -0.24944  -0.22761
 Alpha  occ. eigenvalues --   -0.18731
 Alpha virt. eigenvalues --   -0.06232  -0.01219   0.01107   0.03785   0.04865
 Alpha virt. eigenvalues --    0.06963   0.08510   0.08577   0.10198   0.10387
 Alpha virt. eigenvalues --    0.10697   0.10860   0.11332   0.11983   0.12017

 Mulliken charges:
               1
     1  O   -0.572214
     2  O   -0.558575
     3  C   -0.035145
     4  C    0.006382
     5  C   -0.171203
     6  C   -0.226121
     7  C    0.180457
     8  C    0.179273
     9  C    0.084652
    10  C    0.037928
    11  C   -0.195154
    12  C   -0.235091
    13  C    0.025517
    14  C    0.020979
    15  C   -0.295282
    16  C   -0.296647
    17  C   -0.315852
    18  C   -0.314006
    19  C   -0.128027
    20  C   -0.139924
    21  C   -0.359970
    22  C   -0.333061
    23  C   -0.120859
    24  C   -0.104224
    25  C    0.078061
    26  C    0.068898
    27  C   -0.353236
    28  C   -0.336923
    29  C   -0.102668
    30  C   -0.110264
    31  C   -0.100631
    32  C   -0.093575
    33  C   -0.100799
    34  C   -0.088639
    35  C    0.102217
    36  C    0.129252
    37  C   -0.296115
    38  C   -0.363657
    39  C   -0.119248
    40  C   -0.039263
    41  C   -0.066597
    42  C   -0.098521
    43  H    0.089713
    44  H    0.082341
    45  H    0.076744
    46  H    0.109251
    47  H    0.089200
    48  H    0.074689
    49  H    0.134861
    50  H    0.113266
    51  H    0.121993
    52  H    0.121131
    53  H    0.101305
    54  H    0.103158
    55  H    0.102716
    56  H    0.112658
    57  H    0.075761
    58  H    0.072215
    59  H    0.115726
    60  H    0.088344
    61  H    0.107484
    62  H    0.109936
    63  H    0.065168
    64  H    0.122704
    65  H    0.097141
    66  H    0.084965
    67  H    0.120798
    68  H    0.135052
    69  H    0.062649
    70  H    0.107046
    71  H    0.127005
    72  H    0.112581
    73  H    0.283489
    74  H    0.304326
    75  H    0.103977
    76  H    0.093872
    77  H    0.114296
    78  H    0.136538
    79  H    0.084633
    80  H    0.138919
    81  H    0.110208
    82  H    0.100824
    83  H    0.093172
    84  H    0.081476
    85  H    0.080028
    86  H    0.082656
    87  H    0.076063
    88  H    0.031597
    89  H    0.072627
    90  H    0.075978
    91  H    0.065390
    92  H    0.089725
    93  H    0.114754
    94  H    0.108358
    95  H    0.083158
    96  H    0.050351
    97  H    0.075107
    98  H    0.068747
 Sum of Mulliken charges =  -0.00000

 Dipole moment (field-independent basis, Debye):
    X=             -0.0079    Y=             -2.7395    Z=              0.7460  Tot=              2.8393
 Quadrupole moment (field-independent basis, Debye-Ang):
   XX=           -254.5636   YY=           -249.5289   ZZ=           -261.6982
   XY=             15.0217   XZ=              5.0616   YZ=             -4.5200

 Normal termination of Gaussian 16 at Thu Jul 11 11:43:21 2019.
