 Gaussian 16, Revision A.03,
 Gaussian 16:  ES64L-G16RevA.03 25-Dec-2016

 -------------------------------------
 # td=(NStates=1) CAM-B3LYP/6-31G(d,p)
 -------------------------------------

 --
 TD
 --
 Symbolic Z-matrix:
 Charge =  0 Multiplicity = 1

                         Standard orientation:
 ---------------------------------------------------------------------
 Center     Atomic      Atomic             Coordinates (Angstroms)
 Number     Number       Type             X           Y           Z
 ---------------------------------------------------------------------
      1          8           0       14.778003   -2.116404   -0.051713
      2          8           0      -14.753975    1.901672    0.925113
      3          6           0       11.111543   -1.465305    0.859066
      4          6           0      -12.363948   -1.067315    0.677282
      5          6           0       12.571757   -1.916201    1.126793
      6          6           0      -13.667908   -0.300595    0.561172
      7          6           0       13.473392   -1.943362   -0.165877
      8          6           0      -13.561940    1.213190    0.889945
      9          6           0       10.912376   -0.259456    0.007112
     10          6           0      -11.303321   -0.212052    0.078908
     11          6           0       13.299505   -0.506956   -0.814408
     12          6           0      -12.785177    1.797624   -0.291511
     13          6           0       11.901298    0.089924   -0.858795
     14          6           0      -11.438295    0.997258   -0.517058
     15          6           0       10.594128   -1.222514    2.320860
     16          6           0       10.305047   -2.658053    0.238892
     17          6           0      -11.894120   -1.146285    2.162541
     18          6           0      -12.699578   -2.501859    0.046940
     19          6           0        9.614674    0.270627    0.096634
     20          6           0      -10.087917   -1.015952   -0.100022
     21          6           0       11.763267    1.338653   -1.694707
     22          6           0      -10.594616    1.713840   -1.454246
     23          6           0        9.338718    1.659619    0.196469
     24          6           0       -8.759436   -0.448656   -0.333627
     25          6           0        8.140190    2.248646    0.185787
     26          6           0       -7.557139   -1.142603   -0.559318
     27          6           0        8.023989    3.731891    0.601917
     28          6           0       -7.748989   -2.577717   -0.919044
     29          6           0        6.891472    1.529915   -0.070286
     30          6           0       -6.341072   -0.488624   -0.416568
     31          6           0        5.573615    2.139885    0.050068
     32          6           0       -5.060324   -1.027305   -0.685044
     33          6           0        4.445557    1.347155   -0.173032
     34          6           0       -3.894914   -0.325696   -0.449727
     35          6           0        3.129394    1.682694    0.136789
     36          6           0       -2.514282   -0.745792   -0.688075
     37          6           0        2.832820    3.153528    0.526745
     38          6           0       -2.315742   -2.217944   -1.168291
     39          6           0        2.254874    0.710670   -0.175885
     40          6           0       -1.521549    0.169574   -0.377144
     41          6           0        0.823856    0.867197   -0.096205
     42          6           0       -0.091018   -0.051460   -0.495628
     43          1           0       13.048843   -1.227134    1.748971
     44          1           0       12.386735   -2.852398    1.619523
     45          1           0      -14.490715   -0.953476    1.013523
     46          1           0      -14.397693   -0.431396   -0.279961
     47          1           0       12.931531   -2.575450   -0.886712
     48          1           0      -12.996867    1.331585    1.782039
     49          1           0       13.812018    0.196427   -0.162436
     50          1           0       13.549182   -0.473014   -1.899547
     51          1           0      -13.527205    1.795825   -0.888891
     52          1           0      -12.422805    2.829203    0.267841
     53          1           0       10.979245   -2.040842    3.027776
     54          1           0        9.347561   -1.344603    2.526637
     55          1           0       10.956924   -0.197952    2.601756
     56          1           0       10.775752   -3.079788   -0.649630
     57          1           0       10.416268   -3.525969    0.882488
     58          1           0        9.247982   -2.523808   -0.039752
     59          1           0      -11.964944   -0.208640    2.727048
     60          1           0      -10.751861   -1.410236    1.969229
     61          1           0      -12.507446   -1.827852    2.506908
     62          1           0      -13.507075   -3.054167    0.534699
     63          1           0      -11.827135   -3.239498    0.167858
     64          1           0      -12.787048   -2.403522   -0.989459
     65          1           0        8.701187   -0.409750    0.292351
     66          1           0      -10.011145   -2.135809   -0.046810
     67          1           0       10.703028    1.521462   -1.817381
     68          1           0       12.136943    2.277042   -1.147131
     69          1           0       12.361109    1.160930   -2.690487
     70          1           0      -11.407917    2.096351   -2.217360
     71          1           0      -10.072091    1.008349   -2.100190
     72          1           0       -9.966774    2.553647   -1.159204
     73          1           0       15.075063   -2.992922    0.350970
     74          1           0      -15.223654    1.719618    1.681401
     75          1           0       10.284631    2.220777    0.198518
     76          1           0       -8.459226    0.686083   -0.293224
     77          1           0        8.882657    4.222817    0.500583
     78          1           0        7.110444    4.226099    0.097103
     79          1           0        7.803046    3.731172    1.723631
     80          1           0       -8.256177   -3.065471   -0.161890
     81          1           0       -8.558539   -2.649551   -1.752286
     82          1           0       -6.759776   -2.981387   -1.261165
     83          1           0        6.957816    0.494343   -0.323009
     84          1           0       -6.433655    0.459634   -0.358524
     85          1           0        5.479307    3.103684    0.318646
     86          1           0       -4.872165   -2.182346   -0.904140
     87          1           0        4.533075    0.209097   -0.315748
     88          1           0       -4.100195    0.677072   -0.233598
     89          1           0        3.207186    3.470220    1.469426
     90          1           0        1.866450    3.173008    0.861858
     91          1           0        3.059299    4.005034   -0.075485
     92          1           0       -2.717735   -3.036494   -0.543996
     93          1           0       -2.551769   -2.393746   -2.232218
     94          1           0       -1.337635   -2.459224   -1.144537
     95          1           0        2.536282   -0.291676   -0.452559
     96          1           0       -1.901573    1.164724    0.230703
     97          1           0        0.429353    1.900224   -0.003143
     98          1           0        0.238566   -1.069566   -0.614756
 ---------------------------------------------------------------------

 SCF Done:  E(RCAM-B3LYP) =  -1706.96565095     A.U. after   15 cycles

 Excitation energies and oscillator strengths:

 Excited State   1:      Singlet-A      2.1639 eV  572.97 nm  f=3.6223  <S**2>=0.000
     155 ->158        -0.19856
     156 ->157         0.67427
 This state for optimization and/or second-order correction.
 Total Energy, E(TD-HF/TD-DFT) =  -1706.88613022
 Copying the excited state density for this state as the 1-particle RhoCI density.

 The electronic state is 1-A.
 Alpha  occ. eigenvalues --  -19.22708 -19.20838 -10.30679 -10.29273 -10.28137
 Alpha  occ. eigenvalues --  -10.27845 -10.27276 -10.27148 -10.27066 -10.27044
 Alpha  occ. eigenvalues --  -10.26768 -10.26693 -10.26670 -10.26634 -10.26488
 Alpha  occ. eigenvalues --  -10.26302 -10.26269 -10.26242 -10.26196 -10.26128
 Alpha  occ. eigenvalues --  -10.26090 -10.26014 -10.25904 -10.25708 -10.25647
 Alpha  occ. eigenvalues --  -10.25619 -10.25553 -10.25520 -10.25353 -10.25346
 Alpha  occ. eigenvalues --  -10.25278 -10.25200 -10.25043 -10.25023 -10.24786
 Alpha  occ. eigenvalues --  -10.24744 -10.24580 -10.24356 -10.24348 -10.24328
 Alpha  occ. eigenvalues --  -10.24287 -10.23786  -1.12499  -1.11791  -0.93678
 Alpha  occ. eigenvalues --   -0.93575  -0.92190  -0.91362  -0.90102  -0.89559
 Alpha  occ. eigenvalues --   -0.86855  -0.86719  -0.86351  -0.84862  -0.84255
 Alpha  occ. eigenvalues --   -0.83107  -0.82030  -0.79322  -0.79087  -0.78978
 Alpha  occ. eigenvalues --   -0.77353  -0.76837  -0.76568  -0.76026  -0.75925
 Alpha  occ. eigenvalues --   -0.75275  -0.74950  -0.73990  -0.73203  -0.70645
 Alpha  occ. eigenvalues --   -0.69375  -0.67616  -0.66220  -0.65605  -0.64750
 Alpha  occ. eigenvalues --   -0.63233  -0.62774  -0.61771  -0.61025  -0.60927
 Alpha  occ. eigenvalues --   -0.60100  -0.59742  -0.58531  -0.57677  -0.56323
 Alpha  occ. eigenvalues --   -0.55985  -0.55598  -0.54851  -0.54440  -0.54229
 Alpha  occ. eigenvalues --   -0.52864  -0.52401  -0.51619  -0.51403  -0.50998
 Alpha  occ. eigenvalues --   -0.50647  -0.50315  -0.50147  -0.49318  -0.48883
 Alpha  occ. eigenvalues --   -0.48638  -0.48446  -0.48200  -0.48026  -0.47520
 Alpha  occ. eigenvalues --   -0.47420  -0.47011  -0.46963  -0.46815  -0.46540
 Alpha  occ. eigenvalues --   -0.45819  -0.45400  -0.45268  -0.45073  -0.45053
 Alpha  occ. eigenvalues --   -0.44832  -0.44428  -0.43995  -0.43793  -0.43737
 Alpha  occ. eigenvalues --   -0.43507  -0.43293  -0.42855  -0.42509  -0.42126
 Alpha  occ. eigenvalues --   -0.41880  -0.41653  -0.41575  -0.40686  -0.40426
 Alpha  occ. eigenvalues --   -0.40235  -0.40054  -0.39776  -0.39399  -0.39177
 Alpha  occ. eigenvalues --   -0.38903  -0.38610  -0.38542  -0.38193  -0.37756
 Alpha  occ. eigenvalues --   -0.37651  -0.37018  -0.36731  -0.35952  -0.35732
 Alpha  occ. eigenvalues --   -0.34719  -0.34014  -0.32621  -0.32280  -0.31629
 Alpha  occ. eigenvalues --   -0.31402  -0.29772  -0.28100  -0.25818  -0.21731
 Alpha  occ. eigenvalues --   -0.19073
 Alpha virt. eigenvalues --   -0.05369  -0.02150   0.01956   0.05899   0.08208
 Alpha virt. eigenvalues --    0.09555   0.11561   0.11862   0.12524   0.12651
 Alpha virt. eigenvalues --    0.13077   0.13322   0.13511   0.13622   0.14385

 Mulliken charges:
               1
     1  O   -0.533371
     2  O   -0.543459
     3  C   -0.024972
     4  C   -0.014311
     5  C   -0.202481
     6  C   -0.205762
     7  C    0.187392
     8  C    0.146207
     9  C    0.086154
    10  C    0.099970
    11  C   -0.212925
    12  C   -0.178748
    13  C    0.020865
    14  C    0.036717
    15  C   -0.287090
    16  C   -0.309775
    17  C   -0.273398
    18  C   -0.322213
    19  C   -0.114932
    20  C   -0.170748
    21  C   -0.358815
    22  C   -0.363298
    23  C   -0.133018
    24  C   -0.116839
    25  C    0.088859
    26  C    0.122389
    27  C   -0.358720
    28  C   -0.378939
    29  C   -0.116542
    30  C   -0.102707
    31  C   -0.075610
    32  C   -0.089028
    33  C   -0.121376
    34  C   -0.111758
    35  C    0.126173
    36  C    0.099946
    37  C   -0.384404
    38  C   -0.378252
    39  C   -0.125547
    40  C   -0.134099
    41  C   -0.089406
    42  C   -0.095838
    43  H    0.101625
    44  H    0.085322
    45  H    0.051060
    46  H    0.087203
    47  H    0.062644
    48  H    0.075648
    49  H    0.123018
    50  H    0.101645
    51  H    0.120347
    52  H    0.084782
    53  H    0.089873
    54  H    0.066867
    55  H    0.108149
    56  H    0.100501
    57  H    0.091685
    58  H    0.106485
    59  H    0.105308
    60  H    0.097522
    61  H    0.101284
    62  H    0.112902
    63  H    0.084829
    64  H    0.128997
    65  H    0.088791
    66  H    0.090342
    67  H    0.134088
    68  H    0.109061
    69  H    0.085751
    70  H    0.097595
    71  H    0.123939
    72  H    0.123346
    73  H    0.315224
    74  H    0.298360
    75  H    0.083121
    76  H    0.071726
    77  H    0.115170
    78  H    0.106512
    79  H    0.117339
    80  H    0.132431
    81  H    0.109540
    82  H    0.103822
    83  H    0.077905
    84  H    0.065497
    85  H    0.077776
    86  H    0.074281
    87  H    0.072512
    88  H    0.073800
    89  H    0.122391
    90  H    0.114282
    91  H    0.134317
    92  H    0.123790
    93  H    0.125170
    94  H    0.114650
    95  H    0.088710
    96  H    0.083789
    97  H    0.084791
    98  H    0.086195
 Sum of Mulliken charges =  -0.00000

 Dipole moment (field-independent basis, Debye):
    X=              0.8966    Y=             -2.1154    Z=              1.7948  Tot=              2.9155
 Quadrupole moment (field-independent basis, Debye-Ang):
   XX=           -244.5696   YY=           -238.7455   ZZ=           -263.5210
   XY=             -0.1961   XZ=             -1.9471   YZ=              5.2058

 Normal termination of Gaussian 16 at Fri Jul 19 08:00:21 2019.
