 Gaussian 16, Revision A.03,
 Gaussian 16:  ES64L-G16RevA.03 25-Dec-2016

 -------------------------------------
 # td=(NStates=1) CAM-B3LYP/6-31G(d,p)
 -------------------------------------

 --
 TD
 --
 Symbolic Z-matrix:
 Charge =  0 Multiplicity = 1

                         Standard orientation:
 ---------------------------------------------------------------------
 Center     Atomic      Atomic             Coordinates (Angstroms)
 Number     Number       Type             X           Y           Z
 ---------------------------------------------------------------------
      1          8           0       14.722161   -2.340977   -0.096599
      2          8           0      -14.703678    1.648655    1.333965
      3          6           0       10.980405   -1.472397    0.948017
      4          6           0      -12.174319   -1.119629    0.810800
      5          6           0       12.555535   -1.990732    1.136325
      6          6           0      -13.582559   -0.388160    0.792895
      7          6           0       13.327863   -2.012503   -0.223772
      8          6           0      -13.414575    1.016754    1.028757
      9          6           0       10.921163   -0.343396    0.005600
     10          6           0      -11.288373   -0.277029   -0.270908
     11          6           0       13.272280   -0.692766   -0.782513
     12          6           0      -12.765614    1.653858   -0.103895
     13          6           0       11.926531    0.081793   -0.777216
     14          6           0      -11.635137    0.926176   -0.634703
     15          6           0       10.646189   -1.174142    2.329347
     16          6           0       10.296939   -2.748577    0.455094
     17          6           0      -11.655575   -1.177733    2.228553
     18          6           0      -12.442290   -2.592851    0.116685
     19          6           0        9.653366    0.268498    0.102286
     20          6           0      -10.048197   -0.911769   -0.670423
     21          6           0       11.840608    1.112957   -1.830495
     22          6           0      -10.772387    1.691922   -1.697354
     23          6           0        9.311600    1.668409    0.002161
     24          6           0       -8.757957   -0.491128   -0.436623
     25          6           0        8.120252    2.248961    0.116137
     26          6           0       -7.462889   -1.184314   -0.696349
     27          6           0        8.091238    3.739472    0.536786
     28          6           0       -7.639658   -2.607833   -1.152208
     29          6           0        6.811655    1.608364   -0.080101
     30          6           0       -6.395382   -0.492223   -0.469989
     31          6           0        5.556152    2.054854    0.156857
     32          6           0       -5.094894   -0.956290   -0.666059
     33          6           0        4.409499    1.429942   -0.158834
     34          6           0       -4.059961   -0.164247   -0.508390
     35          6           0        3.144465    1.837865    0.186916
     36          6           0       -2.681384   -0.429326   -0.659500
     37          6           0        2.950371    3.197516    0.727443
     38          6           0       -2.350960   -1.885495   -1.220406
     39          6           0        2.124391    0.973847   -0.129068
     40          6           0       -1.640977    0.363214   -0.310621
     41          6           0        0.671699    1.185260   -0.120824
     42          6           0       -0.267942    0.121830   -0.406231
     43          1           0       13.116098   -1.441457    1.979533
     44          1           0       12.531340   -3.124945    1.557860
     45          1           0      -14.273252   -0.994828    1.417985
     46          1           0      -13.713109   -0.611648   -0.370925
     47          1           0       12.845668   -2.724576   -0.913592
     48          1           0      -13.013425    1.088270    2.117144
     49          1           0       13.945168   -0.156532   -0.098735
     50          1           0       13.690829   -0.691858   -1.807437
     51          1           0      -13.393353    1.579070   -0.905307
     52          1           0      -12.404276    2.640659    0.209115
     53          1           0       10.772778   -2.195905    2.825108
     54          1           0        9.473237   -1.147965    2.443978
     55          1           0       11.049832   -0.168726    2.838894
     56          1           0       10.729476   -3.177298   -0.468218
     57          1           0       10.170351   -3.577677    1.264099
     58          1           0        9.215495   -2.386727    0.279736
     59          1           0      -11.584295   -0.142625    2.633813
     60          1           0      -10.629692   -1.784444    2.253285
     61          1           0      -12.340283   -1.810421    2.826398
     62          1           0      -12.910079   -3.129526    0.959728
     63          1           0      -11.474395   -3.272955    0.203787
     64          1           0      -12.935047   -2.457137   -0.936851
     65          1           0        8.737916   -0.320474    0.251883
     66          1           0      -10.004746   -2.106616   -0.862866
     67          1           0       10.854845    1.539308   -2.214299
     68          1           0       12.368693    2.098497   -1.364555
     69          1           0       12.591439    0.792537   -2.601139
     70          1           0      -11.590781    1.977320   -2.605850
     71          1           0      -10.022536    1.055595   -1.921441
     72          1           0      -10.444072    2.834777   -1.226686
     73          1           0       14.760476   -3.283143    0.331923
     74          1           0      -15.310863    1.253966    2.193115
     75          1           0       10.116107    2.383078    0.208469
     76          1           0       -8.628746    0.633408   -0.268413
     77          1           0        9.010254    4.207458    0.273294
     78          1           0        7.298401    4.266574    0.084338
     79          1           0        7.924866    3.900005    1.777930
     80          1           0       -8.071555   -3.387554   -0.388989
     81          1           0       -8.285538   -2.549914   -2.003578
     82          1           0       -6.785734   -3.089060   -1.320388
     83          1           0        6.866557    0.584010   -0.467916
     84          1           0       -6.511175    0.603138   -0.254908
     85          1           0        5.441672    3.041730    0.664376
     86          1           0       -4.964367   -2.086811   -0.947854
     87          1           0        4.544169    0.388985   -0.620858
     88          1           0       -4.370816    0.806803   -0.372223
     89          1           0        3.637984    3.495247    1.645708
     90          1           0        1.928313    3.529172    1.063636
     91          1           0        3.371271    3.933030   -0.214613
     92          1           0       -3.136798   -2.475005   -0.511869
     93          1           0       -2.759549   -1.880963   -2.210681
     94          1           0       -1.339508   -2.119394   -1.352566
     95          1           0        2.428516    0.212025   -0.516177
     96          1           0       -2.039579    1.419420   -0.065353
     97          1           0        0.376670    1.990317    0.297342
     98          1           0        0.104240   -0.833339   -0.732185
 ---------------------------------------------------------------------

 SCF Done:  E(RCAM-B3LYP) =  -1706.88905544     A.U. after   15 cycles

 Excitation energies and oscillator strengths:

 Excited State   1:      Singlet-A      2.0501 eV  604.76 nm  f=3.3084  <S**2>=0.000
     155 ->158        -0.14567
     156 ->157         0.69522
     156 <-157        -0.10136
 This state for optimization and/or second-order correction.
 Total Energy, E(TD-HF/TD-DFT) =  -1706.81371447
 Copying the excited state density for this state as the 1-particle RhoCI density.

 The electronic state is 1-A.
 Alpha  occ. eigenvalues --  -19.21907 -19.20098 -10.30205 -10.30141 -10.28331
 Alpha  occ. eigenvalues --  -10.28109 -10.27580 -10.27560 -10.27366 -10.27252
 Alpha  occ. eigenvalues --  -10.27121 -10.27054 -10.27018 -10.26949 -10.26858
 Alpha  occ. eigenvalues --  -10.26839 -10.26752 -10.26737 -10.26628 -10.26507
 Alpha  occ. eigenvalues --  -10.26501 -10.26329 -10.26275 -10.26241 -10.26137
 Alpha  occ. eigenvalues --  -10.26039 -10.25962 -10.25871 -10.25737 -10.25689
 Alpha  occ. eigenvalues --  -10.25570 -10.25558 -10.25554 -10.25504 -10.25487
 Alpha  occ. eigenvalues --  -10.25333 -10.25187 -10.25172 -10.25089 -10.24985
 Alpha  occ. eigenvalues --  -10.24435 -10.24293  -1.08174  -1.04784  -0.94604
 Alpha  occ. eigenvalues --   -0.94096  -0.93086  -0.92769  -0.90704  -0.90108
 Alpha  occ. eigenvalues --   -0.87953  -0.87572  -0.86832  -0.86044  -0.85104
 Alpha  occ. eigenvalues --   -0.84133  -0.82375  -0.79861  -0.79425  -0.78584
 Alpha  occ. eigenvalues --   -0.77258  -0.76406  -0.75968  -0.75742  -0.75609
 Alpha  occ. eigenvalues --   -0.75237  -0.74706  -0.74078  -0.73836  -0.70946
 Alpha  occ. eigenvalues --   -0.69847  -0.67542  -0.65572  -0.64923  -0.64304
 Alpha  occ. eigenvalues --   -0.63748  -0.62884  -0.61353  -0.61079  -0.59856
 Alpha  occ. eigenvalues --   -0.59175  -0.58644  -0.57985  -0.57686  -0.56386
 Alpha  occ. eigenvalues --   -0.55796  -0.55091  -0.54642  -0.54464  -0.54015
 Alpha  occ. eigenvalues --   -0.53081  -0.52869  -0.52615  -0.51845  -0.51620
 Alpha  occ. eigenvalues --   -0.51353  -0.50091  -0.49960  -0.49537  -0.49038
 Alpha  occ. eigenvalues --   -0.48395  -0.48337  -0.48005  -0.47801  -0.47520
 Alpha  occ. eigenvalues --   -0.47013  -0.46860  -0.46697  -0.46518  -0.46351
 Alpha  occ. eigenvalues --   -0.45839  -0.45565  -0.45268  -0.45044  -0.44637
 Alpha  occ. eigenvalues --   -0.44530  -0.44209  -0.43901  -0.43854  -0.43436
 Alpha  occ. eigenvalues --   -0.43300  -0.43263  -0.42905  -0.42203  -0.42036
 Alpha  occ. eigenvalues --   -0.41979  -0.41865  -0.41119  -0.41073  -0.41007
 Alpha  occ. eigenvalues --   -0.40516  -0.40229  -0.40190  -0.39566  -0.39294
 Alpha  occ. eigenvalues --   -0.39029  -0.38982  -0.38472  -0.38136  -0.37803
 Alpha  occ. eigenvalues --   -0.37747  -0.37099  -0.36712  -0.35758  -0.35364
 Alpha  occ. eigenvalues --   -0.35298  -0.33919  -0.33302  -0.32346  -0.31466
 Alpha  occ. eigenvalues --   -0.30391  -0.30240  -0.29056  -0.26484  -0.23368
 Alpha  occ. eigenvalues --   -0.18902
 Alpha virt. eigenvalues --   -0.06177  -0.01585   0.02496   0.06288   0.08095
 Alpha virt. eigenvalues --    0.08889   0.09736   0.10945   0.11345   0.11579
 Alpha virt. eigenvalues --    0.11818   0.12402   0.12509   0.13004   0.13243

 Mulliken charges:
               1
     1  O   -0.566812
     2  O   -0.617720
     3  C   -0.020408
     4  C   -0.015866
     5  C   -0.205353
     6  C   -0.184886
     7  C    0.172624
     8  C    0.228463
     9  C    0.109407
    10  C    0.074398
    11  C   -0.214387
    12  C   -0.198955
    13  C    0.058351
    14  C    0.023025
    15  C   -0.281513
    16  C   -0.293754
    17  C   -0.299283
    18  C   -0.306260
    19  C   -0.130590
    20  C   -0.191087
    21  C   -0.360014
    22  C   -0.307167
    23  C   -0.131047
    24  C   -0.087424
    25  C    0.092646
    26  C    0.125973
    27  C   -0.358635
    28  C   -0.366491
    29  C   -0.134870
    30  C   -0.131016
    31  C   -0.058298
    32  C   -0.073861
    33  C   -0.131041
    34  C   -0.099372
    35  C    0.161856
    36  C    0.079885
    37  C   -0.379030
    38  C   -0.357735
    39  C   -0.088805
    40  C   -0.114611
    41  C   -0.065034
    42  C   -0.089668
    43  H    0.096448
    44  H    0.052874
    45  H    0.081420
    46  H    0.074436
    47  H    0.076582
    48  H    0.068942
    49  H    0.127496
    50  H    0.104296
    51  H    0.137829
    52  H    0.118543
    53  H    0.097371
    54  H    0.075553
    55  H    0.108396
    56  H    0.114164
    57  H    0.096637
    58  H    0.089142
    59  H    0.113154
    60  H    0.093126
    61  H    0.099108
    62  H    0.099978
    63  H    0.087025
    64  H    0.115164
    65  H    0.093690
    66  H    0.069699
    67  H    0.132656
    68  H    0.097203
    69  H    0.108604
    70  H    0.079685
    71  H    0.128413
    72  H    0.076703
    73  H    0.308242
    74  H    0.301577
    75  H    0.080272
    76  H    0.068735
    77  H    0.111807
    78  H    0.124994
    79  H    0.085019
    80  H    0.106656
    81  H    0.136370
    82  H    0.111086
    83  H    0.067215
    84  H    0.086530
    85  H    0.075871
    86  H    0.081185
    87  H    0.077793
    88  H    0.074791
    89  H    0.110734
    90  H    0.113574
    91  H    0.097142
    92  H    0.103657
    93  H    0.127078
    94  H    0.108208
    95  H    0.036583
    96  H    0.070368
    97  H    0.063866
    98  H    0.090676
 Sum of Mulliken charges =  -0.00000

 Dipole moment (field-independent basis, Debye):
    X=              0.1701    Y=             -2.2316    Z=              1.1341  Tot=              2.5090
 Quadrupole moment (field-independent basis, Debye-Ang):
   XX=           -281.2071   YY=           -244.5471   ZZ=           -259.5157
   XY=             10.7726   XZ=             -8.9239   YZ=              1.7238

 Normal termination of Gaussian 16 at Sat Jul 20 08:42:48 2019.
