 Gaussian 16, Revision A.03,
 Gaussian 16:  ES64L-G16RevA.03 25-Dec-2016

 -------------------------------------
 # td=(NStates=1) CAM-B3LYP/6-31G(d,p)
 -------------------------------------

 --
 TD
 --
 Symbolic Z-matrix:
 Charge =  0 Multiplicity = 1

                         Standard orientation:
 ---------------------------------------------------------------------
 Center     Atomic      Atomic             Coordinates (Angstroms)
 Number     Number       Type             X           Y           Z
 ---------------------------------------------------------------------
      1          8           0       14.848837   -2.066088   -0.138177
      2          8           0      -14.799833    1.838418    1.075582
      3          6           0       11.168712   -1.592516    1.003017
      4          6           0      -12.432410   -1.079653    0.603505
      5          6           0       12.788530   -1.866559    1.094791
      6          6           0      -13.712576   -0.317612    0.583530
      7          6           0       13.428680   -1.890580   -0.268777
      8          6           0      -13.601996    1.220879    1.045266
      9          6           0       10.948743   -0.296907    0.001519
     10          6           0      -11.346125   -0.252669   -0.122842
     11          6           0       13.263609   -0.565213   -0.992344
     12          6           0      -12.696435    1.888308   -0.034508
     13          6           0       11.986191    0.008723   -0.815231
     14          6           0      -11.504265    1.030717   -0.444571
     15          6           0       10.723745   -1.236342    2.382170
     16          6           0       10.328532   -2.727851    0.425137
     17          6           0      -11.958660   -1.483278    1.996252
     18          6           0      -12.749349   -2.427671   -0.228049
     19          6           0        9.649778    0.346982    0.159024
     20          6           0      -10.034841   -0.953152   -0.413873
     21          6           0       11.867735    1.274257   -1.747866
     22          6           0      -10.627326    1.852392   -1.428142
     23          6           0        9.317413    1.616058    0.088654
     24          6           0       -8.826552   -0.489574   -0.282898
     25          6           0        8.048163    2.276890    0.315163
     26          6           0       -7.592266   -1.228731   -0.629141
     27          6           0        8.050379    3.741737    0.549258
     28          6           0       -7.687785   -2.597839   -1.041940
     29          6           0        6.923632    1.554472    0.204710
     30          6           0       -6.413446   -0.561566   -0.410210
     31          6           0        5.517818    2.047302    0.298759
     32          6           0       -5.082350   -0.964527   -0.538276
     33          6           0        4.462571    1.289241   -0.105895
     34          6           0       -3.948745   -0.276246   -0.385740
     35          6           0        3.089141    1.796846    0.056525
     36          6           0       -2.616633   -0.684883   -0.632152
     37          6           0        2.816503    3.209803    0.280534
     38          6           0       -2.341654   -2.121227   -0.985727
     39          6           0        2.208957    0.847802   -0.262734
     40          6           0       -1.602696    0.176238   -0.402830
     41          6           0        0.756503    0.881816   -0.102104
     42          6           0       -0.131456   -0.037064   -0.553059
     43          1           0       13.329829   -1.174250    1.636104
     44          1           0       13.032355   -2.565082    1.728625
     45          1           0      -14.147171   -0.804615    1.503934
     46          1           0      -14.194629   -0.365223   -0.420329
     47          1           0       13.089556   -2.774061   -0.770038
     48          1           0      -12.997264    1.274023    2.062040
     49          1           0       14.155423    0.085924   -0.455507
     50          1           0       13.591696   -0.830806   -1.850020
     51          1           0      -13.349307    2.149182   -0.942802
     52          1           0      -12.493427    2.884372    0.336791
     53          1           0       10.821410   -1.940464    3.120921
     54          1           0        9.591130   -1.285882    2.520305
     55          1           0       11.132431   -0.351211    2.758678
     56          1           0       10.531926   -3.019962   -0.597280
     57          1           0       10.360538   -3.578470    0.945991
     58          1           0        9.182163   -2.546227    0.480877
     59          1           0      -11.761662   -0.655834    2.772000
     60          1           0      -11.062728   -2.168139    2.047189
     61          1           0      -12.840023   -2.147168    2.373172
     62          1           0      -13.746118   -2.826744    0.030128
     63          1           0      -12.114122   -3.373993    0.233627
     64          1           0      -12.840056   -2.240133   -1.266503
     65          1           0        8.755299   -0.408764    0.491720
     66          1           0      -10.228189   -2.037491   -0.525211
     67          1           0       10.773555    1.512986   -1.840500
     68          1           0       12.445944    2.132242   -1.354477
     69          1           0       12.164717    1.060268   -2.669134
     70          1           0      -11.263217    2.586057   -1.823367
     71          1           0      -10.080300    1.354612   -2.093507
     72          1           0      -10.070148    2.469403   -0.836883
     73          1           0       15.109489   -3.172806   -0.072883
     74          1           0      -15.353584    1.415357    1.676680
     75          1           0       10.279221    2.390531   -0.012636
     76          1           0       -8.686194    0.448363    0.143061
     77          1           0        9.005665    4.307365    0.364051
     78          1           0        7.500338    4.159688   -0.186613
     79          1           0        7.621497    4.209035    1.513920
     80          1           0       -7.965860   -3.126599   -0.202186
     81          1           0       -8.209404   -2.784489   -1.946209
     82          1           0       -6.709980   -3.053720   -1.385616
     83          1           0        7.135927    0.440334   -0.358151
     84          1           0       -6.451828    0.409255    0.040786
     85          1           0        5.269438    3.039698    0.764523
     86          1           0       -4.929165   -2.002980   -0.755441
     87          1           0        4.542241    0.297194   -0.439185
     88          1           0       -4.123632    0.715986   -0.159146
     89          1           0        3.253370    3.731125    1.204070
     90          1           0        1.852668    3.595093    0.293123
     91          1           0        3.423924    3.815231   -0.448853
     92          1           0       -2.335665   -2.938443   -0.037711
     93          1           0       -3.049341   -2.511125   -1.938296
     94          1           0       -1.390201   -2.304875   -1.420084
     95          1           0        2.625528   -0.152113   -0.521419
     96          1           0       -1.623375    1.139642    0.046633
     97          1           0        0.364193    1.776574    0.249888
     98          1           0        0.056468   -0.889320   -1.061528
 ---------------------------------------------------------------------

 SCF Done:  E(RCAM-B3LYP) =  -1706.98137226     A.U. after   14 cycles

 Excitation energies and oscillator strengths:

 Excited State   1:      Singlet-A      2.8885 eV  429.24 nm  f=3.7351  <S**2>=0.000
     155 ->158        -0.20777
     156 ->157         0.66671
 This state for optimization and/or second-order correction.
 Total Energy, E(TD-HF/TD-DFT) =  -1706.87522279
 Copying the excited state density for this state as the 1-particle RhoCI density.

 The electronic state is 1-A.
 Alpha  occ. eigenvalues --  -19.21655 -19.21603 -10.31083 -10.29123 -10.27920
 Alpha  occ. eigenvalues --  -10.27862 -10.27594 -10.27179 -10.27063 -10.26896
 Alpha  occ. eigenvalues --  -10.26734 -10.26641 -10.26579 -10.26294 -10.26216
 Alpha  occ. eigenvalues --  -10.26179 -10.26147 -10.26145 -10.26133 -10.26071
 Alpha  occ. eigenvalues --  -10.26023 -10.25990 -10.25925 -10.25795 -10.25769
 Alpha  occ. eigenvalues --  -10.25670 -10.25143 -10.25117 -10.25112 -10.25008
 Alpha  occ. eigenvalues --  -10.24927 -10.24858 -10.24534 -10.24476 -10.24446
 Alpha  occ. eigenvalues --  -10.24250 -10.24203 -10.23900 -10.23109 -10.22859
 Alpha  occ. eigenvalues --  -10.22498 -10.22390  -1.12960  -1.06340  -0.92972
 Alpha  occ. eigenvalues --   -0.92464  -0.92238  -0.91811  -0.90582  -0.90171
 Alpha  occ. eigenvalues --   -0.87298  -0.86904  -0.86622  -0.85035  -0.84407
 Alpha  occ. eigenvalues --   -0.82887  -0.81848  -0.80290  -0.80061  -0.78703
 Alpha  occ. eigenvalues --   -0.77156  -0.77087  -0.76698  -0.76144  -0.76027
 Alpha  occ. eigenvalues --   -0.75496  -0.75316  -0.74739  -0.73806  -0.70679
 Alpha  occ. eigenvalues --   -0.68579  -0.67419  -0.65963  -0.64984  -0.64222
 Alpha  occ. eigenvalues --   -0.64027  -0.62572  -0.61947  -0.61005  -0.60734
 Alpha  occ. eigenvalues --   -0.59696  -0.58923  -0.58519  -0.57213  -0.56388
 Alpha  occ. eigenvalues --   -0.56078  -0.55730  -0.54972  -0.54161  -0.53153
 Alpha  occ. eigenvalues --   -0.53000  -0.52695  -0.52427  -0.51705  -0.51224
 Alpha  occ. eigenvalues --   -0.51031  -0.50455  -0.50310  -0.49128  -0.49086
 Alpha  occ. eigenvalues --   -0.48914  -0.48607  -0.48404  -0.48195  -0.48031
 Alpha  occ. eigenvalues --   -0.47589  -0.47100  -0.46992  -0.46509  -0.46310
 Alpha  occ. eigenvalues --   -0.46170  -0.45567  -0.45377  -0.45066  -0.44667
 Alpha  occ. eigenvalues --   -0.44454  -0.43952  -0.43445  -0.43082  -0.42906
 Alpha  occ. eigenvalues --   -0.42740  -0.42544  -0.42272  -0.42129  -0.41693
 Alpha  occ. eigenvalues --   -0.41480  -0.41247  -0.41141  -0.40938  -0.40587
 Alpha  occ. eigenvalues --   -0.40543  -0.40174  -0.39765  -0.39543  -0.39359
 Alpha  occ. eigenvalues --   -0.39352  -0.38939  -0.38896  -0.38551  -0.37881
 Alpha  occ. eigenvalues --   -0.37708  -0.36844  -0.36420  -0.36156  -0.36025
 Alpha  occ. eigenvalues --   -0.35231  -0.33819  -0.33007  -0.32204  -0.31214
 Alpha  occ. eigenvalues --   -0.30934  -0.30010  -0.28158  -0.26275  -0.23456
 Alpha  occ. eigenvalues --   -0.20978
 Alpha virt. eigenvalues --   -0.03638  -0.00278   0.03041   0.06374   0.08139
 Alpha virt. eigenvalues --    0.08695   0.10428   0.12120   0.12172   0.12755
 Alpha virt. eigenvalues --    0.13100   0.13714   0.13808   0.14362   0.14593

 Mulliken charges:
               1
     1  O   -0.578385
     2  O   -0.518986
     3  C   -0.005829
     4  C    0.005519
     5  C   -0.166090
     6  C   -0.197121
     7  C    0.137514
     8  C    0.169915
     9  C    0.062838
    10  C    0.057454
    11  C   -0.187257
    12  C   -0.242501
    13  C    0.027659
    14  C    0.027568
    15  C   -0.309971
    16  C   -0.311369
    17  C   -0.303940
    18  C   -0.321966
    19  C   -0.096382
    20  C   -0.140409
    21  C   -0.361207
    22  C   -0.344374
    23  C   -0.117120
    24  C   -0.070685
    25  C    0.130417
    26  C    0.112192
    27  C   -0.389684
    28  C   -0.384195
    29  C   -0.148882
    30  C   -0.127797
    31  C   -0.115772
    32  C   -0.081362
    33  C   -0.090204
    34  C   -0.091534
    35  C    0.171365
    36  C    0.120841
    37  C   -0.403108
    38  C   -0.361598
    39  C   -0.149568
    40  C   -0.130171
    41  C   -0.104991
    42  C   -0.050059
    43  H    0.099653
    44  H    0.079435
    45  H    0.069507
    46  H    0.105763
    47  H    0.078357
    48  H    0.051853
    49  H    0.109778
    50  H    0.119270
    51  H    0.106056
    52  H    0.110743
    53  H    0.103661
    54  H    0.080872
    55  H    0.117436
    56  H    0.105436
    57  H    0.108563
    58  H    0.086989
    59  H    0.103334
    60  H    0.108410
    61  H    0.082134
    62  H    0.103622
    63  H    0.082048
    64  H    0.122774
    65  H    0.079350
    66  H    0.079280
    67  H    0.108631
    68  H    0.108934
    69  H    0.108815
    70  H    0.105876
    71  H    0.124535
    72  H    0.121691
    73  H    0.296038
    74  H    0.302653
    75  H    0.077879
    76  H    0.082558
    77  H    0.106807
    78  H    0.139237
    79  H    0.112243
    80  H    0.137083
    81  H    0.127397
    82  H    0.101425
    83  H    0.073111
    84  H    0.068112
    85  H    0.086745
    86  H    0.067341
    87  H    0.087508
    88  H    0.066453
    89  H    0.110669
    90  H    0.124706
    91  H    0.128891
    92  H    0.103605
    93  H    0.087064
    94  H    0.120606
    95  H    0.080068
    96  H    0.074214
    97  H    0.077544
    98  H    0.066472
 Sum of Mulliken charges =  -0.00000

 Dipole moment (field-independent basis, Debye):
    X=             -1.0993    Y=             -1.9890    Z=              0.8652  Tot=              2.4317
 Quadrupole moment (field-independent basis, Debye-Ang):
   XX=           -259.9541   YY=           -235.9204   ZZ=           -258.9732
   XY=             -0.7874   XZ=            -12.1190   YZ=              3.8417

 Normal termination of Gaussian 16 at Fri Jul 19 18:56:31 2019.
