 Gaussian 16, Revision A.03,
 Gaussian 16:  ES64L-G16RevA.03 25-Dec-2016

 -------------------------------------
 # td=(NStates=1) CAM-B3LYP/6-31G(d,p)
 -------------------------------------

 --
 TD
 --
 Symbolic Z-matrix:
 Charge =  0 Multiplicity = 1

                         Standard orientation:
 ---------------------------------------------------------------------
 Center     Atomic      Atomic             Coordinates (Angstroms)
 Number     Number       Type             X           Y           Z
 ---------------------------------------------------------------------
      1          8           0       14.494437   -2.537910   -0.348693
      2          8           0      -14.744936    1.799252    1.127324
      3          6           0       11.029165   -1.558045    0.924597
      4          6           0      -12.346815   -1.125156    0.573108
      5          6           0       12.614217   -2.125091    0.978606
      6          6           0      -13.707924   -0.391893    0.638432
      7          6           0       13.248105   -2.128363   -0.399076
      8          6           0      -13.515062    1.144066    0.953013
      9          6           0       10.870364   -0.344182    0.013530
     10          6           0      -11.348601   -0.288113   -0.174301
     11          6           0       13.132517   -0.705458   -0.975917
     12          6           0      -12.668137    1.796806   -0.168899
     13          6           0       11.818495   -0.007200   -0.833265
     14          6           0      -11.514810    0.904203   -0.556953
     15          6           0       10.680504   -1.394220    2.413528
     16          6           0       10.082849   -2.738534    0.467158
     17          6           0      -11.880530   -1.669553    2.005642
     18          6           0      -12.731352   -2.357290   -0.285642
     19          6           0        9.524308    0.378402    0.327381
     20          6           0      -10.072568   -0.965556   -0.296592
     21          6           0       11.760590    1.205633   -1.802263
     22          6           0      -10.402525    1.767882   -1.370085
     23          6           0        9.401009    1.775737    0.240358
     24          6           0       -8.734109   -0.514511   -0.427437
     25          6           0        8.141001    2.441723    0.323692
     26          6           0       -7.459921   -1.158276   -0.629609
     27          6           0        8.159019    3.814568    0.765998
     28          6           0       -7.529199   -2.735034   -0.865525
     29          6           0        6.924414    1.741073    0.119500
     30          6           0       -6.375524   -0.502480   -0.463582
     31          6           0        5.646567    2.281703    0.185916
     32          6           0       -4.996164   -0.951293   -0.542332
     33          6           0        4.530164    1.483839   -0.081241
     34          6           0       -3.893055   -0.249007   -0.369413
     35          6           0        3.206902    1.906854    0.011828
     36          6           0       -2.539542   -0.624953   -0.532353
     37          6           0        2.780627    3.431415    0.352415
     38          6           0       -2.203076   -2.035607   -0.845938
     39          6           0        2.192091    0.988662   -0.279030
     40          6           0       -1.578240    0.379005   -0.336879
     41          6           0        0.825055    1.228889   -0.192860
     42          6           0       -0.163069    0.206634   -0.447674
     43          1           0       13.198769   -1.290001    1.422537
     44          1           0       12.638233   -2.984535    1.664220
     45          1           0      -14.616419   -0.760509    1.260862
     46          1           0      -14.143828   -0.302141   -0.402685
     47          1           0       12.774906   -2.825617   -0.936945
     48          1           0      -12.918500    1.058685    1.805548
     49          1           0       13.818662   -0.027864   -0.465407
     50          1           0       13.380767   -0.843926   -1.980013
     51          1           0      -13.394245    1.919339   -0.940606
     52          1           0      -12.500346    2.937930    0.061478
     53          1           0       10.879044   -2.209069    3.198783
     54          1           0        9.593517   -1.139721    2.647755
     55          1           0       11.498179   -0.894741    3.036934
     56          1           0       10.345995   -3.216632   -0.678883
     57          1           0       10.551361   -3.541093    1.239651
     58          1           0        8.898893   -2.331263    0.509308
     59          1           0      -11.986600   -0.870191    2.829499
     60          1           0      -10.781883   -2.029991    1.865545
     61          1           0      -12.486880   -2.615464    2.159026
     62          1           0      -13.689695   -2.930049    0.258336
     63          1           0      -12.139850   -3.186837   -0.421360
     64          1           0      -12.974745   -2.116645   -1.304992
     65          1           0        8.673738   -0.135592    0.550777
     66          1           0      -10.172490   -2.039553   -0.218073
     67          1           0       10.835382    1.581453   -2.126191
     68          1           0       12.177329    2.082505   -1.489005
     69          1           0       12.409746    0.849889   -2.636921
     70          1           0      -11.089103    2.524956   -1.942603
     71          1           0       -9.876110    1.038637   -2.230258
     72          1           0       -9.722798    2.266657   -0.783210
     73          1           0       14.695546   -3.554248   -0.282948
     74          1           0      -15.395068    1.552356    1.897478
     75          1           0       10.279524    2.366701   -0.048525
     76          1           0       -8.776557    0.619017   -0.372722
     77          1           0        9.174257    4.333011    0.956241
     78          1           0        7.709364    4.319921   -0.132438
     79          1           0        7.627385    4.141883    1.792183
     80          1           0       -7.883874   -3.368685    0.016649
     81          1           0       -8.150142   -2.884661   -1.742466
     82          1           0       -6.659905   -3.350178   -1.154817
     83          1           0        6.812322    0.770117   -0.159820
     84          1           0       -6.210318    0.692167   -0.284446
     85          1           0        5.379035    3.366093    0.276868
     86          1           0       -4.917932   -2.232029   -0.794031
     87          1           0        4.824101    0.361080   -0.258176
     88          1           0       -4.126157    0.711190   -0.214460
     89          1           0        3.410286    3.625929    1.397874
     90          1           0        1.734482    3.399306    0.580960
     91          1           0        3.206464    4.094805   -0.397740
     92          1           0       -2.461868   -2.914086    0.031775
     93          1           0       -2.896517   -2.541473   -1.539659
     94          1           0       -1.140348   -2.029288   -0.964574
     95          1           0        2.561922   -0.123257   -0.663440
     96          1           0       -1.968845    1.336258    0.024304
     97          1           0        0.387729    2.148584    0.183161
     98          1           0        0.161622   -0.743539   -0.836393
 ---------------------------------------------------------------------

 SCF Done:  E(RCAM-B3LYP) =  -1706.89817378     A.U. after   15 cycles

 Excitation energies and oscillator strengths:

 Excited State   1:      Singlet-A      2.1371 eV  580.16 nm  f=3.5367  <S**2>=0.000
     155 ->158         0.14011
     156 ->157         0.69407
 This state for optimization and/or second-order correction.
 Total Energy, E(TD-HF/TD-DFT) =  -1706.81963741
 Copying the excited state density for this state as the 1-particle RhoCI density.

 The electronic state is 1-A.
 Alpha  occ. eigenvalues --  -19.21199 -19.21101 -10.29521 -10.28765 -10.28459
 Alpha  occ. eigenvalues --  -10.27956 -10.27896 -10.27818 -10.27716 -10.27714
 Alpha  occ. eigenvalues --  -10.27549 -10.27515 -10.27325 -10.27255 -10.27189
 Alpha  occ. eigenvalues --  -10.27045 -10.26924 -10.26844 -10.26820 -10.26732
 Alpha  occ. eigenvalues --  -10.26693 -10.26634 -10.26598 -10.26592 -10.26428
 Alpha  occ. eigenvalues --  -10.26390 -10.26382 -10.26333 -10.26159 -10.26054
 Alpha  occ. eigenvalues --  -10.25962 -10.25868 -10.25715 -10.25378 -10.25172
 Alpha  occ. eigenvalues --  -10.25151 -10.24988 -10.24799 -10.24751 -10.24650
 Alpha  occ. eigenvalues --  -10.24545 -10.23993  -1.11736  -1.07677  -0.93979
 Alpha  occ. eigenvalues --   -0.92452  -0.92258  -0.91618  -0.90483  -0.89828
 Alpha  occ. eigenvalues --   -0.86860  -0.86095  -0.86037  -0.85012  -0.83988
 Alpha  occ. eigenvalues --   -0.83116  -0.81693  -0.79834  -0.78475  -0.77725
 Alpha  occ. eigenvalues --   -0.76608  -0.76591  -0.76161  -0.75868  -0.75047
 Alpha  occ. eigenvalues --   -0.74863  -0.74266  -0.73412  -0.72966  -0.70683
 Alpha  occ. eigenvalues --   -0.69233  -0.67755  -0.66456  -0.65871  -0.64797
 Alpha  occ. eigenvalues --   -0.63416  -0.62569  -0.61677  -0.60918  -0.60628
 Alpha  occ. eigenvalues --   -0.59754  -0.59303  -0.58837  -0.57455  -0.56057
 Alpha  occ. eigenvalues --   -0.55677  -0.55148  -0.54794  -0.54341  -0.53507
 Alpha  occ. eigenvalues --   -0.52840  -0.52568  -0.52358  -0.51033  -0.50330
 Alpha  occ. eigenvalues --   -0.50001  -0.49619  -0.49572  -0.49357  -0.49131
 Alpha  occ. eigenvalues --   -0.49055  -0.48408  -0.48263  -0.48104  -0.47830
 Alpha  occ. eigenvalues --   -0.47124  -0.46858  -0.46500  -0.46202  -0.45350
 Alpha  occ. eigenvalues --   -0.45231  -0.44878  -0.44825  -0.44704  -0.44075
 Alpha  occ. eigenvalues --   -0.44015  -0.43867  -0.43629  -0.43219  -0.42953
 Alpha  occ. eigenvalues --   -0.42641  -0.42542  -0.42362  -0.42156  -0.41963
 Alpha  occ. eigenvalues --   -0.41481  -0.41197  -0.40913  -0.40642  -0.40429
 Alpha  occ. eigenvalues --   -0.40327  -0.40259  -0.39926  -0.39742  -0.39303
 Alpha  occ. eigenvalues --   -0.38413  -0.38254  -0.37921  -0.37508  -0.37290
 Alpha  occ. eigenvalues --   -0.36676  -0.36326  -0.36126  -0.35371  -0.35293
 Alpha  occ. eigenvalues --   -0.34812  -0.34502  -0.33537  -0.32524  -0.30926
 Alpha  occ. eigenvalues --   -0.30404  -0.30356  -0.28787  -0.26264  -0.23751
 Alpha  occ. eigenvalues --   -0.19098
 Alpha virt. eigenvalues --   -0.06038  -0.00918   0.02184   0.06050   0.08810
 Alpha virt. eigenvalues --    0.10125   0.10429   0.10934   0.11305   0.11365
 Alpha virt. eigenvalues --    0.11953   0.12614   0.12910   0.13568   0.13724

 Mulliken charges:
               1
     1  O   -0.560792
     2  O   -0.590070
     3  C   -0.036477
     4  C   -0.026655
     5  C   -0.212353
     6  C   -0.197753
     7  C    0.209127
     8  C    0.182878
     9  C    0.086432
    10  C    0.166224
    11  C   -0.232826
    12  C   -0.241259
    13  C    0.024879
    14  C    0.005699
    15  C   -0.298598
    16  C   -0.252284
    17  C   -0.296960
    18  C   -0.300622
    19  C   -0.088941
    20  C   -0.146364
    21  C   -0.365309
    22  C   -0.362974
    23  C   -0.115706
    24  C   -0.113006
    25  C    0.081676
    26  C    0.109595
    27  C   -0.371959
    28  C   -0.371875
    29  C   -0.099558
    30  C   -0.113707
    31  C   -0.076784
    32  C   -0.067986
    33  C   -0.121862
    34  C   -0.096843
    35  C    0.077100
    36  C    0.132958
    37  C   -0.347988
    38  C   -0.356010
    39  C   -0.108875
    40  C   -0.124024
    41  C   -0.094418
    42  C   -0.106374
    43  H    0.094418
    44  H    0.079385
    45  H    0.072850
    46  H    0.093532
    47  H    0.064790
    48  H    0.078667
    49  H    0.126970
    50  H    0.114237
    51  H    0.126102
    52  H    0.105046
    53  H    0.087878
    54  H    0.097497
    55  H    0.093736
    56  H    0.067185
    57  H    0.090554
    58  H    0.082399
    59  H    0.102358
    60  H    0.103715
    61  H    0.103140
    62  H    0.065917
    63  H    0.106548
    64  H    0.111721
    65  H    0.085478
    66  H    0.070858
    67  H    0.125167
    68  H    0.125539
    69  H    0.094109
    70  H    0.090744
    71  H    0.106511
    72  H    0.142411
    73  H    0.318988
    74  H    0.318243
    75  H    0.086711
    76  H    0.074333
    77  H    0.106212
    78  H    0.123250
    79  H    0.113462
    80  H    0.117072
    81  H    0.125431
    82  H    0.111259
    83  H    0.075050
    84  H    0.072553
    85  H    0.079614
    86  H    0.033751
    87  H    0.075860
    88  H    0.064170
    89  H    0.095982
    90  H    0.121326
    91  H    0.138945
    92  H    0.085869
    93  H    0.128606
    94  H    0.109370
    95  H    0.076528
    96  H    0.084784
    97  H    0.088800
    98  H    0.085010
 Sum of Mulliken charges =  -0.00000

 Dipole moment (field-independent basis, Debye):
    X=              1.0207    Y=             -1.2700    Z=              0.7988  Tot=              1.8146
 Quadrupole moment (field-independent basis, Debye-Ang):
   XX=           -244.9934   YY=           -238.3982   ZZ=           -262.5549
   XY=              0.5059   XZ=            -16.4332   YZ=              3.0748

 Normal termination of Gaussian 16 at Thu Jul 11 07:18:12 2019.
