 Gaussian 16, Revision A.03,
 Gaussian 16:  ES64L-G16RevA.03 25-Dec-2016

 -------------------------------------
 # td=(NStates=1) CAM-B3LYP/6-31G(d,p)
 -------------------------------------

 --
 TD
 --
 Symbolic Z-matrix:
 Charge =  0 Multiplicity = 1

                         Standard orientation:
 ---------------------------------------------------------------------
 Center     Atomic      Atomic             Coordinates (Angstroms)
 Number     Number       Type             X           Y           Z
 ---------------------------------------------------------------------
      1          8           0       14.668229   -2.135869   -0.119474
      2          8           0      -14.715565    1.842615    1.030340
      3          6           0       11.152022   -1.523668    0.991656
      4          6           0      -12.429512   -1.113323    0.510444
      5          6           0       12.684797   -1.838144    1.033110
      6          6           0      -13.776268   -0.338625    0.663928
      7          6           0       13.322665   -1.823442   -0.203459
      8          6           0      -13.583044    1.096865    0.998399
      9          6           0       10.979207   -0.378595    0.077253
     10          6           0      -11.229916   -0.204135   -0.122438
     11          6           0       13.208829   -0.619971   -0.996304
     12          6           0      -12.673641    1.847800   -0.067301
     13          6           0       11.854991    0.146485   -0.896485
     14          6           0      -11.416232    1.043020   -0.479018
     15          6           0       10.784441   -1.274620    2.425841
     16          6           0       10.421000   -2.623157    0.425004
     17          6           0      -11.923755   -1.448898    1.941972
     18          6           0      -12.632049   -2.411105   -0.255764
     19          6           0        9.610367    0.359859    0.321939
     20          6           0      -10.024404   -1.008968   -0.199852
     21          6           0       11.533358    1.155675   -1.916915
     22          6           0      -10.464242    1.982073   -1.225600
     23          6           0        9.428472    1.738494    0.068190
     24          6           0       -8.784133   -0.448033   -0.336324
     25          6           0        8.060688    2.349681    0.290812
     26          6           0       -7.546155   -1.118098   -0.608084
     27          6           0        7.931396    3.837376    0.347263
     28          6           0       -7.632490   -2.561511   -0.998920
     29          6           0        6.903204    1.517279    0.133275
     30          6           0       -6.344693   -0.504005   -0.487900
     31          6           0        5.600935    2.057848    0.192965
     32          6           0       -5.066016   -1.057086   -0.844282
     33          6           0        4.467788    1.249433    0.019915
     34          6           0       -3.908490   -0.314412   -0.555569
     35          6           0        3.111053    1.693205    0.117022
     36          6           0       -2.574647   -0.847264   -0.539937
     37          6           0        2.912721    3.124038    0.532598
     38          6           0       -2.299303   -2.186985   -1.007441
     39          6           0        2.051441    0.827085   -0.185278
     40          6           0       -1.579330    0.083102   -0.222988
     41          6           0        0.615747    1.054980   -0.150709
     42          6           0       -0.161165    0.021180   -0.335150
     43          1           0       13.023013   -1.032595    1.677119
     44          1           0       13.006979   -2.791185    1.610402
     45          1           0      -14.367232   -0.837231    1.387490
     46          1           0      -14.289157   -0.328921   -0.287077
     47          1           0       12.936951   -2.520828   -0.839654
     48          1           0      -12.914392    1.161168    1.847724
     49          1           0       13.916551    0.033842   -0.701168
     50          1           0       13.365282   -0.794949   -2.055548
     51          1           0      -13.405842    1.936331   -0.961259
     52          1           0      -12.404939    2.878047    0.172770
     53          1           0       11.270946   -2.314231    2.950974
     54          1           0        9.739615   -1.136318    2.665466
     55          1           0       11.171273   -0.381418    2.846594
     56          1           0       10.816115   -2.882524   -0.474134
     57          1           0       10.516559   -3.675266    1.046011
     58          1           0        9.394559   -2.411527    0.295055
     59          1           0      -11.610924   -0.467829    2.729203
     60          1           0      -11.213166   -2.119903    2.018339
     61          1           0      -12.885407   -1.992645    2.422276
     62          1           0      -13.513034   -3.020042   -0.009737
     63          1           0      -11.731879   -3.091265   -0.278774
     64          1           0      -12.675882   -2.269585   -1.304966
     65          1           0        8.854671   -0.105033    0.612540
     66          1           0      -10.020620   -1.990069   -0.381665
     67          1           0       10.409886    1.170514   -2.180903
     68          1           0       11.967081    2.184364   -1.513825
     69          1           0       12.189066    0.753936   -2.768032
     70          1           0      -11.215628    2.753297   -1.595143
     71          1           0      -10.032724    1.128895   -2.095608
     72          1           0       -9.660061    2.568653   -0.523700
     73          1           0       14.757289   -3.072103    0.233243
     74          1           0      -15.277572    1.438430    1.725463
     75          1           0       10.374170    2.276649   -0.319334
     76          1           0       -8.472557    0.659749    0.047283
     77          1           0        8.933811    4.218705    0.358633
     78          1           0        7.523493    4.117192   -0.843669
     79          1           0        7.397253    4.316685    1.179797
     80          1           0       -7.921625   -3.251174   -0.290450
     81          1           0       -8.312663   -2.788732   -1.774647
     82          1           0       -6.746075   -3.038263   -1.423641
     83          1           0        6.990658    0.438714   -0.046567
     84          1           0       -6.512335    0.421211   -0.201052
     85          1           0        5.534305    3.082572    0.377857
     86          1           0       -5.008881   -2.148936   -1.183422
     87          1           0        4.535939    0.128333   -0.059954
     88          1           0       -3.908484    0.707180   -0.072490
     89          1           0        3.424761    3.502966    1.564118
     90          1           0        1.699027    3.364683    0.729821
     91          1           0        3.017158    3.802823   -0.394114
     92          1           0       -2.834454   -2.904086   -0.310980
     93          1           0       -2.836231   -2.443680   -1.892632
     94          1           0       -1.195718   -2.229787   -1.055363
     95          1           0        2.557883   -0.152107   -0.350068
     96          1           0       -2.090928    1.033507    0.054517
     97          1           0        0.309255    2.171155    0.190038
     98          1           0        0.289704   -0.959930   -0.575307
 ---------------------------------------------------------------------

 SCF Done:  E(RCAM-B3LYP) =  -1706.94272447     A.U. after   15 cycles

 Excitation energies and oscillator strengths:

 Excited State   1:      Singlet-A      2.3515 eV  527.26 nm  f=3.6187  <S**2>=0.000
     155 ->158         0.18892
     156 ->157         0.67698
 This state for optimization and/or second-order correction.
 Total Energy, E(TD-HF/TD-DFT) =  -1706.85630971
 Copying the excited state density for this state as the 1-particle RhoCI density.

 The electronic state is 1-A.
 Alpha  occ. eigenvalues --  -19.21813 -19.20777 -10.29287 -10.28346 -10.28287
 Alpha  occ. eigenvalues --  -10.27941 -10.27822 -10.27665 -10.27554 -10.27504
 Alpha  occ. eigenvalues --  -10.27371 -10.27346 -10.27265 -10.27256 -10.27168
 Alpha  occ. eigenvalues --  -10.26974 -10.26924 -10.26667 -10.26662 -10.26645
 Alpha  occ. eigenvalues --  -10.26604 -10.26533 -10.26443 -10.26398 -10.26250
 Alpha  occ. eigenvalues --  -10.25960 -10.25879 -10.25797 -10.25761 -10.25539
 Alpha  occ. eigenvalues --  -10.25365 -10.25263 -10.25245 -10.25161 -10.24974
 Alpha  occ. eigenvalues --  -10.24807 -10.24784 -10.24318 -10.24117 -10.24021
 Alpha  occ. eigenvalues --  -10.23764 -10.23724  -1.11690  -1.10272  -0.94746
 Alpha  occ. eigenvalues --   -0.92786  -0.92300  -0.91255  -0.90632  -0.89449
 Alpha  occ. eigenvalues --   -0.88067  -0.87442  -0.86442  -0.85321  -0.84900
 Alpha  occ. eigenvalues --   -0.82806  -0.82119  -0.80321  -0.79660  -0.78146
 Alpha  occ. eigenvalues --   -0.77735  -0.77627  -0.76589  -0.75983  -0.75298
 Alpha  occ. eigenvalues --   -0.75097  -0.74683  -0.74484  -0.73454  -0.70360
 Alpha  occ. eigenvalues --   -0.68505  -0.66881  -0.65879  -0.65410  -0.64261
 Alpha  occ. eigenvalues --   -0.63841  -0.62764  -0.61437  -0.60481  -0.60334
 Alpha  occ. eigenvalues --   -0.60107  -0.59424  -0.59340  -0.57335  -0.56357
 Alpha  occ. eigenvalues --   -0.56211  -0.55715  -0.54963  -0.54397  -0.54353
 Alpha  occ. eigenvalues --   -0.53773  -0.52992  -0.52186  -0.51576  -0.50851
 Alpha  occ. eigenvalues --   -0.50578  -0.50200  -0.49779  -0.49317  -0.49145
 Alpha  occ. eigenvalues --   -0.48825  -0.48683  -0.48181  -0.48084  -0.47856
 Alpha  occ. eigenvalues --   -0.47576  -0.47373  -0.47294  -0.46766  -0.46269
 Alpha  occ. eigenvalues --   -0.45788  -0.45535  -0.45416  -0.45235  -0.44701
 Alpha  occ. eigenvalues --   -0.44394  -0.44045  -0.43664  -0.43382  -0.43096
 Alpha  occ. eigenvalues --   -0.42875  -0.42461  -0.42449  -0.42006  -0.41858
 Alpha  occ. eigenvalues --   -0.41790  -0.41545  -0.41431  -0.40950  -0.40869
 Alpha  occ. eigenvalues --   -0.40781  -0.40349  -0.40172  -0.39992  -0.39775
 Alpha  occ. eigenvalues --   -0.39642  -0.38972  -0.38718  -0.38253  -0.37997
 Alpha  occ. eigenvalues --   -0.37672  -0.37429  -0.36676  -0.36124  -0.35383
 Alpha  occ. eigenvalues --   -0.34920  -0.33972  -0.33030  -0.32266  -0.32262
 Alpha  occ. eigenvalues --   -0.32083  -0.29989  -0.27797  -0.26025  -0.22748
 Alpha  occ. eigenvalues --   -0.19764
 Alpha virt. eigenvalues --   -0.05132  -0.01429   0.02421   0.05253   0.07970
 Alpha virt. eigenvalues --    0.09998   0.10848   0.11339   0.11494   0.12044
 Alpha virt. eigenvalues --    0.12454   0.12670   0.12924   0.13034   0.13307

 Mulliken charges:
               1
     1  O   -0.573253
     2  O   -0.534116
     3  C   -0.019217
     4  C   -0.019991
     5  C   -0.179456
     6  C   -0.183128
     7  C    0.198406
     8  C    0.163872
     9  C    0.035301
    10  C    0.095235
    11  C   -0.219692
    12  C   -0.241656
    13  C    0.036388
    14  C    0.029935
    15  C   -0.282333
    16  C   -0.267156
    17  C   -0.261591
    18  C   -0.325978
    19  C   -0.072624
    20  C   -0.114512
    21  C   -0.369612
    22  C   -0.332357
    23  C   -0.121740
    24  C   -0.115861
    25  C    0.037896
    26  C    0.122076
    27  C   -0.362192
    28  C   -0.401638
    29  C   -0.093022
    30  C   -0.085038
    31  C   -0.076994
    32  C   -0.118050
    33  C   -0.132791
    34  C   -0.110302
    35  C    0.121814
    36  C    0.131150
    37  C   -0.368524
    38  C   -0.372471
    39  C   -0.133660
    40  C   -0.140329
    41  C   -0.066810
    42  C   -0.076597
    43  H    0.103589
    44  H    0.058752
    45  H    0.084171
    46  H    0.098202
    47  H    0.076475
    48  H    0.074215
    49  H    0.125720
    50  H    0.099373
    51  H    0.099911
    52  H    0.113665
    53  H    0.069894
    54  H    0.100140
    55  H    0.113479
    56  H    0.111949
    57  H    0.063063
    58  H    0.103988
    59  H    0.071533
    60  H    0.117271
    61  H    0.061059
    62  H    0.105613
    63  H    0.094006
    64  H    0.118183
    65  H    0.058673
    66  H    0.077663
    67  H    0.141650
    68  H    0.113054
    69  H    0.099145
    70  H    0.104659
    71  H    0.100797
    72  H    0.101847
    73  H    0.302909
    74  H    0.303408
    75  H    0.091197
    76  H    0.068414
    77  H    0.118644
    78  H    0.097384
    79  H    0.129238
    80  H    0.127441
    81  H    0.117592
    82  H    0.097346
    83  H    0.084081
    84  H    0.059810
    85  H    0.092906
    86  H    0.089973
    87  H    0.077925
    88  H    0.086592
    89  H    0.113161
    90  H    0.066141
    91  H    0.126475
    92  H    0.116674
    93  H    0.130800
    94  H    0.105344
    95  H    0.071914
    96  H    0.072099
    97  H    0.094816
    98  H    0.096599
 Sum of Mulliken charges =  -0.00000

 Dipole moment (field-independent basis, Debye):
    X=             -0.0306    Y=             -2.0430    Z=              0.8220  Tot=              2.2024
 Quadrupole moment (field-independent basis, Debye-Ang):
   XX=           -271.4430   YY=           -241.4134   ZZ=           -264.0444
   XY=             14.2354   XZ=            -10.8596   YZ=              5.0026

 Normal termination of Gaussian 16 at Tue Jul 16 06:09:33 2019.
