 Gaussian 16, Revision A.03,
 Gaussian 16:  ES64L-G16RevA.03 25-Dec-2016

 -------------------------------------
 # td=(NStates=1) CAM-B3LYP/6-31G(d,p)
 -------------------------------------

 --
 TD
 --
 Symbolic Z-matrix:
 Charge =  0 Multiplicity = 1

                         Standard orientation:
 ---------------------------------------------------------------------
 Center     Atomic      Atomic             Coordinates (Angstroms)
 Number     Number       Type             X           Y           Z
 ---------------------------------------------------------------------
      1          8           0       14.825045   -2.030496   -0.046149
      2          8           0      -14.820371    1.940115    1.056088
      3          6           0       11.247280   -1.349659    1.086742
      4          6           0      -12.372595   -0.960404    0.612095
      5          6           0       12.726261   -1.581587    1.205561
      6          6           0      -13.744506   -0.197033    0.711547
      7          6           0       13.468384   -1.789195   -0.149035
      8          6           0      -13.529001    1.285893    1.043842
      9          6           0       10.960895   -0.295708    0.001194
     10          6           0      -11.303508   -0.247573   -0.237266
     11          6           0       13.309225   -0.430741   -0.985342
     12          6           0      -12.751439    1.823794   -0.223296
     13          6           0       11.795364    0.043193   -0.919553
     14          6           0      -11.472614    1.022951   -0.556005
     15          6           0       10.727041   -0.882338    2.481585
     16          6           0       10.465753   -2.545065    0.488091
     17          6           0      -11.857298   -1.240075    2.025329
     18          6           0      -12.665638   -2.307081   -0.052719
     19          6           0        9.587389    0.399861   -0.026558
     20          6           0      -10.014558   -0.955529   -0.390226
     21          6           0       11.732294    1.097282   -2.117253
     22          6           0      -10.582122    1.791073   -1.558062
     23          6           0        9.297070    1.638890    0.009627
     24          6           0       -8.753569   -0.384261   -0.363947
     25          6           0        8.021483    2.261292    0.165393
     26          6           0       -7.657439   -1.169438   -0.623299
     27          6           0        7.966651    3.688977    0.468783
     28          6           0       -7.700730   -2.642048   -0.967907
     29          6           0        6.884595    1.466567   -0.087710
     30          6           0       -6.436904   -0.605596   -0.456273
     31          6           0        5.571071    2.013225    0.142437
     32          6           0       -5.115285   -1.125017   -0.535030
     33          6           0        4.468380    1.155070    0.021180
     34          6           0       -3.886935   -0.420097   -0.425037
     35          6           0        3.166207    1.490613    0.128910
     36          6           0       -2.634175   -0.872266   -0.456235
     37          6           0        2.767439    2.921927    0.542542
     38          6           0       -2.365388   -2.332516   -0.799755
     39          6           0        2.197115    0.528132   -0.092048
     40          6           0       -1.586851    0.035304   -0.341882
     41          6           0        0.799429    0.704191   -0.097624
     42          6           0       -0.193007   -0.205456   -0.415442
     43          1           0       13.100707   -0.732251    1.767155
     44          1           0       12.942658   -2.418923    1.929325
     45          1           0      -14.366388   -0.673397    1.353870
     46          1           0      -14.174401   -0.090053   -0.379315
     47          1           0       13.033983   -2.693232   -0.642428
     48          1           0      -12.935620    1.663701    1.978019
     49          1           0       13.944484    0.341246   -0.520843
     50          1           0       13.546473   -0.690062   -2.101820
     51          1           0      -13.539381    1.637534   -0.940941
     52          1           0      -12.830582    3.028592   -0.224321
     53          1           0       10.717988   -1.669498    3.244521
     54          1           0        9.701318   -0.454637    2.388307
     55          1           0       11.226632    0.020654    3.053916
     56          1           0       10.958134   -2.730595   -0.387169
     57          1           0       10.787875   -3.312152    1.175362
     58          1           0        9.451875   -2.227224    0.513665
     59          1           0      -11.827371   -0.265076    2.460337
     60          1           0      -10.978510   -2.063266    2.018041
     61          1           0      -12.575621   -1.623638    2.806894
     62          1           0      -13.421293   -2.725844    0.103091
     63          1           0      -11.810094   -3.027491   -0.242852
     64          1           0      -13.018953   -2.218389   -1.245185
     65          1           0        8.682308   -0.237311    0.227950
     66          1           0      -10.098531   -1.960197   -0.313284
     67          1           0       10.661410    0.824056   -2.681378
     68          1           0       12.024186    2.143452   -1.796363
     69          1           0       12.311941    0.696103   -2.991900
     70          1           0      -11.316687    2.239076   -2.359091
     71          1           0       -9.931298    1.019350   -2.035923
     72          1           0      -10.066306    2.638677   -1.170151
     73          1           0       14.764126   -3.157201   -0.165223
     74          1           0      -15.173179    1.988700    1.983609
     75          1           0       10.241522    2.181437    0.052962
     76          1           0       -8.555488    0.663142   -0.126080
     77          1           0        9.054302    4.072225   -0.151713
     78          1           0        7.091786    4.253700   -0.042012
     79          1           0        7.951936    4.180107    1.677852
     80          1           0       -8.186352   -3.127405   -0.128861
     81          1           0       -8.225786   -2.797710   -1.933164
     82          1           0       -6.678564   -3.088684   -1.035166
     83          1           0        7.077436    0.497282   -0.473451
     84          1           0       -6.494092    0.485604   -0.273529
     85          1           0        5.572409    3.217874    0.413010
     86          1           0       -4.999529   -2.000738   -1.128677
     87          1           0        4.662197    0.117143   -0.260786
     88          1           0       -4.208759    0.651131   -0.015902
     89          1           0        3.378046    3.197756    1.607231
     90          1           0        1.778479    2.977611    0.784703
     91          1           0        3.046748    3.882033   -0.185277
     92          1           0       -3.112565   -3.088891   -0.375632
     93          1           0       -2.168889   -2.586114   -2.098173
     94          1           0       -1.273804   -2.509028   -0.173639
     95          1           0        2.502041   -0.419056   -0.157587
     96          1           0       -1.841705    1.258766   -0.080776
     97          1           0        0.244775    1.770743    0.019715
     98          1           0        0.100008   -1.313895   -0.344551
 ---------------------------------------------------------------------

 SCF Done:  E(RCAM-B3LYP) =  -1706.83424291     A.U. after   15 cycles

 Excitation energies and oscillator strengths:

 Excited State   1:      Singlet-A      2.0079 eV  617.48 nm  f=3.8254  <S**2>=0.000
     155 ->158        -0.14137
     156 ->157         0.69455
 This state for optimization and/or second-order correction.
 Total Energy, E(TD-HF/TD-DFT) =  -1706.76045331
 Copying the excited state density for this state as the 1-particle RhoCI density.

 The electronic state is 1-A.
 Alpha  occ. eigenvalues --  -19.22686 -19.21153 -10.31373 -10.30971 -10.29942
 Alpha  occ. eigenvalues --  -10.29755 -10.28478 -10.28268 -10.27875 -10.27732
 Alpha  occ. eigenvalues --  -10.27616 -10.27576 -10.27544 -10.27512 -10.27330
 Alpha  occ. eigenvalues --  -10.27260 -10.26928 -10.26546 -10.26528 -10.26324
 Alpha  occ. eigenvalues --  -10.26234 -10.26139 -10.26127 -10.25992 -10.25907
 Alpha  occ. eigenvalues --  -10.25876 -10.25839 -10.25727 -10.25708 -10.25678
 Alpha  occ. eigenvalues --  -10.25650 -10.25447 -10.25387 -10.25370 -10.25346
 Alpha  occ. eigenvalues --  -10.25259 -10.25209 -10.25164 -10.24784 -10.24672
 Alpha  occ. eigenvalues --  -10.23800 -10.23669  -1.09198  -1.07947  -0.93815
 Alpha  occ. eigenvalues --   -0.93447  -0.92646  -0.92062  -0.91373  -0.90904
 Alpha  occ. eigenvalues --   -0.87362  -0.86355  -0.86112  -0.84896  -0.84280
 Alpha  occ. eigenvalues --   -0.82601  -0.81385  -0.79681  -0.79144  -0.77588
 Alpha  occ. eigenvalues --   -0.77118  -0.77043  -0.76405  -0.75848  -0.75749
 Alpha  occ. eigenvalues --   -0.74844  -0.74164  -0.73724  -0.73193  -0.71071
 Alpha  occ. eigenvalues --   -0.68653  -0.66711  -0.65483  -0.65090  -0.64696
 Alpha  occ. eigenvalues --   -0.63432  -0.62753  -0.60532  -0.60285  -0.59199
 Alpha  occ. eigenvalues --   -0.59061  -0.58569  -0.58378  -0.57518  -0.56038
 Alpha  occ. eigenvalues --   -0.55352  -0.54942  -0.54392  -0.53680  -0.53589
 Alpha  occ. eigenvalues --   -0.53220  -0.52831  -0.52062  -0.51516  -0.50483
 Alpha  occ. eigenvalues --   -0.50251  -0.49820  -0.49603  -0.49325  -0.49203
 Alpha  occ. eigenvalues --   -0.48639  -0.48377  -0.48220  -0.48158  -0.47607
 Alpha  occ. eigenvalues --   -0.46900  -0.46670  -0.46614  -0.46323  -0.46117
 Alpha  occ. eigenvalues --   -0.45913  -0.45554  -0.45217  -0.45082  -0.44427
 Alpha  occ. eigenvalues --   -0.44371  -0.44043  -0.43832  -0.43347  -0.43145
 Alpha  occ. eigenvalues --   -0.42673  -0.42383  -0.42264  -0.41965  -0.41865
 Alpha  occ. eigenvalues --   -0.41229  -0.41158  -0.40929  -0.40643  -0.40184
 Alpha  occ. eigenvalues --   -0.39812  -0.39805  -0.39474  -0.39348  -0.39333
 Alpha  occ. eigenvalues --   -0.39002  -0.38519  -0.38214  -0.37758  -0.37697
 Alpha  occ. eigenvalues --   -0.37293  -0.37055  -0.36780  -0.36420  -0.35625
 Alpha  occ. eigenvalues --   -0.35170  -0.34838  -0.33546  -0.32578  -0.31754
 Alpha  occ. eigenvalues --   -0.30579  -0.30405  -0.29217  -0.26945  -0.23357
 Alpha  occ. eigenvalues --   -0.18982
 Alpha virt. eigenvalues --   -0.06748  -0.01422   0.02569   0.05862   0.07007
 Alpha virt. eigenvalues --    0.08620   0.09798   0.10464   0.10848   0.11481
 Alpha virt. eigenvalues --    0.11998   0.12220   0.12371   0.12914   0.13093

 Mulliken charges:
               1
     1  O   -0.539115
     2  O   -0.570251
     3  C   -0.021998
     4  C   -0.029904
     5  C   -0.180840
     6  C   -0.168903
     7  C    0.151554
     8  C    0.134692
     9  C    0.062945
    10  C    0.114702
    11  C   -0.202779
    12  C   -0.240516
    13  C    0.004736
    14  C    0.030173
    15  C   -0.321273
    16  C   -0.280574
    17  C   -0.285593
    18  C   -0.266433
    19  C   -0.137532
    20  C   -0.139139
    21  C   -0.340379
    22  C   -0.359232
    23  C   -0.061910
    24  C   -0.096309
    25  C    0.116923
    26  C    0.148304
    27  C   -0.357371
    28  C   -0.370361
    29  C   -0.105643
    30  C   -0.144156
    31  C   -0.091032
    32  C   -0.120210
    33  C   -0.134677
    34  C   -0.107067
    35  C    0.156153
    36  C    0.121199
    37  C   -0.346989
    38  C   -0.330481
    39  C   -0.124772
    40  C   -0.103531
    41  C   -0.086091
    42  C   -0.091472
    43  H    0.105987
    44  H    0.073207
    45  H    0.094017
    46  H    0.102657
    47  H    0.060136
    48  H    0.076629
    49  H    0.125283
    50  H    0.091310
    51  H    0.127008
    52  H    0.091339
    53  H    0.104009
    54  H    0.104673
    55  H    0.094758
    56  H    0.114360
    57  H    0.093372
    58  H    0.115068
    59  H    0.105573
    60  H    0.094203
    61  H    0.087899
    62  H    0.098367
    63  H    0.094554
    64  H    0.048533
    65  H    0.062650
    66  H    0.070956
    67  H    0.089059
    68  H    0.126379
    69  H    0.108182
    70  H    0.093126
    71  H    0.120019
    72  H    0.118935
    73  H    0.304680
    74  H    0.309914
    75  H    0.075405
    76  H    0.100972
    77  H    0.081197
    78  H    0.117470
    79  H    0.095519
    80  H    0.121843
    81  H    0.120891
    82  H    0.107829
    83  H    0.096294
    84  H    0.065244
    85  H    0.092328
    86  H    0.083929
    87  H    0.085892
    88  H    0.068521
    89  H    0.087607
    90  H    0.123744
    91  H    0.097173
    92  H    0.121395
    93  H    0.089031
    94  H    0.083290
    95  H    0.079315
    96  H    0.067228
    97  H    0.071747
    98  H    0.074442
 Sum of Mulliken charges =  -0.00000

 Dipole moment (field-independent basis, Debye):
    X=              0.9029    Y=             -1.4824    Z=              1.5371  Tot=              2.3185
 Quadrupole moment (field-independent basis, Debye-Ang):
   XX=           -273.7566   YY=           -241.6133   ZZ=           -260.2520
   XY=             -5.4005   XZ=            -23.8937   YZ=              6.6633

 Normal termination of Gaussian 16 at Sat Jul 13 02:23:01 2019.
