 Gaussian 16, Revision A.03,
 Gaussian 16:  ES64L-G16RevA.03 25-Dec-2016

 -------------------------------------
 # td=(NStates=1) CAM-B3LYP/6-31G(d,p)
 -------------------------------------

 --
 TD
 --
 Symbolic Z-matrix:
 Charge =  0 Multiplicity = 1

                         Standard orientation:
 ---------------------------------------------------------------------
 Center     Atomic      Atomic             Coordinates (Angstroms)
 Number     Number       Type             X           Y           Z
 ---------------------------------------------------------------------
      1          8           0       14.741232   -2.227840   -0.274088
      2          8           0      -14.703187    1.888550    1.063669
      3          6           0       11.159394   -1.421483    1.094579
      4          6           0      -12.521033   -1.161887    0.325087
      5          6           0       12.696840   -1.828596    1.066267
      6          6           0      -13.740061   -0.305216    0.341691
      7          6           0       13.292203   -2.032636   -0.290556
      8          6           0      -13.519247    1.128866    1.013423
      9          6           0       10.949067   -0.223393    0.042576
     10          6           0      -11.234731   -0.225965   -0.243033
     11          6           0       13.138007   -0.781209   -1.066099
     12          6           0      -12.663664    1.891299    0.003847
     13          6           0       11.824361    0.095479   -0.854538
     14          6           0      -11.384897    1.150948   -0.395010
     15          6           0       10.753231   -1.082816    2.495572
     16          6           0       10.415899   -2.732137    0.674377
     17          6           0      -12.050422   -1.521831    1.849145
     18          6           0      -12.697146   -2.393350   -0.464373
     19          6           0        9.583811    0.370537    0.250087
     20          6           0      -10.006771   -0.994034   -0.442476
     21          6           0       11.584800    1.128645   -1.914028
     22          6           0      -10.402397    1.909825   -1.169339
     23          6           0        9.394162    1.707888    0.061980
     24          6           0       -8.717069   -0.532672   -0.283212
     25          6           0        7.985162    2.258709    0.081601
     26          6           0       -7.528818   -1.294408   -0.545457
     27          6           0        7.985289    3.700159    0.520297
     28          6           0       -7.657051   -2.720702   -0.937613
     29          6           0        6.889714    1.529681   -0.122498
     30          6           0       -6.373704   -0.609466   -0.250247
     31          6           0        5.624199    2.073671   -0.004031
     32          6           0       -5.042603   -1.190370   -0.422041
     33          6           0        4.421803    1.403695   -0.060814
     34          6           0       -3.913982   -0.402141   -0.235138
     35          6           0        3.100988    1.854897   -0.048478
     36          6           0       -2.512499   -0.670457   -0.475572
     37          6           0        2.772191    3.325640    0.262689
     38          6           0       -2.236292   -2.047047   -0.801833
     39          6           0        2.086584    0.860936   -0.107679
     40          6           0       -1.523671    0.206844   -0.163657
     41          6           0        0.729805    1.139608    0.116084
     42          6           0       -0.172774    0.077671   -0.255616
     43          1           0       13.274330   -1.203960    1.768769
     44          1           0       12.684673   -2.801094    1.687934
     45          1           0      -14.453390   -0.876399    1.117054
     46          1           0      -14.245334   -0.008877   -0.748779
     47          1           0       13.103804   -2.990873   -0.950717
     48          1           0      -12.945080    1.044019    2.031585
     49          1           0       13.977583    0.128812   -1.159549
     50          1           0       13.090144   -1.224304   -2.338021
     51          1           0      -13.295061    1.859058   -0.930280
     52          1           0      -12.372952    2.958349    0.421489
     53          1           0       11.231524   -1.943470    3.088742
     54          1           0        9.618104   -1.077328    2.411615
     55          1           0       11.296983   -0.191519    2.812111
     56          1           0       10.378203   -2.969196   -0.470423
     57          1           0       10.817182   -3.494685    1.118105
     58          1           0        9.388224   -2.495807    0.736372
     59          1           0      -11.904476   -0.656265    2.489380
     60          1           0      -11.154723   -2.112200    1.858503
     61          1           0      -12.861851   -2.344483    2.284664
     62          1           0      -13.610184   -2.868885   -0.240511
     63          1           0      -11.914986   -3.251515   -0.123113
     64          1           0      -12.816254   -2.307906   -1.586424
     65          1           0        8.815832   -0.120659    0.574016
     66          1           0      -10.137123   -2.002949   -1.182155
     67          1           0       10.558049    1.557360   -1.929681
     68          1           0       12.600742    1.928968   -1.753175
     69          1           0       11.852611    0.824913   -2.977780
     70          1           0      -11.111930    2.304607   -1.972514
     71          1           0       -9.448182    1.408668   -1.619044
     72          1           0      -10.110403    2.876783   -0.354576
     73          1           0       14.792188   -3.132464    0.180157
     74          1           0      -15.322645    1.284029    1.496855
     75          1           0       10.178485    2.608515    0.126987
     76          1           0       -8.577409    0.507982    0.148500
     77          1           0        9.070874    4.134918    0.640367
     78          1           0        7.353635    4.212281   -0.074734
     79          1           0        7.458668    3.810675    1.438056
     80          1           0       -8.442973   -3.338836   -0.328361
     81          1           0       -8.019628   -2.713400   -1.995243
     82          1           0       -6.727906   -3.312126   -0.722880
     83          1           0        7.050212    0.465527   -0.402257
     84          1           0       -6.302705    0.336194    0.281322
     85          1           0        5.437035    3.036168    0.265902
     86          1           0       -4.733328   -2.109301   -0.892562
     87          1           0        4.458173    0.348793   -0.500314
     88          1           0       -4.133190    0.640706    0.124934
     89          1           0        2.889079    3.334562    1.447035
     90          1           0        1.870823    3.779621   -0.004996
     91          1           0        3.386368    3.940747   -0.412794
     92          1           0       -2.243795   -2.791294   -0.109343
     93          1           0       -2.615145   -2.269421   -1.777034
     94          1           0       -1.132832   -2.026901   -1.207420
     95          1           0        2.167085   -0.293439   -0.282526
     96          1           0       -1.723164    1.118768    0.376851
     97          1           0        0.261878    2.093921    0.475985
     98          1           0        0.057742   -0.760163   -0.548525
 ---------------------------------------------------------------------

 SCF Done:  E(RCAM-B3LYP) =  -1706.87326066     A.U. after   15 cycles

 Excitation energies and oscillator strengths:

 Excited State   1:      Singlet-A      2.1349 eV  580.76 nm  f=3.7220  <S**2>=0.000
     155 ->158        -0.14273
     156 ->157         0.69211
 This state for optimization and/or second-order correction.
 Total Energy, E(TD-HF/TD-DFT) =  -1706.79480576
 Copying the excited state density for this state as the 1-particle RhoCI density.

 The electronic state is 1-A.
 Alpha  occ. eigenvalues --  -19.21935 -19.20776 -10.31585 -10.31372 -10.28847
 Alpha  occ. eigenvalues --  -10.28320 -10.27912 -10.27814 -10.27546 -10.27428
 Alpha  occ. eigenvalues --  -10.27363 -10.27222 -10.27172 -10.27032 -10.27009
 Alpha  occ. eigenvalues --  -10.26773 -10.26751 -10.26683 -10.26675 -10.26649
 Alpha  occ. eigenvalues --  -10.26586 -10.26576 -10.26550 -10.26401 -10.26074
 Alpha  occ. eigenvalues --  -10.26062 -10.26000 -10.25990 -10.25981 -10.25910
 Alpha  occ. eigenvalues --  -10.25805 -10.25722 -10.25688 -10.25520 -10.25486
 Alpha  occ. eigenvalues --  -10.25188 -10.25017 -10.24908 -10.24803 -10.24721
 Alpha  occ. eigenvalues --  -10.24491 -10.23977  -1.10577  -1.07758  -0.93194
 Alpha  occ. eigenvalues --   -0.92747  -0.92137  -0.91849  -0.90677  -0.90044
 Alpha  occ. eigenvalues --   -0.87545  -0.87035  -0.86826  -0.85216  -0.84235
 Alpha  occ. eigenvalues --   -0.82895  -0.81956  -0.80499  -0.79335  -0.78971
 Alpha  occ. eigenvalues --   -0.76978  -0.76807  -0.76370  -0.75588  -0.75322
 Alpha  occ. eigenvalues --   -0.74439  -0.74399  -0.74235  -0.72978  -0.70917
 Alpha  occ. eigenvalues --   -0.68226  -0.67077  -0.64786  -0.64421  -0.64276
 Alpha  occ. eigenvalues --   -0.62972  -0.62552  -0.61699  -0.60466  -0.60106
 Alpha  occ. eigenvalues --   -0.59083  -0.57797  -0.57637  -0.56993  -0.56227
 Alpha  occ. eigenvalues --   -0.55551  -0.54973  -0.54605  -0.54002  -0.53486
 Alpha  occ. eigenvalues --   -0.53020  -0.52667  -0.52098  -0.51855  -0.51544
 Alpha  occ. eigenvalues --   -0.50995  -0.50447  -0.50347  -0.50160  -0.49974
 Alpha  occ. eigenvalues --   -0.49226  -0.48780  -0.48400  -0.48273  -0.48102
 Alpha  occ. eigenvalues --   -0.47624  -0.47180  -0.46701  -0.46622  -0.45525
 Alpha  occ. eigenvalues --   -0.45340  -0.45336  -0.45067  -0.44624  -0.44290
 Alpha  occ. eigenvalues --   -0.44091  -0.44027  -0.43661  -0.43451  -0.43277
 Alpha  occ. eigenvalues --   -0.42721  -0.42345  -0.42101  -0.42000  -0.41812
 Alpha  occ. eigenvalues --   -0.41565  -0.41449  -0.41065  -0.40840  -0.40599
 Alpha  occ. eigenvalues --   -0.40443  -0.39967  -0.39669  -0.39274  -0.39218
 Alpha  occ. eigenvalues --   -0.38910  -0.38842  -0.38108  -0.37938  -0.37863
 Alpha  occ. eigenvalues --   -0.37288  -0.37207  -0.36896  -0.36450  -0.35895
 Alpha  occ. eigenvalues --   -0.34820  -0.33466  -0.32960  -0.32564  -0.32102
 Alpha  occ. eigenvalues --   -0.31687  -0.29838  -0.28047  -0.25933  -0.23123
 Alpha  occ. eigenvalues --   -0.19023
 Alpha virt. eigenvalues --   -0.05936  -0.00709   0.02029   0.05806   0.07807
 Alpha virt. eigenvalues --    0.08934   0.10225   0.10889   0.11206   0.11651
 Alpha virt. eigenvalues --    0.12141   0.12671   0.12909   0.13184   0.13435

 Mulliken charges:
               1
     1  O   -0.564865
     2  O   -0.538902
     3  C   -0.050993
     4  C    0.045384
     5  C   -0.213587
     6  C   -0.198133
     7  C    0.168605
     8  C    0.162575
     9  C    0.075491
    10  C    0.021074
    11  C   -0.172709
    12  C   -0.201816
    13  C    0.064307
    14  C    0.044489
    15  C   -0.273578
    16  C   -0.284791
    17  C   -0.304834
    18  C   -0.313446
    19  C   -0.103514
    20  C   -0.140343
    21  C   -0.345923
    22  C   -0.325146
    23  C   -0.129799
    24  C   -0.107158
    25  C    0.081694
    26  C    0.125965
    27  C   -0.375184
    28  C   -0.373099
    29  C   -0.099058
    30  C   -0.135302
    31  C   -0.091601
    32  C   -0.089319
    33  C   -0.114341
    34  C   -0.113824
    35  C    0.059317
    36  C    0.089075
    37  C   -0.364711
    38  C   -0.393058
    39  C   -0.115655
    40  C   -0.101838
    41  C   -0.086596
    42  C   -0.030090
    43  H    0.111950
    44  H    0.060176
    45  H    0.062020
    46  H    0.087735
    47  H    0.099052
    48  H    0.074180
    49  H    0.108254
    50  H    0.051703
    51  H    0.116741
    52  H    0.100584
    53  H    0.089846
    54  H    0.099718
    55  H    0.116150
    56  H    0.089114
    57  H    0.112512
    58  H    0.098081
    59  H    0.113670
    60  H    0.122052
    61  H    0.061208
    62  H    0.108784
    63  H    0.085780
    64  H    0.105892
    65  H    0.088140
    66  H    0.071437
    67  H    0.131726
    68  H    0.061832
    69  H    0.110967
    70  H    0.108514
    71  H    0.126530
    72  H    0.062231
    73  H    0.296009
    74  H    0.304697
    75  H    0.099003
    76  H    0.093543
    77  H    0.096180
    78  H    0.130995
    79  H    0.130543
    80  H    0.116214
    81  H    0.125732
    82  H    0.114464
    83  H    0.082001
    84  H    0.097570
    85  H    0.071613
    86  H    0.082790
    87  H    0.069886
    88  H    0.059762
    89  H    0.122945
    90  H    0.122608
    91  H    0.118859
    92  H    0.145061
    93  H    0.126891
    94  H    0.080317
    95  H    0.095454
    96  H    0.067136
    97  H    0.094674
    98  H    0.033719
 Sum of Mulliken charges =  -0.00000

 Dipole moment (field-independent basis, Debye):
    X=             -0.8645    Y=             -2.0740    Z=              1.0569  Tot=              2.4831
 Quadrupole moment (field-independent basis, Debye-Ang):
   XX=           -290.7568   YY=           -244.1051   ZZ=           -262.4587
   XY=             13.2200   XZ=              8.0660   YZ=              2.1119

 Normal termination of Gaussian 16 at Mon Jul 15 12:48:03 2019.
