 Gaussian 16, Revision A.03,
 Gaussian 16:  ES64L-G16RevA.03 25-Dec-2016

 -------------------------------------
 # td=(NStates=1) CAM-B3LYP/6-31G(d,p)
 -------------------------------------

 --
 TD
 --
 Symbolic Z-matrix:
 Charge =  0 Multiplicity = 1

                         Standard orientation:
 ---------------------------------------------------------------------
 Center     Atomic      Atomic             Coordinates (Angstroms)
 Number     Number       Type             X           Y           Z
 ---------------------------------------------------------------------
      1          8           0       14.735917   -2.020781   -0.006719
      2          8           0      -14.799371    1.879030    1.084712
      3          6           0       11.211756   -1.406982    1.016144
      4          6           0      -12.327786   -0.970064    0.668500
      5          6           0       12.630899   -1.723730    1.179401
      6          6           0      -13.596003   -0.251699    0.760531
      7          6           0       13.360739   -1.801750   -0.180026
      8          6           0      -13.530077    1.197106    1.073020
      9          6           0       10.929040   -0.201295    0.064505
     10          6           0      -11.262014   -0.260647   -0.143270
     11          6           0       13.191260   -0.580179   -0.862533
     12          6           0      -12.645647    1.897016   -0.017710
     13          6           0       11.889864    0.227759   -0.712670
     14          6           0      -11.415074    1.073984   -0.427222
     15          6           0       10.688145   -1.224728    2.479294
     16          6           0       10.545843   -2.724024    0.438710
     17          6           0      -11.781886   -1.273152    2.044052
     18          6           0      -12.638653   -2.363232    0.037728
     19          6           0        9.650419    0.360425    0.313146
     20          6           0      -10.034532   -0.928686   -0.464708
     21          6           0       11.642262    1.269169   -1.793042
     22          6           0      -10.502343    1.916340   -1.286315
     23          6           0        9.293765    1.683842    0.284127
     24          6           0       -8.704103   -0.518248   -0.237320
     25          6           0        8.010323    2.237270    0.199117
     26          6           0       -7.541250   -1.182127   -0.670135
     27          6           0        7.891699    3.680061    0.678266
     28          6           0       -7.729565   -2.696990   -1.204838
     29          6           0        6.870690    1.467518   -0.103387
     30          6           0       -6.367832   -0.653506   -0.416877
     31          6           0        5.579649    1.971446    0.016211
     32          6           0       -5.005585   -1.151890   -0.766606
     33          6           0        4.475999    1.195580   -0.316612
     34          6           0       -3.935145   -0.290158   -0.484615
     35          6           0        3.122324    1.637826   -0.227211
     36          6           0       -2.594834   -0.765356   -0.725898
     37          6           0        2.810607    3.028640    0.304955
     38          6           0       -2.375372   -2.263750   -1.026708
     39          6           0        2.008776    0.743902   -0.403380
     40          6           0       -1.573699    0.115047   -0.472956
     41          6           0        0.687386    0.870052   -0.167168
     42          6           0       -0.248900   -0.185538   -0.459330
     43          1           0       13.204951   -0.948717    1.626743
     44          1           0       12.694750   -2.775318    1.748208
     45          1           0      -14.219564   -0.697907    1.355039
     46          1           0      -14.168380   -0.385690   -0.254887
     47          1           0       12.830097   -2.652599   -0.824525
     48          1           0      -13.301977    1.414654    2.087600
     49          1           0       13.959490    0.165799   -0.565857
     50          1           0       13.438458   -0.637738   -1.912063
     51          1           0      -13.401525    2.095606   -0.817083
     52          1           0      -12.320459    2.945815    0.436204
     53          1           0       10.821707   -2.066527    3.197031
     54          1           0        9.664318   -0.960433    2.681095
     55          1           0       11.204629   -0.385576    2.929857
     56          1           0       10.977072   -2.746445   -0.564287
     57          1           0       10.573575   -3.468178    1.047805
     58          1           0        9.580735   -2.468869   -0.018989
     59          1           0      -11.737222   -0.465308    2.671456
     60          1           0      -10.897650   -1.918257    2.246123
     61          1           0      -12.622340   -1.816685    2.610880
     62          1           0      -13.515207   -2.920439    0.614208
     63          1           0      -11.815978   -3.057868    0.260572
     64          1           0      -12.701664   -2.318738   -1.113353
     65          1           0        8.882045   -0.340217    0.095718
     66          1           0      -10.136410   -1.981134   -0.874111
     67          1           0       10.707285    1.526500   -1.977837
     68          1           0       11.952203    2.277845   -1.379895
     69          1           0       12.257074    1.077776   -2.623795
     70          1           0      -11.062140    2.553232   -2.070594
     71          1           0       -9.738764    1.308291   -1.793998
     72          1           0       -9.965206    2.590762   -0.533930
     73          1           0       14.821696   -2.960599    0.137744
     74          1           0      -15.173942    1.492323    1.864591
     75          1           0       10.101826    2.390434    0.308073
     76          1           0       -8.649708    0.540130    0.292593
     77          1           0        8.807108    4.289656    0.462166
     78          1           0        7.283166    4.231375   -0.042791
     79          1           0        7.676409    3.892960    1.603840
     80          1           0       -8.256648   -3.338130   -0.485167
     81          1           0       -8.255876   -2.799296   -2.234939
     82          1           0       -6.845405   -2.925496   -1.465399
     83          1           0        6.995144    0.407825   -0.186774
     84          1           0       -6.208001    0.336418   -0.099998
     85          1           0        5.551801    3.062291    0.390311
     86          1           0       -4.940851   -2.190901   -0.928074
     87          1           0        4.434008    0.264706   -0.685332
     88          1           0       -4.096895    0.820512   -0.282721
     89          1           0        3.133968    3.007921    1.341730
     90          1           0        1.726582    3.348508    0.146142
     91          1           0        3.294029    3.727097   -0.206807
     92          1           0       -2.719403   -2.949078   -0.220735
     93          1           0       -2.853428   -2.371636   -2.019422
     94          1           0       -1.405674   -2.453572   -1.220832
     95          1           0        2.415412   -0.269185   -0.616036
     96          1           0       -1.959974    1.097440   -0.203717
     97          1           0        0.328212    1.837710    0.101280
     98          1           0        0.073307   -1.230564   -0.580009
 ---------------------------------------------------------------------

 SCF Done:  E(RCAM-B3LYP) =  -1707.02781189     A.U. after   15 cycles

 Excitation energies and oscillator strengths:

 Excited State   1:      Singlet-A      1.9822 eV  625.48 nm  f=3.6731  <S**2>=0.000
     155 ->158        -0.13180
     156 ->157         0.69858
     156 <-157        -0.11147
 This state for optimization and/or second-order correction.
 Total Energy, E(TD-HF/TD-DFT) =  -1706.95496605
 Copying the excited state density for this state as the 1-particle RhoCI density.

 The electronic state is 1-A.
 Alpha  occ. eigenvalues --  -19.21376 -19.20374 -10.30129 -10.29459 -10.27379
 Alpha  occ. eigenvalues --  -10.27358 -10.27116 -10.27083 -10.26997 -10.26979
 Alpha  occ. eigenvalues --  -10.26832 -10.26741 -10.26673 -10.26630 -10.26620
 Alpha  occ. eigenvalues --  -10.26442 -10.26393 -10.26393 -10.26168 -10.26069
 Alpha  occ. eigenvalues --  -10.25945 -10.25919 -10.25757 -10.25627 -10.25614
 Alpha  occ. eigenvalues --  -10.25433 -10.25416 -10.25335 -10.25323 -10.25298
 Alpha  occ. eigenvalues --  -10.25156 -10.25124 -10.24798 -10.24616 -10.24542
 Alpha  occ. eigenvalues --  -10.24440 -10.24410 -10.24064 -10.23945 -10.23594
 Alpha  occ. eigenvalues --  -10.23563 -10.23143  -1.10694  -1.09544  -0.94293
 Alpha  occ. eigenvalues --   -0.94019  -0.92264  -0.91665  -0.90679  -0.89939
 Alpha  occ. eigenvalues --   -0.87496  -0.87092  -0.86729  -0.85770  -0.84582
 Alpha  occ. eigenvalues --   -0.83446  -0.81948  -0.80705  -0.79437  -0.78961
 Alpha  occ. eigenvalues --   -0.77436  -0.77240  -0.76937  -0.76874  -0.76019
 Alpha  occ. eigenvalues --   -0.75665  -0.75382  -0.74928  -0.73426  -0.71603
 Alpha  occ. eigenvalues --   -0.69422  -0.67635  -0.65672  -0.65262  -0.64060
 Alpha  occ. eigenvalues --   -0.63907  -0.63058  -0.62281  -0.61197  -0.60366
 Alpha  occ. eigenvalues --   -0.59702  -0.59347  -0.58059  -0.57487  -0.56520
 Alpha  occ. eigenvalues --   -0.56068  -0.55834  -0.55047  -0.54561  -0.54120
 Alpha  occ. eigenvalues --   -0.53454  -0.53243  -0.52549  -0.51733  -0.51269
 Alpha  occ. eigenvalues --   -0.51014  -0.50567  -0.50173  -0.49794  -0.49775
 Alpha  occ. eigenvalues --   -0.49526  -0.49159  -0.48938  -0.48546  -0.48303
 Alpha  occ. eigenvalues --   -0.48131  -0.47747  -0.47634  -0.46911  -0.46548
 Alpha  occ. eigenvalues --   -0.46092  -0.45719  -0.45393  -0.45179  -0.44666
 Alpha  occ. eigenvalues --   -0.44442  -0.44212  -0.43780  -0.43745  -0.43454
 Alpha  occ. eigenvalues --   -0.43120  -0.42671  -0.42453  -0.42253  -0.42062
 Alpha  occ. eigenvalues --   -0.41860  -0.41310  -0.41121  -0.41100  -0.41005
 Alpha  occ. eigenvalues --   -0.40543  -0.40343  -0.40093  -0.39897  -0.39114
 Alpha  occ. eigenvalues --   -0.38922  -0.38856  -0.38647  -0.38610  -0.38454
 Alpha  occ. eigenvalues --   -0.38009  -0.37828  -0.37392  -0.37125  -0.36426
 Alpha  occ. eigenvalues --   -0.35761  -0.35134  -0.33799  -0.32261  -0.31759
 Alpha  occ. eigenvalues --   -0.31113  -0.29903  -0.28712  -0.25861  -0.23410
 Alpha  occ. eigenvalues --   -0.18556
 Alpha virt. eigenvalues --   -0.06571  -0.00898   0.02116   0.06161   0.08304
 Alpha virt. eigenvalues --    0.10172   0.11529   0.12142   0.12435   0.13012
 Alpha virt. eigenvalues --    0.13202   0.13508   0.13787   0.14070   0.14403

 Mulliken charges:
               1
     1  O   -0.547210
     2  O   -0.561196
     3  C   -0.014894
     4  C   -0.003046
     5  C   -0.155878
     6  C   -0.161322
     7  C    0.146946
     8  C    0.142294
     9  C    0.034215
    10  C    0.090048
    11  C   -0.226103
    12  C   -0.221278
    13  C    0.043833
    14  C    0.037193
    15  C   -0.316725
    16  C   -0.289111
    17  C   -0.300810
    18  C   -0.308375
    19  C   -0.089147
    20  C   -0.160113
    21  C   -0.357499
    22  C   -0.351795
    23  C   -0.113931
    24  C   -0.100140
    25  C    0.063801
    26  C    0.093867
    27  C   -0.385818
    28  C   -0.345840
    29  C   -0.086338
    30  C   -0.115154
    31  C   -0.101534
    32  C   -0.107186
    33  C   -0.085963
    34  C   -0.125077
    35  C    0.067144
    36  C    0.076728
    37  C   -0.367097
    38  C   -0.361425
    39  C   -0.118297
    40  C   -0.091067
    41  C   -0.082335
    42  C   -0.097359
    43  H    0.104494
    44  H    0.061046
    45  H    0.079452
    46  H    0.091578
    47  H    0.059491
    48  H    0.080095
    49  H    0.121871
    50  H    0.110625
    51  H    0.128962
    52  H    0.091528
    53  H    0.089527
    54  H    0.102697
    55  H    0.100383
    56  H    0.097698
    57  H    0.107452
    58  H    0.090296
    59  H    0.108333
    60  H    0.113134
    61  H    0.071882
    62  H    0.086655
    63  H    0.101968
    64  H    0.101182
    65  H    0.087342
    66  H    0.077179
    67  H    0.132484
    68  H    0.102101
    69  H    0.111054
    70  H    0.103316
    71  H    0.121558
    72  H    0.105646
    73  H    0.306961
    74  H    0.298183
    75  H    0.076973
    76  H    0.075384
    77  H    0.099057
    78  H    0.116667
    79  H    0.143681
    80  H    0.126571
    81  H    0.103269
    82  H    0.109459
    83  H    0.085611
    84  H    0.076425
    85  H    0.096643
    86  H    0.098107
    87  H    0.073958
    88  H    0.094897
    89  H    0.128660
    90  H    0.094310
    91  H    0.125547
    92  H    0.127552
    93  H    0.123222
    94  H    0.110448
    95  H    0.062264
    96  H    0.077440
    97  H    0.084912
    98  H    0.095762
 Sum of Mulliken charges =  -0.00000

 Dipole moment (field-independent basis, Debye):
    X=              0.8998    Y=             -1.8776    Z=              0.9661  Tot=              2.2953
 Quadrupole moment (field-independent basis, Debye-Ang):
   XX=           -295.7707   YY=           -240.5321   ZZ=           -258.4711
   XY=             12.4584   XZ=            -20.9538   YZ=              3.4088

 Normal termination of Gaussian 16 at Thu Jul 11 09:33:01 2019.
