 Gaussian 16, Revision A.03,
 Gaussian 16:  ES64L-G16RevA.03 25-Dec-2016

 -------------------------------------
 # td=(NStates=1) CAM-B3LYP/6-31G(d,p)
 -------------------------------------

 --
 TD
 --
 Symbolic Z-matrix:
 Charge =  0 Multiplicity = 1

                         Standard orientation:
 ---------------------------------------------------------------------
 Center     Atomic      Atomic             Coordinates (Angstroms)
 Number     Number       Type             X           Y           Z
 ---------------------------------------------------------------------
      1          8           0       14.840569   -2.157210   -0.197640
      2          8           0      -14.718617    1.928430    0.964156
      3          6           0       11.301324   -1.394261    0.946132
      4          6           0      -12.275426   -0.888328    0.848927
      5          6           0       12.779216   -1.750392    0.963633
      6          6           0      -13.708417   -0.191997    0.720809
      7          6           0       13.457872   -1.756009   -0.392842
      8          6           0      -13.552429    1.320548    0.782361
      9          6           0       10.970851   -0.257728    0.002742
     10          6           0      -11.331525   -0.179463   -0.106809
     11          6           0       13.289529   -0.343302   -1.045180
     12          6           0      -12.773213    1.811687   -0.375662
     13          6           0       11.939609    0.173082   -0.921475
     14          6           0      -11.600290    1.014301   -0.710239
     15          6           0       10.802082   -1.035772    2.384852
     16          6           0       10.569185   -2.656437    0.499381
     17          6           0      -11.900817   -1.004607    2.244221
     18          6           0      -12.651044   -2.345356    0.157423
     19          6           0        9.666729    0.262967    0.153432
     20          6           0      -10.029209   -0.928802   -0.326314
     21          6           0       11.639010    1.399034   -1.738922
     22          6           0      -10.612231    1.642680   -1.701277
     23          6           0        9.283074    1.612702    0.197520
     24          6           0       -8.736546   -0.522175   -0.351236
     25          6           0        8.033865    2.311037    0.378406
     26          6           0       -7.558968   -1.313979   -0.591605
     27          6           0        7.767546    3.745167    0.694405
     28          6           0       -7.746496   -2.732817   -0.865254
     29          6           0        6.894271    1.441198    0.059433
     30          6           0       -6.381059   -0.637620   -0.571467
     31          6           0        5.558693    1.944527    0.278657
     32          6           0       -5.088559   -1.213107   -0.637426
     33          6           0        4.495824    1.178967   -0.171307
     34          6           0       -4.048443   -0.403198   -0.519037
     35          6           0        3.154100    1.468590    0.026567
     36          6           0       -2.612452   -0.741341   -0.597974
     37          6           0        2.808784    2.864985    0.611485
     38          6           0       -2.337643   -2.203817   -0.795041
     39          6           0        2.113302    0.562379   -0.344540
     40          6           0       -1.630837    0.205240   -0.370378
     41          6           0        0.711984    0.921585   -0.205215
     42          6           0       -0.290251   -0.042356   -0.507722
     43          1           0       13.452797   -1.088346    1.446356
     44          1           0       12.859401   -2.687063    1.619772
     45          1           0      -14.191052   -0.681368    1.509686
     46          1           0      -14.081227   -0.409584   -0.328101
     47          1           0       12.970933   -2.561602   -0.930233
     48          1           0      -12.928191    1.758833    1.868255
     49          1           0       14.088762    0.322894   -0.768383
     50          1           0       13.547045   -0.411104   -2.084682
     51          1           0      -13.464949    1.859720   -1.187788
     52          1           0      -12.585500    2.764273   -0.080045
     53          1           0       10.903352   -1.812753    3.080297
     54          1           0        9.714235   -0.604348    2.311499
     55          1           0       11.524067   -0.089021    2.601518
     56          1           0       10.724832   -3.213385   -0.564181
     57          1           0       10.745125   -3.537553    1.155561
     58          1           0        9.462885   -2.453887    0.610652
     59          1           0      -11.757915   -0.007783    2.727260
     60          1           0      -10.897422   -1.545660    2.270885
     61          1           0      -12.477918   -1.766401    2.768523
     62          1           0      -13.607188   -2.681448    0.541707
     63          1           0      -12.094338   -3.306497    0.447702
     64          1           0      -12.732291   -2.281825   -0.893258
     65          1           0        8.871592   -0.554998    0.319605
     66          1           0      -10.184675   -2.267856   -0.351982
     67          1           0       10.646316    1.603475   -1.914797
     68          1           0       12.079442    2.244596   -1.228845
     69          1           0       12.309449    1.322573   -2.619898
     70          1           0      -11.218089    2.464769   -2.369474
     71          1           0      -10.106177    0.946045   -2.621044
     72          1           0       -9.764275    2.145692   -1.105605
     73          1           0       14.759228   -3.012088    0.081040
     74          1           0      -15.167331    1.362880    1.734611
     75          1           0       10.045720    2.416387   -0.010287
     76          1           0       -8.650453    0.513216   -0.200120
     77          1           0        8.778686    4.271718    0.826651
     78          1           0        7.079774    4.055005   -0.008194
     79          1           0        7.400436    4.119553    1.687332
     80          1           0       -8.058960   -3.413711   -0.031287
     81          1           0       -8.622138   -2.807654   -1.625404
     82          1           0       -6.835737   -3.277150   -0.946751
     83          1           0        6.821286    0.351184   -0.117853
     84          1           0       -6.512310    0.496710   -0.572374
     85          1           0        5.254276    2.996245    0.640808
     86          1           0       -4.965359   -2.380873   -0.487585
     87          1           0        4.848933    0.046003   -0.399381
     88          1           0       -4.174361    0.565127   -0.366214
     89          1           0        3.118896    2.960187    1.695355
     90          1           0        1.708236    3.242018    0.475142
     91          1           0        3.648770    3.800352    0.248241
     92          1           0       -2.261223   -2.852944    0.220457
     93          1           0       -3.076185   -2.409519   -1.710631
     94          1           0       -1.430746   -2.518597   -1.208867
     95          1           0        2.512735   -0.441280   -0.295281
     96          1           0       -1.781551    1.265041   -0.111765
     97          1           0        0.433675    1.961476    0.145781
     98          1           0        0.115102   -0.976288   -0.647292
 ---------------------------------------------------------------------

 SCF Done:  E(RCAM-B3LYP) =  -1706.93141788     A.U. after   15 cycles

 Excitation energies and oscillator strengths:

 Excited State   1:      Singlet-A      2.0884 eV  593.68 nm  f=3.4624  <S**2>=0.000
     155 ->158         0.15265
     156 ->157         0.69034
 This state for optimization and/or second-order correction.
 Total Energy, E(TD-HF/TD-DFT) =  -1706.85467065
 Copying the excited state density for this state as the 1-particle RhoCI density.

 The electronic state is 1-A.
 Alpha  occ. eigenvalues --  -19.21952 -19.20395 -10.31317 -10.30554 -10.28899
 Alpha  occ. eigenvalues --  -10.28571 -10.28270 -10.28140 -10.27684 -10.27663
 Alpha  occ. eigenvalues --  -10.27635 -10.27480 -10.27120 -10.27117 -10.27078
 Alpha  occ. eigenvalues --  -10.27039 -10.27004 -10.26997 -10.26900 -10.26816
 Alpha  occ. eigenvalues --  -10.26792 -10.26772 -10.26633 -10.26561 -10.26490
 Alpha  occ. eigenvalues --  -10.26478 -10.26117 -10.26084 -10.25869 -10.25733
 Alpha  occ. eigenvalues --  -10.25699 -10.25676 -10.25588 -10.25456 -10.25070
 Alpha  occ. eigenvalues --  -10.24926 -10.24886 -10.24844 -10.24685 -10.24237
 Alpha  occ. eigenvalues --  -10.23947 -10.23924  -1.12051  -1.09987  -0.93931
 Alpha  occ. eigenvalues --   -0.93453  -0.92318  -0.91523  -0.90695  -0.89478
 Alpha  occ. eigenvalues --   -0.87571  -0.87445  -0.87406  -0.85526  -0.84466
 Alpha  occ. eigenvalues --   -0.83224  -0.81630  -0.80297  -0.79112  -0.77816
 Alpha  occ. eigenvalues --   -0.76943  -0.76797  -0.76472  -0.75973  -0.75614
 Alpha  occ. eigenvalues --   -0.74881  -0.74805  -0.74561  -0.73023  -0.70635
 Alpha  occ. eigenvalues --   -0.68976  -0.66742  -0.65966  -0.64738  -0.63866
 Alpha  occ. eigenvalues --   -0.63720  -0.62402  -0.61815  -0.60767  -0.60335
 Alpha  occ. eigenvalues --   -0.59270  -0.59097  -0.57721  -0.57254  -0.56653
 Alpha  occ. eigenvalues --   -0.56434  -0.55648  -0.55318  -0.54419  -0.54202
 Alpha  occ. eigenvalues --   -0.53473  -0.52696  -0.52539  -0.51573  -0.50689
 Alpha  occ. eigenvalues --   -0.50459  -0.50199  -0.49956  -0.49753  -0.49337
 Alpha  occ. eigenvalues --   -0.49152  -0.48539  -0.48373  -0.48270  -0.48040
 Alpha  occ. eigenvalues --   -0.47440  -0.47078  -0.46633  -0.46147  -0.46010
 Alpha  occ. eigenvalues --   -0.45658  -0.45359  -0.45235  -0.45067  -0.44919
 Alpha  occ. eigenvalues --   -0.44697  -0.44326  -0.44239  -0.44002  -0.43450
 Alpha  occ. eigenvalues --   -0.43413  -0.42846  -0.42768  -0.42418  -0.42376
 Alpha  occ. eigenvalues --   -0.41733  -0.41583  -0.40996  -0.40818  -0.40753
 Alpha  occ. eigenvalues --   -0.40503  -0.40234  -0.40006  -0.39884  -0.39479
 Alpha  occ. eigenvalues --   -0.39343  -0.38855  -0.38504  -0.37736  -0.37442
 Alpha  occ. eigenvalues --   -0.37324  -0.37256  -0.36518  -0.36469  -0.36348
 Alpha  occ. eigenvalues --   -0.34469  -0.33910  -0.33853  -0.32063  -0.31594
 Alpha  occ. eigenvalues --   -0.29760  -0.29379  -0.28094  -0.25770  -0.23193
 Alpha  occ. eigenvalues --   -0.19280
 Alpha virt. eigenvalues --   -0.06218  -0.01313   0.02165   0.05176   0.07247
 Alpha virt. eigenvalues --    0.08612   0.10048   0.10594   0.11362   0.11565
 Alpha virt. eigenvalues --    0.12283   0.12515   0.12861   0.13175   0.13484

 Mulliken charges:
               1
     1  O   -0.551473
     2  O   -0.543184
     3  C   -0.035414
     4  C    0.000012
     5  C   -0.187952
     6  C   -0.209738
     7  C    0.142782
     8  C    0.207709
     9  C    0.105746
    10  C    0.054645
    11  C   -0.240569
    12  C   -0.221152
    13  C    0.053825
    14  C    0.066960
    15  C   -0.286738
    16  C   -0.295219
    17  C   -0.308514
    18  C   -0.328743
    19  C   -0.148654
    20  C   -0.130502
    21  C   -0.362886
    22  C   -0.350104
    23  C   -0.101576
    24  C   -0.084898
    25  C    0.056898
    26  C    0.146386
    27  C   -0.366982
    28  C   -0.381750
    29  C   -0.112179
    30  C   -0.133436
    31  C   -0.071546
    32  C   -0.098669
    33  C   -0.123668
    34  C   -0.066750
    35  C    0.118786
    36  C    0.072175
    37  C   -0.366754
    38  C   -0.370449
    39  C   -0.132690
    40  C   -0.112882
    41  C   -0.101875
    42  C   -0.059219
    43  H    0.105180
    44  H    0.068030
    45  H    0.084919
    46  H    0.102616
    47  H    0.085408
    48  H   -0.014835
    49  H    0.131273
    50  H    0.117488
    51  H    0.118399
    52  H    0.132166
    53  H    0.107115
    54  H    0.103062
    55  H    0.089267
    56  H    0.085795
    57  H    0.094078
    58  H    0.089860
    59  H    0.114581
    60  H    0.103058
    61  H    0.103421
    62  H    0.094657
    63  H    0.084369
    64  H    0.120546
    65  H    0.089438
    66  H    0.043345
    67  H    0.132663
    68  H    0.121140
    69  H    0.088870
    70  H    0.083052
    71  H    0.104650
    72  H    0.119746
    73  H    0.298701
    74  H    0.317747
    75  H    0.073091
    76  H    0.070204
    77  H    0.103547
    78  H    0.144792
    79  H    0.124541
    80  H    0.112607
    81  H    0.124465
    82  H    0.104890
    83  H    0.095048
    84  H    0.083654
    85  H    0.078559
    86  H    0.100360
    87  H    0.062090
    88  H    0.070114
    89  H    0.131659
    90  H    0.108543
    91  H    0.068622
    92  H    0.112440
    93  H    0.110893
    94  H    0.119401
    95  H    0.096996
    96  H    0.081955
    97  H    0.083502
    98  H    0.078464
 Sum of Mulliken charges =  -0.00000

 Dipole moment (field-independent basis, Debye):
    X=             -0.9834    Y=             -1.4835    Z=              1.7353  Tot=              2.4858
 Quadrupole moment (field-independent basis, Debye-Ang):
   XX=           -287.9122   YY=           -241.4642   ZZ=           -264.5521
   XY=             15.8599   XZ=             -6.0144   YZ=              0.4911

 Normal termination of Gaussian 16 at Fri Jul 19 18:28:19 2019.
