 Gaussian 16, Revision A.03,
 Gaussian 16:  ES64L-G16RevA.03 25-Dec-2016

 -------------------------------------
 # td=(NStates=1) CAM-B3LYP/6-31G(d,p)
 -------------------------------------

 --
 TD
 --
 Symbolic Z-matrix:
 Charge =  0 Multiplicity = 1

                         Standard orientation:
 ---------------------------------------------------------------------
 Center     Atomic      Atomic             Coordinates (Angstroms)
 Number     Number       Type             X           Y           Z
 ---------------------------------------------------------------------
      1          8           0       14.709113   -2.101833   -0.448283
      2          8           0      -14.740478    1.933630    0.786496
      3          6           0       11.228152   -1.465582    1.000391
      4          6           0      -12.369794   -1.061559    0.605555
      5          6           0       12.749835   -1.830991    0.936975
      6          6           0      -13.750117   -0.303944    0.468375
      7          6           0       13.398138   -1.800143   -0.448161
      8          6           0      -13.493689    1.142172    0.875042
      9          6           0       10.930368   -0.268138   -0.000393
     10          6           0      -11.339918   -0.298887   -0.250212
     11          6           0       13.260263   -0.390389   -1.011687
     12          6           0      -12.657624    1.840107   -0.258577
     13          6           0       11.935809    0.175597   -0.889512
     14          6           0      -11.490964    1.043222   -0.616595
     15          6           0       10.737153   -1.475626    2.354266
     16          6           0       10.388891   -2.661913    0.202107
     17          6           0      -11.840431   -1.216262    2.102194
     18          6           0      -12.545338   -2.545884    0.029286
     19          6           0        9.673945    0.358089    0.156466
     20          6           0       -9.995476   -0.915763   -0.459710
     21          6           0       11.689510    1.388217   -1.750717
     22          6           0      -10.541492    1.751627   -1.554456
     23          6           0        9.344319    1.753140    0.012133
     24          6           0       -8.789196   -0.389079   -0.404919
     25          6           0        8.063212    2.320367    0.174236
     26          6           0       -7.627889   -1.102503   -0.636813
     27          6           0        7.895889    3.805622    0.382635
     28          6           0       -7.633272   -2.527216   -1.058473
     29          6           0        6.867306    1.530218    0.176897
     30          6           0       -6.456677   -0.546304   -0.406594
     31          6           0        5.525610    2.001401    0.253399
     32          6           0       -5.086482   -1.059692   -0.487811
     33          6           0        4.495637    1.129521    0.035289
     34          6           0       -3.977486   -0.275901   -0.313387
     35          6           0        3.171325    1.559540    0.147282
     36          6           0       -2.614006   -0.747041   -0.358845
     37          6           0        2.885941    2.912598    0.711611
     38          6           0       -2.315141   -2.135633   -0.996604
     39          6           0        2.067204    0.624786    0.121179
     40          6           0       -1.610833    0.092687   -0.012786
     41          6           0        0.655079    0.902438    0.157898
     42          6           0       -0.247748   -0.020138   -0.129893
     43          1           0       13.163205   -1.062242    1.564130
     44          1           0       12.979791   -2.802175    1.597914
     45          1           0      -14.561141   -0.828381    0.980581
     46          1           0      -14.007943   -0.241164   -0.514959
     47          1           0       12.752585   -2.453749   -1.124854
     48          1           0      -12.890318    0.944065    1.843223
     49          1           0       14.044520    0.197106   -0.565147
     50          1           0       13.340253   -0.641032   -1.984638
     51          1           0      -13.551300    1.965965   -1.024492
     52          1           0      -12.390158    2.858097    0.145480
     53          1           0       10.944340   -2.224580    3.075314
     54          1           0        9.730414   -1.160653    2.479426
     55          1           0       11.191629   -0.628628    2.973181
     56          1           0       10.512800   -3.043062   -0.778146
     57          1           0       10.433486   -3.577061    0.883657
     58          1           0        9.323083   -2.265928    0.344284
     59          1           0      -11.816329   -0.355590    2.449155
     60          1           0      -10.923524   -1.746009    1.940694
     61          1           0      -12.411687   -1.952944    2.753503
     62          1           0      -13.454263   -2.837337    0.540437
     63          1           0      -11.696524   -3.260524    0.192242
     64          1           0      -12.711942   -2.453912   -0.911788
     65          1           0        9.088474   -0.288537    0.452848
     66          1           0      -10.117609   -1.902786   -0.785171
     67          1           0       10.528237    1.501088   -2.042984
     68          1           0       12.182258    2.241150   -1.152699
     69          1           0       12.417124    1.298281   -2.651728
     70          1           0      -11.191346    2.609625   -2.077681
     71          1           0      -10.033710    1.080731   -2.128936
     72          1           0       -9.698205    2.515156   -1.049391
     73          1           0       14.764665   -2.974977   -0.048766
     74          1           0      -15.521356    1.681171    1.301759
     75          1           0       10.130217    2.602404   -0.206875
     76          1           0       -8.671653    0.662543   -0.047407
     77          1           0        8.779664    4.229208    0.343836
     78          1           0        7.258086    4.184600   -0.347223
     79          1           0        7.650675    3.969273    1.421836
     80          1           0       -8.201222   -3.095371   -0.250681
     81          1           0       -8.326180   -2.581617   -1.898825
     82          1           0       -6.538764   -2.873599   -1.151822
     83          1           0        6.987197    0.389810    0.067789
     84          1           0       -6.467130    0.540749   -0.078046
     85          1           0        5.481807    3.128230    0.355748
     86          1           0       -4.939848   -2.084740   -0.732129
     87          1           0        4.630226   -0.068108   -0.293085
     88          1           0       -4.125790    0.747695   -0.023583
     89          1           0        2.758278    2.707126    1.903382
     90          1           0        1.838494    3.345920    0.373053
     91          1           0        3.890786    3.724572    0.577077
     92          1           0       -2.764337   -2.922045   -0.378437
     93          1           0       -2.547116   -2.151834   -2.055875
     94          1           0       -1.204181   -2.291537   -0.911552
     95          1           0        2.076280   -0.611349    0.053782
     96          1           0       -1.875739    0.982951    0.738476
     97          1           0        0.278629    1.866985    0.644769
     98          1           0        0.252941   -1.003978   -0.628797
 ---------------------------------------------------------------------

 SCF Done:  E(RCAM-B3LYP) =  -1706.92710406     A.U. after   15 cycles

 Excitation energies and oscillator strengths:

 Excited State   1:      Singlet-A      2.1257 eV  583.25 nm  f=3.3426  <S**2>=0.000
     155 ->158         0.15820
     156 ->157         0.68802
 This state for optimization and/or second-order correction.
 Total Energy, E(TD-HF/TD-DFT) =  -1706.84898457
 Copying the excited state density for this state as the 1-particle RhoCI density.

 The electronic state is 1-A.
 Alpha  occ. eigenvalues --  -19.22165 -19.20949 -10.31165 -10.30381 -10.28981
 Alpha  occ. eigenvalues --  -10.28552 -10.27954 -10.27928 -10.27761 -10.27576
 Alpha  occ. eigenvalues --  -10.27535 -10.27342 -10.27084 -10.26806 -10.26704
 Alpha  occ. eigenvalues --  -10.26598 -10.26549 -10.26390 -10.26341 -10.26255
 Alpha  occ. eigenvalues --  -10.26221 -10.26201 -10.26145 -10.26122 -10.26086
 Alpha  occ. eigenvalues --  -10.26064 -10.25906 -10.25900 -10.25770 -10.25599
 Alpha  occ. eigenvalues --  -10.25469 -10.25463 -10.25190 -10.25100 -10.25082
 Alpha  occ. eigenvalues --  -10.24891 -10.24489 -10.23980 -10.23819 -10.23634
 Alpha  occ. eigenvalues --  -10.23565 -10.23336  -1.13003  -1.07076  -0.93418
 Alpha  occ. eigenvalues --   -0.93357  -0.92165  -0.91749  -0.91065  -0.89663
 Alpha  occ. eigenvalues --   -0.87846  -0.87752  -0.86398  -0.85495  -0.85035
 Alpha  occ. eigenvalues --   -0.83160  -0.81866  -0.80216  -0.79939  -0.77599
 Alpha  occ. eigenvalues --   -0.77584  -0.77213  -0.76361  -0.75937  -0.75497
 Alpha  occ. eigenvalues --   -0.75248  -0.75041  -0.74084  -0.72941  -0.70592
 Alpha  occ. eigenvalues --   -0.69310  -0.67225  -0.66162  -0.65269  -0.63920
 Alpha  occ. eigenvalues --   -0.63461  -0.62879  -0.60930  -0.60047  -0.59996
 Alpha  occ. eigenvalues --   -0.59441  -0.59179  -0.59050  -0.57486  -0.56071
 Alpha  occ. eigenvalues --   -0.55204  -0.54909  -0.54827  -0.54161  -0.53506
 Alpha  occ. eigenvalues --   -0.52849  -0.52807  -0.52249  -0.51977  -0.51510
 Alpha  occ. eigenvalues --   -0.50875  -0.50585  -0.49964  -0.49801  -0.49535
 Alpha  occ. eigenvalues --   -0.49306  -0.48777  -0.48375  -0.48254  -0.48062
 Alpha  occ. eigenvalues --   -0.47377  -0.47057  -0.46557  -0.46535  -0.46324
 Alpha  occ. eigenvalues --   -0.45915  -0.45540  -0.45370  -0.44979  -0.44626
 Alpha  occ. eigenvalues --   -0.44512  -0.44242  -0.44032  -0.43642  -0.43324
 Alpha  occ. eigenvalues --   -0.43180  -0.43083  -0.42731  -0.42512  -0.42191
 Alpha  occ. eigenvalues --   -0.42111  -0.41942  -0.41444  -0.40859  -0.40749
 Alpha  occ. eigenvalues --   -0.40451  -0.40313  -0.39807  -0.39165  -0.39074
 Alpha  occ. eigenvalues --   -0.38863  -0.38405  -0.38264  -0.38040  -0.37623
 Alpha  occ. eigenvalues --   -0.37539  -0.37453  -0.36527  -0.36495  -0.35955
 Alpha  occ. eigenvalues --   -0.35723  -0.34995  -0.33527  -0.32616  -0.32062
 Alpha  occ. eigenvalues --   -0.31380  -0.29403  -0.27667  -0.25566  -0.22886
 Alpha  occ. eigenvalues --   -0.19137
 Alpha virt. eigenvalues --   -0.05736  -0.01501   0.02090   0.05197   0.07778
 Alpha virt. eigenvalues --    0.09503   0.10447   0.10686   0.11646   0.12609
 Alpha virt. eigenvalues --    0.12816   0.12996   0.13313   0.13776   0.14100

 Mulliken charges:
               1
     1  O   -0.529966
     2  O   -0.589461
     3  C   -0.000612
     4  C   -0.062775
     5  C   -0.198727
     6  C   -0.174613
     7  C    0.166200
     8  C    0.158228
     9  C    0.066627
    10  C    0.045351
    11  C   -0.209449
    12  C   -0.233529
    13  C    0.031740
    14  C    0.079859
    15  C   -0.328639
    16  C   -0.312165
    17  C   -0.277315
    18  C   -0.304445
    19  C   -0.055809
    20  C   -0.161438
    21  C   -0.357883
    22  C   -0.347303
    23  C   -0.130614
    24  C   -0.069432
    25  C    0.050886
    26  C    0.155545
    27  C   -0.363966
    28  C   -0.366853
    29  C   -0.110533
    30  C   -0.154347
    31  C   -0.091116
    32  C   -0.089743
    33  C   -0.090333
    34  C   -0.098854
    35  C    0.091606
    36  C    0.087481
    37  C   -0.341841
    38  C   -0.368018
    39  C   -0.144606
    40  C   -0.136307
    41  C   -0.062777
    42  C   -0.071012
    43  H    0.099593
    44  H    0.053468
    45  H    0.080535
    46  H    0.106712
    47  H    0.059751
    48  H    0.076738
    49  H    0.127059
    50  H    0.124598
    51  H    0.125232
    52  H    0.115370
    53  H    0.123480
    54  H    0.112662
    55  H    0.093247
    56  H    0.115672
    57  H    0.080220
    58  H    0.083860
    59  H    0.107244
    60  H    0.113977
    61  H    0.088276
    62  H    0.099957
    63  H    0.094934
    64  H    0.115236
    65  H    0.049750
    66  H    0.072646
    67  H    0.125229
    68  H    0.113371
    69  H    0.086275
    70  H    0.093306
    71  H    0.134802
    72  H    0.079847
    73  H    0.307504
    74  H    0.303329
    75  H    0.091381
    76  H    0.091756
    77  H    0.108944
    78  H    0.131371
    79  H    0.130742
    80  H    0.111419
    81  H    0.122132
    82  H    0.103262
    83  H    0.072407
    84  H    0.064878
    85  H    0.094039
    86  H    0.079427
    87  H    0.090961
    88  H    0.082528
    89  H    0.118885
    90  H    0.111400
    91  H    0.079142
    92  H    0.123628
    93  H    0.131659
    94  H    0.103518
    95  H    0.071965
    96  H    0.073785
    97  H    0.077886
    98  H    0.069963
 Sum of Mulliken charges =  -0.00000

 Dipole moment (field-independent basis, Debye):
    X=              0.4650    Y=             -1.6235    Z=              1.8794  Tot=              2.5266
 Quadrupole moment (field-independent basis, Debye-Ang):
   XX=           -244.3323   YY=           -245.4279   ZZ=           -262.0442
   XY=             10.2495   XZ=              0.2178   YZ=              2.0938

 Normal termination of Gaussian 16 at Sat Jul 20 01:18:39 2019.
