 Gaussian 16, Revision A.03,
 Gaussian 16:  ES64L-G16RevA.03 25-Dec-2016

 -------------------------------------
 # td=(NStates=1) CAM-B3LYP/6-31G(d,p)
 -------------------------------------

 --
 TD
 --
 Symbolic Z-matrix:
 Charge =  0 Multiplicity = 1

                         Standard orientation:
 ---------------------------------------------------------------------
 Center     Atomic      Atomic             Coordinates (Angstroms)
 Number     Number       Type             X           Y           Z
 ---------------------------------------------------------------------
      1          8           0       14.759141   -1.978848   -0.344087
      2          8           0      -14.593459    2.257146    0.849960
      3          6           0       11.251206   -1.316293    1.017052
      4          6           0      -12.461322   -0.974751    0.556420
      5          6           0       12.745965   -1.596709    0.989126
      6          6           0      -13.737731   -0.041289    0.636504
      7          6           0       13.322964   -1.808468   -0.367477
      8          6           0      -13.430139    1.396543    0.735337
      9          6           0       10.974286   -0.203540   -0.058140
     10          6           0      -11.256591   -0.179776   -0.228969
     11          6           0       13.225352   -0.480601   -1.061395
     12          6           0      -12.613668    1.851641   -0.349667
     13          6           0       11.818708    0.137976   -0.975936
     14          6           0      -11.492180    0.961401   -0.754314
     15          6           0       10.860502   -0.832186    2.481334
     16          6           0       10.389267   -2.485267    0.574779
     17          6           0      -11.860483   -1.173652    1.939456
     18          6           0      -12.813578   -2.340261   -0.090307
     19          6           0        9.573346    0.365559   -0.028475
     20          6           0       -9.979456   -0.949380   -0.428066
     21          6           0       11.539129    1.125455   -2.159117
     22          6           0      -10.488471    1.654341   -1.752277
     23          6           0        9.297598    1.709414   -0.068656
     24          6           0       -8.759857   -0.404559   -0.367420
     25          6           0        7.944590    2.296034   -0.008459
     26          6           0       -7.591189   -1.331567   -0.490990
     27          6           0        7.810729    3.748896    0.405237
     28          6           0       -7.731345   -2.771804   -0.831978
     29          6           0        6.862197    1.552331   -0.059890
     30          6           0       -6.383181   -0.645855   -0.397962
     31          6           0        5.542773    1.896998    0.297755
     32          6           0       -5.060962   -1.239268   -0.599174
     33          6           0        4.441203    1.112084    0.185340
     34          6           0       -3.933347   -0.517359   -0.203388
     35          6           0        3.171282    1.443687    0.263209
     36          6           0       -2.576802   -0.889705   -0.277639
     37          6           0        2.832721    2.887890    0.599340
     38          6           0       -2.166085   -2.220764   -0.749100
     39          6           0        2.082844    0.481317    0.116357
     40          6           0       -1.560200   -0.015075    0.038910
     41          6           0        0.775497    0.741876    0.266812
     42          6           0       -0.168173   -0.225666   -0.080745
     43          1           0       13.366525   -0.919386    1.609268
     44          1           0       12.911960   -2.647139    1.660637
     45          1           0      -14.372313   -0.414024    1.424258
     46          1           0      -14.274202   -0.250114   -0.303585
     47          1           0       12.916469   -2.567131   -1.052722
     48          1           0      -12.873848    1.643871    1.742665
     49          1           0       13.938902    0.068275   -0.583741
     50          1           0       13.582672   -0.548952   -2.012186
     51          1           0      -13.321891    1.962674   -1.270653
     52          1           0      -12.258336    2.913103   -0.268696
     53          1           0       11.329072   -1.566434    3.126781
     54          1           0        9.791948   -1.001179    2.556762
     55          1           0       11.105548    0.194727    2.821406
     56          1           0       10.675295   -2.824903   -0.402205
     57          1           0       10.378705   -3.303984    1.315015
     58          1           0        9.320641   -2.085326    0.653301
     59          1           0      -11.953917   -0.169313    2.507349
     60          1           0      -10.779067   -1.788565    2.309254
     61          1           0      -12.364534   -1.842271    2.629798
     62          1           0      -13.915042   -2.532346    0.196452
     63          1           0      -12.239180   -3.079078   -0.058556
     64          1           0      -13.106474   -2.272559   -1.092868
     65          1           0        8.868588   -0.492204    0.198523
     66          1           0       -9.839852   -2.104309   -0.639709
     67          1           0       10.523172    1.154833   -2.141991
     68          1           0       11.893770    2.216648   -2.175440
     69          1           0       11.807212    0.619387   -3.100282
     70          1           0      -11.100368    2.170258   -2.459886
     71          1           0       -9.872524    0.827033   -2.158640
     72          1           0       -9.929019    2.392780   -1.188320
     73          1           0       14.892756   -2.999492    0.002920
     74          1           0      -15.210262    1.777289    1.533762
     75          1           0       10.121258    2.395226   -0.054573
     76          1           0       -8.528940    0.576229    0.056456
     77          1           0        8.811764    4.190399    0.649911
     78          1           0        7.300745    4.339432   -0.316529
     79          1           0        7.271482    3.832287    1.434352
     80          1           0       -8.608913   -3.137063    0.057115
     81          1           0       -8.130493   -2.970034   -1.897371
     82          1           0       -6.647904   -3.220333   -0.554937
     83          1           0        6.966574    0.446450   -0.244226
     84          1           0       -6.439663    0.472636   -0.335341
     85          1           0        5.656462    3.010824    0.209813
     86          1           0       -4.824732   -2.203057   -0.950442
     87          1           0        4.635352    0.031884   -0.159965
     88          1           0       -3.992736    0.456650    0.546252
     89          1           0        2.852682    2.910021    1.860916
     90          1           0        1.810715    3.133728    0.288626
     91          1           0        3.594484    3.446212    0.055372
     92          1           0       -2.944981   -3.035461   -0.331269
     93          1           0       -2.451250   -2.357757   -1.795049
     94          1           0       -1.112433   -2.609088   -0.540469
     95          1           0        2.440795   -0.561362   -0.155250
     96          1           0       -1.994151    0.986454    0.600904
     97          1           0        0.368545    1.894629    0.491946
     98          1           0        0.243070   -1.105330   -0.622458
 ---------------------------------------------------------------------

 SCF Done:  E(RCAM-B3LYP) =  -1706.96159233     A.U. after   15 cycles

 Excitation energies and oscillator strengths:

 Excited State   1:      Singlet-A      2.0414 eV  607.34 nm  f=3.5458  <S**2>=0.000
     155 ->158        -0.12465
     156 ->157         0.70080
     156 <-157        -0.11351
 This state for optimization and/or second-order correction.
 Total Energy, E(TD-HF/TD-DFT) =  -1706.88657159
 Copying the excited state density for this state as the 1-particle RhoCI density.

 The electronic state is 1-A.
 Alpha  occ. eigenvalues --  -19.21833 -19.21478 -10.30525 -10.29727 -10.29484
 Alpha  occ. eigenvalues --  -10.29016 -10.27952 -10.27572 -10.27412 -10.27304
 Alpha  occ. eigenvalues --  -10.27294 -10.27086 -10.26927 -10.26812 -10.26783
 Alpha  occ. eigenvalues --  -10.26765 -10.26726 -10.26662 -10.26633 -10.26572
 Alpha  occ. eigenvalues --  -10.26541 -10.26468 -10.26371 -10.26236 -10.26110
 Alpha  occ. eigenvalues --  -10.26099 -10.25958 -10.25923 -10.25864 -10.25849
 Alpha  occ. eigenvalues --  -10.25559 -10.25458 -10.25439 -10.25409 -10.25272
 Alpha  occ. eigenvalues --  -10.25155 -10.24897 -10.24609 -10.24272 -10.24176
 Alpha  occ. eigenvalues --  -10.23674 -10.22443  -1.07659  -1.07234  -0.93586
 Alpha  occ. eigenvalues --   -0.93424  -0.92804  -0.91902  -0.90775  -0.90203
 Alpha  occ. eigenvalues --   -0.87731  -0.86944  -0.86604  -0.85433  -0.84936
 Alpha  occ. eigenvalues --   -0.83213  -0.81833  -0.79889  -0.79458  -0.77941
 Alpha  occ. eigenvalues --   -0.77360  -0.76614  -0.76116  -0.76004  -0.75825
 Alpha  occ. eigenvalues --   -0.75643  -0.75468  -0.75095  -0.73320  -0.71127
 Alpha  occ. eigenvalues --   -0.68435  -0.67044  -0.65724  -0.65218  -0.64189
 Alpha  occ. eigenvalues --   -0.63211  -0.62342  -0.60807  -0.59559  -0.59229
 Alpha  occ. eigenvalues --   -0.58752  -0.58271  -0.57910  -0.56797  -0.55710
 Alpha  occ. eigenvalues --   -0.55498  -0.55169  -0.54467  -0.54071  -0.53372
 Alpha  occ. eigenvalues --   -0.52897  -0.52639  -0.52197  -0.51704  -0.50635
 Alpha  occ. eigenvalues --   -0.50251  -0.49928  -0.49708  -0.49494  -0.49312
 Alpha  occ. eigenvalues --   -0.49139  -0.48842  -0.48095  -0.47963  -0.47861
 Alpha  occ. eigenvalues --   -0.47540  -0.47443  -0.46919  -0.46712  -0.46168
 Alpha  occ. eigenvalues --   -0.45865  -0.45574  -0.45312  -0.45173  -0.44641
 Alpha  occ. eigenvalues --   -0.44526  -0.44510  -0.43824  -0.43670  -0.43445
 Alpha  occ. eigenvalues --   -0.42975  -0.42799  -0.42719  -0.42160  -0.41902
 Alpha  occ. eigenvalues --   -0.41584  -0.41397  -0.41121  -0.40969  -0.40734
 Alpha  occ. eigenvalues --   -0.40328  -0.40113  -0.39945  -0.39486  -0.39326
 Alpha  occ. eigenvalues --   -0.39059  -0.38845  -0.38712  -0.38682  -0.38385
 Alpha  occ. eigenvalues --   -0.37187  -0.36845  -0.36780  -0.36421  -0.35765
 Alpha  occ. eigenvalues --   -0.34592  -0.33530  -0.33271  -0.32696  -0.32114
 Alpha  occ. eigenvalues --   -0.31847  -0.30460  -0.28877  -0.26777  -0.23962
 Alpha  occ. eigenvalues --   -0.18895
 Alpha virt. eigenvalues --   -0.06677  -0.00363   0.02990   0.06235   0.08790
 Alpha virt. eigenvalues --    0.10053   0.10597   0.10794   0.10993   0.11349
 Alpha virt. eigenvalues --    0.11615   0.12311   0.12341   0.12785   0.13278

 Mulliken charges:
               1
     1  O   -0.568015
     2  O   -0.574831
     3  C   -0.014607
     4  C    0.003657
     5  C   -0.170261
     6  C   -0.223881
     7  C    0.145289
     8  C    0.191658
     9  C    0.056048
    10  C    0.069763
    11  C   -0.200620
    12  C   -0.220927
    13  C    0.017560
    14  C    0.035819
    15  C   -0.309283
    16  C   -0.292308
    17  C   -0.292114
    18  C   -0.306268
    19  C   -0.112963
    20  C   -0.157417
    21  C   -0.360854
    22  C   -0.350787
    23  C   -0.107406
    24  C   -0.060125
    25  C    0.094216
    26  C    0.103530
    27  C   -0.396952
    28  C   -0.358455
    29  C   -0.110985
    30  C   -0.129362
    31  C   -0.101007
    32  C   -0.115317
    33  C   -0.101371
    34  C   -0.113359
    35  C    0.090064
    36  C    0.155859
    37  C   -0.336988
    38  C   -0.392856
    39  C   -0.117818
    40  C   -0.130333
    41  C   -0.064857
    42  C   -0.103978
    43  H    0.117753
    44  H    0.030580
    45  H    0.095180
    46  H    0.107644
    47  H    0.085634
    48  H    0.068922
    49  H    0.128345
    50  H    0.101802
    51  H    0.099996
    52  H    0.114868
    53  H    0.104751
    54  H    0.099356
    55  H    0.115727
    56  H    0.116585
    57  H    0.099667
    58  H    0.093108
    59  H    0.092462
    60  H    0.072393
    61  H    0.095271
    62  H    0.086598
    63  H    0.112038
    64  H    0.110264
    65  H    0.086138
    66  H    0.071478
    67  H    0.129151
    68  H    0.105775
    69  H    0.102119
    70  H    0.105744
    71  H    0.123123
    72  H    0.113936
    73  H    0.296072
    74  H    0.304516
    75  H    0.094247
    76  H    0.095183
    77  H    0.105516
    78  H    0.134613
    79  H    0.121708
    80  H    0.089625
    81  H    0.137184
    82  H    0.107194
    83  H    0.062152
    84  H    0.094574
    85  H    0.081891
    86  H    0.087365
    87  H    0.075865
    88  H    0.070347
    89  H    0.100076
    90  H    0.106759
    91  H    0.119757
    92  H    0.089136
    93  H    0.128428
    94  H    0.117204
    95  H    0.079366
    96  H    0.064735
    97  H    0.086088
    98  H    0.096830
 Sum of Mulliken charges =  -0.00000

 Dipole moment (field-independent basis, Debye):
    X=             -0.5775    Y=             -2.6488    Z=              0.6562  Tot=              2.7893
 Quadrupole moment (field-independent basis, Debye-Ang):
   XX=           -272.3353   YY=           -245.7172   ZZ=           -261.9887
   XY=             12.4196   XZ=             -0.9838   YZ=              3.3894

 Normal termination of Gaussian 16 at Sun Jul 14 22:17:57 2019.
