 Gaussian 16, Revision A.03,
 Gaussian 16:  ES64L-G16RevA.03 25-Dec-2016

 -------------------------------------
 # td=(NStates=1) CAM-B3LYP/6-31G(d,p)
 -------------------------------------

 --
 TD
 --
 Symbolic Z-matrix:
 Charge =  0 Multiplicity = 1

                         Standard orientation:
 ---------------------------------------------------------------------
 Center     Atomic      Atomic             Coordinates (Angstroms)
 Number     Number       Type             X           Y           Z
 ---------------------------------------------------------------------
      1          8           0       14.663641   -2.157100   -0.039088
      2          8           0      -14.744023    1.913896    1.068447
      3          6           0       11.012472   -1.453433    0.992905
      4          6           0      -12.337902   -1.008943    0.535495
      5          6           0       12.519444   -1.934272    1.195207
      6          6           0      -13.596116   -0.293352    0.723988
      7          6           0       13.271651   -1.838650   -0.086508
      8          6           0      -13.433167    1.170009    1.019868
      9          6           0       10.933532   -0.286231   -0.037467
     10          6           0      -11.191834   -0.211598   -0.162212
     11          6           0       13.193521   -0.541854   -0.673348
     12          6           0      -12.651683    1.866905   -0.022692
     13          6           0       11.859061    0.050456   -0.841880
     14          6           0      -11.434959    1.056469   -0.513951
     15          6           0       10.480499   -1.142924    2.392839
     16          6           0       10.248053   -2.714339    0.377438
     17          6           0      -11.826319   -1.365308    2.031340
     18          6           0      -12.591623   -2.402312   -0.111256
     19          6           0        9.621728    0.425080    0.048975
     20          6           0      -10.039322   -0.972302   -0.411718
     21          6           0       11.812259    1.207580   -1.804886
     22          6           0      -10.507649    1.853371   -1.397182
     23          6           0        9.365625    1.765332    0.021014
     24          6           0       -8.709080   -0.506578   -0.274790
     25          6           0        8.031055    2.279228    0.050449
     26          6           0       -7.528094   -1.231752   -0.613209
     27          6           0        7.949721    3.749074    0.445519
     28          6           0       -7.607103   -2.635221   -1.075066
     29          6           0        6.845936    1.571398    0.046660
     30          6           0       -6.424995   -0.587499   -0.471511
     31          6           0        5.540791    2.112486    0.093559
     32          6           0       -5.034102   -0.960399   -0.726729
     33          6           0        4.563617    1.229673   -0.148316
     34          6           0       -3.882353   -0.339627   -0.424100
     35          6           0        3.184142    1.628517    0.015551
     36          6           0       -2.433016   -0.839472   -0.671112
     37          6           0        2.868705    3.100194    0.532108
     38          6           0       -2.298607   -2.194943   -1.160971
     39          6           0        2.110176    0.861131   -0.113225
     40          6           0       -1.508359    0.066435   -0.302679
     41          6           0        0.726301    0.926302    0.072680
     42          6           0       -0.102690   -0.052715   -0.353827
     43          1           0       12.725797   -1.183511    1.925236
     44          1           0       12.367853   -2.710531    1.758779
     45          1           0      -14.222489   -0.749377    1.375382
     46          1           0      -14.436251   -0.325531   -0.276849
     47          1           0       12.975611   -2.485741   -0.745949
     48          1           0      -12.790310    1.561487    2.038306
     49          1           0       13.778690    0.148108   -0.306788
     50          1           0       13.643959   -0.632454   -1.825360
     51          1           0      -13.298407    1.700497   -0.972575
     52          1           0      -12.445618    2.882940    0.399135
     53          1           0       10.621569   -2.006532    2.973890
     54          1           0        9.437470   -0.953628    2.247427
     55          1           0       11.052125   -0.329894    2.789593
     56          1           0       10.610033   -3.273596   -0.447367
     57          1           0        9.921739   -3.477678    1.283439
     58          1           0        9.127008   -2.545331   -0.113100
     59          1           0      -11.748847   -0.306881    2.690221
     60          1           0      -10.742824   -1.852394    2.029449
     61          1           0      -12.607972   -2.089619    2.511696
     62          1           0      -13.635575   -2.767166    0.376871
     63          1           0      -11.813515   -3.149814    0.040111
     64          1           0      -12.865621   -2.270643   -1.220630
     65          1           0        8.845096   -0.292534    0.519504
     66          1           0      -10.114029   -1.851371   -0.857630
     67          1           0       10.691898    1.358979   -2.199097
     68          1           0       12.087897    2.265107   -1.576279
     69          1           0       12.463746    0.900969   -2.564995
     70          1           0      -11.416230    2.378821   -1.884606
     71          1           0      -10.066785    1.166549   -2.078448
     72          1           0      -10.051220    2.800289   -0.912718
     73          1           0       14.749712   -3.187504    0.069722
     74          1           0      -15.266999    1.541599    1.904060
     75          1           0       10.186627    2.552083   -0.077296
     76          1           0       -8.657508    0.433866    0.057048
     77          1           0        8.874821    4.043178    0.501628
     78          1           0        7.545912    4.204539   -0.596284
     79          1           0        7.397614    3.888155    1.413634
     80          1           0       -8.052669   -3.448737   -0.438727
     81          1           0       -7.966352   -2.816129   -1.801938
     82          1           0       -6.856465   -3.063524   -1.167825
     83          1           0        6.800066    0.539449   -0.481242
     84          1           0       -6.503558    0.574287   -0.120651
     85          1           0        5.300097    3.166240    0.474857
     86          1           0       -4.937437   -2.045994   -1.004778
     87          1           0        4.749589    0.194619   -0.484974
     88          1           0       -3.813649    0.717858    0.084090
     89          1           0        3.205801    3.190024    1.393177
     90          1           0        1.791247    3.352127    0.314111
     91          1           0        3.536078    3.773097   -0.038053
     92          1           0       -2.844221   -2.938483   -0.422769
     93          1           0       -2.821620   -2.367323   -2.083588
     94          1           0       -1.261692   -2.527933   -1.139730
     95          1           0        2.455835   -0.149560   -0.650415
     96          1           0       -1.892438    1.023111   -0.111831
     97          1           0        0.336117    1.863092    0.622111
     98          1           0        0.497455   -0.911540   -0.607610
 ---------------------------------------------------------------------

 SCF Done:  E(RCAM-B3LYP) =  -1706.77253417     A.U. after   14 cycles

 Excitation energies and oscillator strengths:

 Excited State   1:      Singlet-A      2.7222 eV  455.45 nm  f=3.4636  <S**2>=0.000
     155 ->158        -0.18099
     156 ->157         0.67258
 This state for optimization and/or second-order correction.
 Total Energy, E(TD-HF/TD-DFT) =  -1706.67249362
 Copying the excited state density for this state as the 1-particle RhoCI density.

 The electronic state is 1-A.
 Alpha  occ. eigenvalues --  -19.21526 -19.20815 -10.31636 -10.28536 -10.28295
 Alpha  occ. eigenvalues --  -10.27642 -10.27533 -10.27512 -10.27253 -10.27134
 Alpha  occ. eigenvalues --  -10.26762 -10.26721 -10.26682 -10.26621 -10.26561
 Alpha  occ. eigenvalues --  -10.26531 -10.26512 -10.26399 -10.26379 -10.26336
 Alpha  occ. eigenvalues --  -10.26320 -10.26221 -10.26188 -10.26128 -10.26057
 Alpha  occ. eigenvalues --  -10.25872 -10.25731 -10.25641 -10.25549 -10.25385
 Alpha  occ. eigenvalues --  -10.25376 -10.25358 -10.25235 -10.25024 -10.25016
 Alpha  occ. eigenvalues --  -10.24797 -10.24425 -10.24229 -10.24221 -10.24099
 Alpha  occ. eigenvalues --  -10.23431 -10.21174  -1.08073  -1.05463  -0.94504
 Alpha  occ. eigenvalues --   -0.93866  -0.92586  -0.92269  -0.91448  -0.90040
 Alpha  occ. eigenvalues --   -0.88139  -0.87710  -0.87063  -0.85821  -0.85396
 Alpha  occ. eigenvalues --   -0.84303  -0.83182  -0.81753  -0.80249  -0.79255
 Alpha  occ. eigenvalues --   -0.78871  -0.77073  -0.76733  -0.76499  -0.75790
 Alpha  occ. eigenvalues --   -0.75331  -0.75163  -0.74338  -0.72967  -0.70528
 Alpha  occ. eigenvalues --   -0.69572  -0.67912  -0.66534  -0.64730  -0.64002
 Alpha  occ. eigenvalues --   -0.63712  -0.62437  -0.61907  -0.61512  -0.60368
 Alpha  occ. eigenvalues --   -0.59565  -0.59473  -0.57582  -0.56625  -0.56417
 Alpha  occ. eigenvalues --   -0.55978  -0.55430  -0.55023  -0.54195  -0.53895
 Alpha  occ. eigenvalues --   -0.53576  -0.53059  -0.52269  -0.51774  -0.51370
 Alpha  occ. eigenvalues --   -0.51124  -0.51009  -0.49961  -0.49902  -0.49453
 Alpha  occ. eigenvalues --   -0.49334  -0.49199  -0.48765  -0.48197  -0.48085
 Alpha  occ. eigenvalues --   -0.48070  -0.47509  -0.47085  -0.46756  -0.46654
 Alpha  occ. eigenvalues --   -0.46504  -0.45706  -0.45311  -0.44804  -0.44627
 Alpha  occ. eigenvalues --   -0.44500  -0.44262  -0.44026  -0.43654  -0.43621
 Alpha  occ. eigenvalues --   -0.43404  -0.42879  -0.42648  -0.42488  -0.42056
 Alpha  occ. eigenvalues --   -0.41423  -0.41331  -0.41258  -0.40943  -0.40681
 Alpha  occ. eigenvalues --   -0.40210  -0.40129  -0.39858  -0.39412  -0.39318
 Alpha  occ. eigenvalues --   -0.38936  -0.38908  -0.38756  -0.38177  -0.37528
 Alpha  occ. eigenvalues --   -0.37396  -0.37330  -0.36491  -0.36240  -0.35661
 Alpha  occ. eigenvalues --   -0.34903  -0.34214  -0.33649  -0.32475  -0.32232
 Alpha  occ. eigenvalues --   -0.32181  -0.30092  -0.28944  -0.26207  -0.23558
 Alpha  occ. eigenvalues --   -0.20832
 Alpha virt. eigenvalues --   -0.04238  -0.00803   0.02207   0.06519   0.08611
 Alpha virt. eigenvalues --    0.10318   0.10653   0.11332   0.11732   0.12081
 Alpha virt. eigenvalues --    0.12177   0.12445   0.12650   0.13196   0.13452

 Mulliken charges:
               1
     1  O   -0.584957
     2  O   -0.573832
     3  C   -0.065964
     4  C   -0.006596
     5  C   -0.172098
     6  C   -0.170553
     7  C    0.212748
     8  C    0.158732
     9  C    0.099504
    10  C    0.103548
    11  C   -0.218339
    12  C   -0.200557
    13  C    0.047650
    14  C    0.008381
    15  C   -0.299681
    16  C   -0.302639
    17  C   -0.286484
    18  C   -0.298520
    19  C   -0.137004
    20  C   -0.152472
    21  C   -0.360661
    22  C   -0.349110
    23  C   -0.098899
    24  C   -0.095265
    25  C    0.055486
    26  C    0.143617
    27  C   -0.344904
    28  C   -0.292544
    29  C   -0.134667
    30  C   -0.139507
    31  C   -0.065365
    32  C   -0.120136
    33  C   -0.097740
    34  C   -0.107652
    35  C    0.077831
    36  C    0.145431
    37  C   -0.367164
    38  C   -0.385201
    39  C   -0.138944
    40  C   -0.134368
    41  C   -0.059138
    42  C   -0.087891
    43  H    0.095705
    44  H    0.089270
    45  H    0.098943
    46  H    0.061244
    47  H    0.085169
    48  H    0.054352
    49  H    0.134748
    50  H    0.066095
    51  H    0.119311
    52  H    0.118834
    53  H    0.108920
    54  H    0.110319
    55  H    0.116101
    56  H    0.119669
    57  H    0.071455
    58  H    0.070251
    59  H    0.076462
    60  H    0.100851
    61  H    0.086092
    62  H    0.077333
    63  H    0.112705
    64  H    0.098935
    65  H    0.088903
    66  H    0.078330
    67  H    0.106318
    68  H    0.115567
    69  H    0.106025
    70  H    0.093561
    71  H    0.130575
    72  H    0.114857
    73  H    0.300858
    74  H    0.303799
    75  H    0.092325
    76  H    0.076251
    77  H    0.108398
    78  H    0.104970
    79  H    0.125009
    80  H    0.092877
    81  H    0.112237
    82  H    0.087759
    83  H    0.075647
    84  H    0.067718
    85  H    0.095795
    86  H    0.073326
    87  H    0.091013
    88  H    0.074388
    89  H    0.135547
    90  H    0.105836
    91  H    0.106721
    92  H    0.109201
    93  H    0.135963
    94  H    0.115127
    95  H    0.040500
    96  H    0.087607
    97  H    0.080138
    98  H    0.090014
 Sum of Mulliken charges =  -0.00000

 Dipole moment (field-independent basis, Debye):
    X=              0.9642    Y=             -2.4362    Z=              0.9350  Tot=              2.7819
 Quadrupole moment (field-independent basis, Debye-Ang):
   XX=           -286.7172   YY=           -240.3605   ZZ=           -260.4587
   XY=             12.2827   XZ=             -6.2057   YZ=              6.3042

 Normal termination of Gaussian 16 at Thu Jul 18 15:08:21 2019.
