 Gaussian 16, Revision A.03,
 Gaussian 16:  ES64L-G16RevA.03 25-Dec-2016

 -------------------------------------
 # td=(NStates=1) CAM-B3LYP/6-31G(d,p)
 -------------------------------------

 --
 TD
 --
 Symbolic Z-matrix:
 Charge =  0 Multiplicity = 1

                         Standard orientation:
 ---------------------------------------------------------------------
 Center     Atomic      Atomic             Coordinates (Angstroms)
 Number     Number       Type             X           Y           Z
 ---------------------------------------------------------------------
      1          8           0       14.583441   -2.321142   -0.357207
      2          8           0      -14.743208    1.935352    1.021058
      3          6           0       11.116129   -1.605006    0.901143
      4          6           0      -12.418985   -1.146135    0.584663
      5          6           0       12.656844   -2.017266    1.071201
      6          6           0      -13.748315   -0.337992    0.560728
      7          6           0       13.284992   -1.960471   -0.351284
      8          6           0      -13.461144    1.116311    0.938277
      9          6           0       10.931688   -0.412900   -0.016006
     10          6           0      -11.245107   -0.293671   -0.078476
     11          6           0       13.239525   -0.500989   -0.859691
     12          6           0      -12.711798    1.797468   -0.155397
     13          6           0       11.848295    0.137948   -0.809862
     14          6           0      -11.530310    1.033114   -0.520598
     15          6           0       10.776880   -1.285315    2.438688
     16          6           0       10.252666   -2.764383    0.418511
     17          6           0      -11.994371   -1.436519    2.053716
     18          6           0      -12.623904   -2.469865   -0.129030
     19          6           0        9.686456    0.299036    0.215311
     20          6           0      -10.001435   -0.979114   -0.394644
     21          6           0       11.857959    1.385237   -1.701936
     22          6           0      -10.472224    1.757002   -1.443378
     23          6           0        9.397181    1.660627    0.194422
     24          6           0       -8.740419   -0.450194   -0.386707
     25          6           0        8.072898    2.319633    0.353462
     26          6           0       -7.527096   -1.228424   -0.458007
     27          6           0        8.081010    3.754244    0.646337
     28          6           0       -7.668005   -2.688564   -1.107076
     29          6           0        6.912850    1.615386    0.059000
     30          6           0       -6.373998   -0.524368   -0.336264
     31          6           0        5.562294    2.182589    0.146682
     32          6           0       -5.091832   -0.982256   -0.632892
     33          6           0        4.472977    1.320882   -0.022344
     34          6           0       -3.931730   -0.296930   -0.341528
     35          6           0        3.111465    1.782626    0.033708
     36          6           0       -2.528726   -0.655958   -0.537187
     37          6           0        2.700915    3.145307    0.373357
     38          6           0       -2.311900   -2.056261   -0.939704
     39          6           0        2.061959    0.821389   -0.283657
     40          6           0       -1.530350    0.178764   -0.285042
     41          6           0        0.791858    1.043915   -0.193481
     42          6           0       -0.173922    0.040281   -0.302443
     43          1           0       13.320845   -1.336966    1.601945
     44          1           0       12.789901   -3.027181    1.351500
     45          1           0      -14.396584   -1.052877    1.283024
     46          1           0      -14.170449   -0.279154   -0.403162
     47          1           0       12.893759   -2.553198   -1.041146
     48          1           0      -12.994337    1.060245    1.961785
     49          1           0       14.177964    0.279306   -0.369340
     50          1           0       13.437527   -0.550357   -2.032255
     51          1           0      -13.505340    1.935672   -0.900830
     52          1           0      -12.608551    2.977260    0.114090
     53          1           0       10.918953   -2.069618    2.969662
     54          1           0        9.721107   -0.876268    2.436576
     55          1           0       11.487157   -0.437205    2.939310
     56          1           0       10.460777   -2.975184   -0.600920
     57          1           0       10.431877   -3.650910    1.237133
     58          1           0        9.248731   -2.334617    0.540098
     59          1           0      -11.654260   -0.428347    2.696165
     60          1           0      -11.115413   -2.005318    2.112787
     61          1           0      -12.917102   -1.858794    2.685285
     62          1           0      -13.594108   -2.839723    0.351797
     63          1           0      -11.716665   -3.183975   -0.272548
     64          1           0      -12.934809   -2.530059   -1.071257
     65          1           0        8.669355   -0.197096    0.422243
     66          1           0      -10.174196   -1.952831   -0.478908
     67          1           0       10.735026    1.533982   -2.106554
     68          1           0       12.152292    2.098659   -1.097924
     69          1           0       12.506909    1.133458   -2.655889
     70          1           0      -10.751944    2.567829   -2.187149
     71          1           0       -9.716194    1.205680   -2.072428
     72          1           0       -9.810006    2.245450   -0.788882
     73          1           0       14.614299   -3.220290   -0.293910
     74          1           0      -15.369218    1.405651    1.727385
     75          1           0       10.253733    2.312921   -0.017166
     76          1           0       -8.661212    0.716253   -0.088742
     77          1           0        9.081620    4.099264    0.474391
     78          1           0        7.463823    4.260971   -0.114655
     79          1           0        7.585696    3.925153    1.819659
     80          1           0       -8.345002   -3.333868   -0.538947
     81          1           0       -8.005619   -2.409641   -2.254221
     82          1           0       -6.573851   -2.978730   -0.898912
     83          1           0        6.919892    0.585682   -0.139446
     84          1           0       -6.318705    0.598262    0.015519
     85          1           0        5.677464    3.302637    0.329859
     86          1           0       -4.898656   -1.906124   -1.130347
     87          1           0        4.659731    0.196983   -0.050974
     88          1           0       -4.086128    0.716943   -0.172737
     89          1           0        2.862269    3.377636    1.427095
     90          1           0        1.696284    3.473625    0.278031
     91          1           0        3.276109    3.964053   -0.173275
     92          1           0       -2.493511   -2.610526   -0.098951
     93          1           0       -2.933195   -2.353479   -1.707261
     94          1           0       -1.218951   -2.155069   -1.363584
     95          1           0        2.367168   -0.140661   -0.468086
     96          1           0       -1.918346    1.402950   -0.043442
     97          1           0        0.244145    2.072611   -0.087966
     98          1           0        0.118463   -0.909827   -0.579758
 ---------------------------------------------------------------------

 SCF Done:  E(RCAM-B3LYP) =  -1706.90563391     A.U. after   16 cycles

 Excitation energies and oscillator strengths:

 Excited State   1:      Singlet-A      2.0664 eV  599.99 nm  f=3.7899  <S**2>=0.000
     155 ->158        -0.14470
     156 ->157         0.69191
 This state for optimization and/or second-order correction.
 Total Energy, E(TD-HF/TD-DFT) =  -1706.82969373
 Copying the excited state density for this state as the 1-particle RhoCI density.

 The electronic state is 1-A.
 Alpha  occ. eigenvalues --  -19.21338 -19.20053 -10.30687 -10.28560 -10.28504
 Alpha  occ. eigenvalues --  -10.28296 -10.28237 -10.27834 -10.27754 -10.27707
 Alpha  occ. eigenvalues --  -10.27583 -10.27472 -10.27397 -10.27328 -10.27200
 Alpha  occ. eigenvalues --  -10.26818 -10.26719 -10.26638 -10.26620 -10.26605
 Alpha  occ. eigenvalues --  -10.26602 -10.26589 -10.26515 -10.26437 -10.26270
 Alpha  occ. eigenvalues --  -10.26218 -10.26122 -10.26100 -10.26043 -10.25973
 Alpha  occ. eigenvalues --  -10.25640 -10.25527 -10.25451 -10.25399 -10.25168
 Alpha  occ. eigenvalues --  -10.25140 -10.25065 -10.24804 -10.24715 -10.24559
 Alpha  occ. eigenvalues --  -10.24550 -10.24277  -1.13072  -1.04514  -0.93357
 Alpha  occ. eigenvalues --   -0.93014  -0.92769  -0.91669  -0.90642  -0.90036
 Alpha  occ. eigenvalues --   -0.87449  -0.86743  -0.86641  -0.85812  -0.84411
 Alpha  occ. eigenvalues --   -0.83155  -0.82102  -0.80154  -0.79726  -0.78978
 Alpha  occ. eigenvalues --   -0.76946  -0.76485  -0.76409  -0.75979  -0.75810
 Alpha  occ. eigenvalues --   -0.75650  -0.74735  -0.74286  -0.73288  -0.70593
 Alpha  occ. eigenvalues --   -0.68886  -0.67587  -0.65511  -0.64662  -0.64139
 Alpha  occ. eigenvalues --   -0.63800  -0.62702  -0.61775  -0.61194  -0.60717
 Alpha  occ. eigenvalues --   -0.60204  -0.59377  -0.58394  -0.57444  -0.56407
 Alpha  occ. eigenvalues --   -0.55478  -0.54873  -0.54382  -0.53709  -0.53583
 Alpha  occ. eigenvalues --   -0.52906  -0.52322  -0.51716  -0.51490  -0.51203
 Alpha  occ. eigenvalues --   -0.50904  -0.50027  -0.49900  -0.49436  -0.48906
 Alpha  occ. eigenvalues --   -0.48747  -0.48671  -0.48517  -0.48314  -0.47975
 Alpha  occ. eigenvalues --   -0.47517  -0.47073  -0.46885  -0.46632  -0.46342
 Alpha  occ. eigenvalues --   -0.46231  -0.45831  -0.45723  -0.45367  -0.44629
 Alpha  occ. eigenvalues --   -0.44476  -0.44240  -0.43983  -0.43784  -0.43637
 Alpha  occ. eigenvalues --   -0.42742  -0.42541  -0.42035  -0.41805  -0.41693
 Alpha  occ. eigenvalues --   -0.41524  -0.41473  -0.41129  -0.40939  -0.40799
 Alpha  occ. eigenvalues --   -0.40427  -0.40060  -0.39893  -0.39526  -0.39174
 Alpha  occ. eigenvalues --   -0.39070  -0.38792  -0.38707  -0.38482  -0.37858
 Alpha  occ. eigenvalues --   -0.37528  -0.37260  -0.36551  -0.36349  -0.35878
 Alpha  occ. eigenvalues --   -0.35380  -0.35043  -0.34283  -0.32958  -0.31841
 Alpha  occ. eigenvalues --   -0.30435  -0.30028  -0.28335  -0.25593  -0.23063
 Alpha  occ. eigenvalues --   -0.18886
 Alpha virt. eigenvalues --   -0.06260  -0.01127   0.01813   0.05411   0.07426
 Alpha virt. eigenvalues --    0.10291   0.11107   0.11169   0.11552   0.11739
 Alpha virt. eigenvalues --    0.12242   0.12424   0.12531   0.12938   0.13395

 Mulliken charges:
               1
     1  O   -0.529089
     2  O   -0.584281
     3  C   -0.046687
     4  C   -0.025624
     5  C   -0.176701
     6  C   -0.182079
     7  C    0.162743
     8  C    0.151486
     9  C    0.099799
    10  C    0.043079
    11  C   -0.204560
    12  C   -0.235482
    13  C    0.022017
    14  C    0.064442
    15  C   -0.277641
    16  C   -0.284894
    17  C   -0.277444
    18  C   -0.300359
    19  C   -0.122664
    20  C   -0.090238
    21  C   -0.340038
    22  C   -0.385805
    23  C   -0.118962
    24  C   -0.089135
    25  C    0.077556
    26  C    0.040265
    27  C   -0.368747
    28  C   -0.339681
    29  C   -0.098724
    30  C   -0.095257
    31  C   -0.084547
    32  C   -0.086682
    33  C   -0.139938
    34  C   -0.118966
    35  C    0.114540
    36  C    0.097675
    37  C   -0.387469
    38  C   -0.371561
    39  C   -0.115696
    40  C   -0.103275
    41  C   -0.051281
    42  C   -0.092825
    43  H    0.110161
    44  H    0.075509
    45  H    0.069307
    46  H    0.111036
    47  H    0.073639
    48  H    0.091373
    49  H    0.077983
    50  H    0.080453
    51  H    0.135900
    52  H    0.109883
    53  H    0.112473
    54  H    0.092405
    55  H    0.081440
    56  H    0.114947
    57  H    0.082146
    58  H    0.110610
    59  H    0.079471
    60  H    0.119879
    61  H    0.079849
    62  H    0.087681
    63  H    0.092820
    64  H    0.124383
    65  H    0.070423
    66  H    0.054852
    67  H    0.108265
    68  H    0.145431
    69  H    0.100578
    70  H    0.095653
    71  H    0.118772
    72  H    0.126094
    73  H    0.288808
    74  H    0.298742
    75  H    0.070555
    76  H    0.077395
    77  H    0.117928
    78  H    0.126843
    79  H    0.102125
    80  H    0.126304
    81  H    0.122697
    82  H    0.110536
    83  H    0.074413
    84  H    0.083900
    85  H    0.094074
    86  H    0.076758
    87  H    0.099126
    88  H    0.069344
    89  H    0.127034
    90  H    0.122666
    91  H    0.108476
    92  H    0.140936
    93  H    0.126839
    94  H    0.091784
    95  H    0.077117
    96  H    0.034208
    97  H    0.081938
    98  H    0.068770
 Sum of Mulliken charges =  -0.00000

 Dipole moment (field-independent basis, Debye):
    X=              1.2650    Y=             -2.2820    Z=              0.0667  Tot=              2.6100
 Quadrupole moment (field-independent basis, Debye-Ang):
   XX=           -278.3246   YY=           -242.4496   ZZ=           -262.7784
   XY=             15.3886   XZ=             -6.6826   YZ=              2.2667

 Normal termination of Gaussian 16 at Mon Jul  8 17:51:58 2019.
