 Gaussian 16, Revision A.03,
 Gaussian 16:  ES64L-G16RevA.03 25-Dec-2016

 -------------------------------------
 # td=(NStates=1) CAM-B3LYP/6-31G(d,p)
 -------------------------------------

 --
 TD
 --
 Symbolic Z-matrix:
 Charge =  0 Multiplicity = 1

                         Standard orientation:
 ---------------------------------------------------------------------
 Center     Atomic      Atomic             Coordinates (Angstroms)
 Number     Number       Type             X           Y           Z
 ---------------------------------------------------------------------
      1          8           0       14.616320   -2.285650   -0.323416
      2          8           0      -14.717484    1.937938    1.081991
      3          6           0       11.056411   -1.476286    1.039600
      4          6           0      -12.410606   -1.002579    0.602986
      5          6           0       12.592244   -1.889255    1.136627
      6          6           0      -13.734647   -0.246851    0.711840
      7          6           0       13.307954   -1.827187   -0.275869
      8          6           0      -13.488747    1.241989    1.086621
      9          6           0       10.935118   -0.267104    0.135552
     10          6           0      -11.320089   -0.263594   -0.133001
     11          6           0       13.279025   -0.401842   -0.829527
     12          6           0      -12.712551    1.847084    0.010677
     13          6           0       11.877539    0.155328   -0.744539
     14          6           0      -11.457507    1.057559   -0.522949
     15          6           0       10.650645   -1.174760    2.516715
     16          6           0       10.322117   -2.590070    0.467653
     17          6           0      -11.874107   -1.501718    1.980044
     18          6           0      -12.771712   -2.365912   -0.294897
     19          6           0        9.640982    0.300375    0.124926
     20          6           0      -10.059488   -0.941485   -0.363103
     21          6           0       11.602207    1.334657   -1.759114
     22          6           0      -10.455612    1.971045   -1.302198
     23          6           0        9.397116    1.745688    0.146102
     24          6           0       -8.770281   -0.528622   -0.368571
     25          6           0        8.109095    2.386847    0.062762
     26          6           0       -7.516792   -1.188412   -0.579902
     27          6           0        7.930425    3.838122    0.567105
     28          6           0       -7.618611   -2.598210   -1.176643
     29          6           0        7.019341    1.607022   -0.044802
     30          6           0       -6.337771   -0.519674   -0.328132
     31          6           0        5.632429    2.024079   -0.042695
     32          6           0       -5.043017   -1.123595   -0.681879
     33          6           0        4.521779    1.208693   -0.079167
     34          6           0       -3.903250   -0.332070   -0.431606
     35          6           0        3.190931    1.603489   -0.016432
     36          6           0       -2.668497   -0.783718   -0.524203
     37          6           0        2.777474    2.969115    0.304230
     38          6           0       -2.413845   -2.172939   -0.942062
     39          6           0        2.208130    0.528472   -0.133259
     40          6           0       -1.558530    0.072773   -0.310176
     41          6           0        0.750826    0.750448   -0.025639
     42          6           0       -0.199446   -0.115102   -0.414247
     43          1           0       13.102912   -1.284187    1.741916
     44          1           0       12.786581   -2.962482    1.627717
     45          1           0      -14.477398   -0.760434    1.448459
     46          1           0      -14.227457   -0.329837   -0.224113
     47          1           0       12.871096   -2.392444   -1.154636
     48          1           0      -12.889295    1.279038    1.862067
     49          1           0       14.099294    0.237503   -0.011402
     50          1           0       13.907293   -0.491847   -1.864787
     51          1           0      -13.451563    2.137560   -0.860655
     52          1           0      -12.458259    2.996279    0.299370
     53          1           0       10.709946   -2.070461    3.188333
     54          1           0        9.590903   -0.859842    2.504925
     55          1           0       11.284595   -0.419857    2.938491
     56          1           0       10.438425   -2.941123   -0.603512
     57          1           0       10.363544   -3.473670    1.198496
     58          1           0        9.310191   -2.329404    0.216201
     59          1           0      -11.331685   -0.549193    2.538625
     60          1           0      -11.039540   -2.316450    1.618226
     61          1           0      -12.492473   -2.054920    2.735021
     62          1           0      -13.526339   -2.750417    0.208463
     63          1           0      -11.781236   -2.986555   -0.292408
     64          1           0      -12.895637   -1.978994   -1.444586
     65          1           0        8.958261   -0.347352    0.190973
     66          1           0      -10.311241   -1.976158   -0.510554
     67          1           0       10.598571    1.505025   -1.843513
     68          1           0       12.154158    2.171652   -1.480936
     69          1           0       12.034885    1.186649   -2.847609
     70          1           0      -11.098736    2.753622   -1.851124
     71          1           0       -9.488316    1.410093   -1.918958
     72          1           0       -9.822067    2.661933   -0.678733
     73          1           0       14.722612   -3.222372    0.111740
     74          1           0      -15.301856    1.410498    1.728290
     75          1           0       10.476519    2.261479    0.348035
     76          1           0       -8.581408    0.516210    0.054728
     77          1           0        8.988921    4.491485    0.422248
     78          1           0        7.122199    4.340182   -0.077066
     79          1           0        7.696920    3.644693    1.762408
     80          1           0       -8.079074   -3.125317   -0.450630
     81          1           0       -8.197998   -2.395441   -2.119227
     82          1           0       -6.471141   -3.096097   -1.556689
     83          1           0        7.102558    0.551106   -0.088695
     84          1           0       -6.529069    0.487980    0.026453
     85          1           0        5.526102    2.976117    0.075007
     86          1           0       -4.912347   -2.091822   -1.071088
     87          1           0        4.586819    0.103254   -0.236605
     88          1           0       -3.963738    0.724225   -0.052935
     89          1           0        2.985650    3.242481    1.402014
     90          1           0        1.848713    3.476225    0.161028
     91          1           0        3.413858    3.637693   -0.199208
     92          1           0       -2.933305   -2.930643   -0.328826
     93          1           0       -2.661164   -2.472604   -2.110727
     94          1           0       -1.276006   -2.336574   -0.680199
     95          1           0        2.511109   -0.340287   -0.764556
     96          1           0       -1.860814    1.231703    0.093267
     97          1           0        0.548553    1.744253    0.250860
     98          1           0        0.207210   -1.101249   -0.910955
 ---------------------------------------------------------------------

 SCF Done:  E(RCAM-B3LYP) =  -1706.88531432     A.U. after   15 cycles

 Excitation energies and oscillator strengths:

 Excited State   1:      Singlet-A      1.9966 eV  620.96 nm  f=3.7486  <S**2>=0.000
     155 ->158         0.16337
     156 ->157         0.68705
 This state for optimization and/or second-order correction.
 Total Energy, E(TD-HF/TD-DFT) =  -1706.81193903
 Copying the excited state density for this state as the 1-particle RhoCI density.

 The electronic state is 1-A.
 Alpha  occ. eigenvalues --  -19.22002 -19.21006 -10.30126 -10.29424 -10.28999
 Alpha  occ. eigenvalues --  -10.28356 -10.28354 -10.28205 -10.28025 -10.27824
 Alpha  occ. eigenvalues --  -10.27798 -10.27792 -10.27750 -10.27640 -10.27589
 Alpha  occ. eigenvalues --  -10.27518 -10.27293 -10.26990 -10.26876 -10.26808
 Alpha  occ. eigenvalues --  -10.26730 -10.26718 -10.26617 -10.26396 -10.26391
 Alpha  occ. eigenvalues --  -10.26358 -10.26348 -10.26339 -10.26325 -10.26231
 Alpha  occ. eigenvalues --  -10.25735 -10.25734 -10.25626 -10.25553 -10.25477
 Alpha  occ. eigenvalues --  -10.25458 -10.25416 -10.25374 -10.25210 -10.25129
 Alpha  occ. eigenvalues --  -10.25084 -10.24085  -1.09483  -1.08658  -0.94169
 Alpha  occ. eigenvalues --   -0.93193  -0.92623  -0.92088  -0.90455  -0.90089
 Alpha  occ. eigenvalues --   -0.87682  -0.86717  -0.85277  -0.85221  -0.84684
 Alpha  occ. eigenvalues --   -0.82697  -0.81713  -0.79126  -0.78909  -0.78195
 Alpha  occ. eigenvalues --   -0.77115  -0.76369  -0.76047  -0.75650  -0.75455
 Alpha  occ. eigenvalues --   -0.74800  -0.74772  -0.74617  -0.73226  -0.71379
 Alpha  occ. eigenvalues --   -0.69438  -0.67726  -0.65944  -0.64804  -0.64257
 Alpha  occ. eigenvalues --   -0.63987  -0.63459  -0.61527  -0.61369  -0.59841
 Alpha  occ. eigenvalues --   -0.59441  -0.58926  -0.57694  -0.57388  -0.56271
 Alpha  occ. eigenvalues --   -0.55554  -0.54886  -0.54642  -0.53959  -0.53195
 Alpha  occ. eigenvalues --   -0.52824  -0.52402  -0.51929  -0.51429  -0.51222
 Alpha  occ. eigenvalues --   -0.50644  -0.50314  -0.50210  -0.49398  -0.49078
 Alpha  occ. eigenvalues --   -0.48396  -0.48241  -0.48054  -0.47716  -0.47711
 Alpha  occ. eigenvalues --   -0.47509  -0.47298  -0.47122  -0.46827  -0.46323
 Alpha  occ. eigenvalues --   -0.46191  -0.45449  -0.45106  -0.44671  -0.44298
 Alpha  occ. eigenvalues --   -0.44260  -0.43967  -0.43797  -0.43720  -0.42969
 Alpha  occ. eigenvalues --   -0.42674  -0.42404  -0.42167  -0.42055  -0.41502
 Alpha  occ. eigenvalues --   -0.41380  -0.41130  -0.40823  -0.40690  -0.40368
 Alpha  occ. eigenvalues --   -0.40290  -0.40041  -0.39897  -0.39810  -0.39742
 Alpha  occ. eigenvalues --   -0.38944  -0.38791  -0.38686  -0.38563  -0.38410
 Alpha  occ. eigenvalues --   -0.37801  -0.37263  -0.36644  -0.36339  -0.36317
 Alpha  occ. eigenvalues --   -0.35160  -0.34440  -0.33882  -0.32432  -0.31647
 Alpha  occ. eigenvalues --   -0.30859  -0.30437  -0.28082  -0.25870  -0.22826
 Alpha  occ. eigenvalues --   -0.18999
 Alpha virt. eigenvalues --   -0.06517  -0.01852   0.01773   0.04637   0.07760
 Alpha virt. eigenvalues --    0.08989   0.10841   0.11053   0.11461   0.11565
 Alpha virt. eigenvalues --    0.11900   0.12399   0.12655   0.13069   0.13248

 Mulliken charges:
               1
     1  O   -0.575266
     2  O   -0.559863
     3  C   -0.017829
     4  C   -0.056163
     5  C   -0.184856
     6  C   -0.196877
     7  C    0.193705
     8  C    0.199243
     9  C    0.049702
    10  C    0.079935
    11  C   -0.209414
    12  C   -0.242551
    13  C    0.056742
    14  C    0.068394
    15  C   -0.301996
    16  C   -0.293963
    17  C   -0.275142
    18  C   -0.294052
    19  C   -0.077496
    20  C   -0.112617
    21  C   -0.356859
    22  C   -0.358548
    23  C   -0.141751
    24  C   -0.122452
    25  C    0.062235
    26  C    0.100724
    27  C   -0.341852
    28  C   -0.338750
    29  C   -0.072794
    30  C   -0.120159
    31  C   -0.076880
    32  C   -0.109587
    33  C   -0.106421
    34  C   -0.100531
    35  C    0.123738
    36  C    0.156911
    37  C   -0.396928
    38  C   -0.376876
    39  C   -0.163665
    40  C   -0.133317
    41  C   -0.071627
    42  C   -0.077924
    43  H    0.109114
    44  H    0.053488
    45  H    0.063297
    46  H    0.112429
    47  H    0.070893
    48  H    0.095360
    49  H    0.060792
    50  H    0.105363
    51  H    0.106737
    52  H    0.086946
    53  H    0.098034
    54  H    0.102122
    55  H    0.114560
    56  H    0.107749
    57  H    0.095029
    58  H    0.097488
    59  H    0.087572
    60  H    0.080159
    61  H    0.105459
    62  H    0.117075
    63  H    0.089052
    64  H    0.099197
    65  H    0.068238
    66  H    0.060477
    67  H    0.134274
    68  H    0.123693
    69  H    0.081357
    70  H    0.105013
    71  H    0.101086
    72  H    0.118330
    73  H    0.307503
    74  H    0.305414
    75  H    0.095770
    76  H    0.076331
    77  H    0.090047
    78  H    0.121054
    79  H    0.123363
    80  H    0.138189
    81  H    0.127254
    82  H    0.067262
    83  H    0.075923
    84  H    0.085969
    85  H    0.054646
    86  H    0.094907
    87  H    0.083700
    88  H    0.077600
    89  H    0.116987
    90  H    0.128485
    91  H    0.126312
    92  H    0.121223
    93  H    0.100217
    94  H    0.094869
    95  H    0.087243
    96  H    0.056940
    97  H    0.081640
    98  H    0.084448
 Sum of Mulliken charges =  -0.00000

 Dipole moment (field-independent basis, Debye):
    X=             -0.4700    Y=             -1.3624    Z=              1.8998  Tot=              2.3846
 Quadrupole moment (field-independent basis, Debye-Ang):
   XX=           -278.0657   YY=           -244.7288   ZZ=           -262.4898
   XY=             10.7436   XZ=             -3.7645   YZ=              0.3347

 Normal termination of Gaussian 16 at Tue Jul 16 02:00:55 2019.
