 Gaussian 16, Revision A.03,
 Gaussian 16:  ES64L-G16RevA.03 25-Dec-2016

 -------------------------------------
 # td=(NStates=1) CAM-B3LYP/6-31G(d,p)
 -------------------------------------

 --
 TD
 --
 Symbolic Z-matrix:
 Charge =  0 Multiplicity = 1

                         Standard orientation:
 ---------------------------------------------------------------------
 Center     Atomic      Atomic             Coordinates (Angstroms)
 Number     Number       Type             X           Y           Z
 ---------------------------------------------------------------------
      1          8           0       14.625094   -2.207984   -0.374302
      2          8           0      -14.698356    1.903504    1.207763
      3          6           0       11.147306   -1.508445    1.137933
      4          6           0      -12.378924   -0.982024    0.659100
      5          6           0       12.664461   -1.811984    1.128405
      6          6           0      -13.668172   -0.228105    0.769182
      7          6           0       13.310089   -1.888726   -0.318178
      8          6           0      -13.455311    1.195160    0.990926
      9          6           0       11.009353   -0.220713    0.187328
     10          6           0      -11.240044   -0.221290   -0.079815
     11          6           0       13.259119   -0.556820   -0.842872
     12          6           0      -12.659290    1.876818   -0.091008
     13          6           0       11.938912    0.199474   -0.778422
     14          6           0      -11.419880    1.159066   -0.510358
     15          6           0       10.719121   -1.188886    2.496370
     16          6           0       10.360675   -2.646193    0.541459
     17          6           0      -11.766210   -1.305368    2.088987
     18          6           0      -12.714943   -2.280908   -0.103941
     19          6           0        9.701371    0.417505    0.257808
     20          6           0      -10.075063   -0.930438   -0.294441
     21          6           0       11.781612    1.273144   -1.718479
     22          6           0      -10.446626    1.902516   -1.423485
     23          6           0        9.365099    1.796802    0.224420
     24          6           0       -8.838865   -0.507112   -0.424269
     25          6           0        8.106537    2.360266    0.164921
     26          6           0       -7.626874   -1.183270   -0.715055
     27          6           0        7.875655    3.794151    0.557613
     28          6           0       -7.765396   -2.627651   -1.209905
     29          6           0        6.916167    1.564593   -0.044052
     30          6           0       -6.380875   -0.694361   -0.532070
     31          6           0        5.689626    2.040438    0.062172
     32          6           0       -5.073059   -1.252352   -0.589902
     33          6           0        4.483116    1.309690   -0.212096
     34          6           0       -3.917033   -0.457273   -0.455904
     35          6           0        3.121755    1.631692   -0.063952
     36          6           0       -2.632704   -0.862220   -0.559491
     37          6           0        2.673079    3.092655    0.232061
     38          6           0       -2.344429   -2.208495   -1.025160
     39          6           0        2.157256    0.625384   -0.232202
     40          6           0       -1.598219    0.110301   -0.342088
     41          6           0        0.736139    0.864931   -0.130127
     42          6           0       -0.188983   -0.090454   -0.400078
     43          1           0       13.299980   -0.963188    1.535391
     44          1           0       12.684009   -2.707845    1.623547
     45          1           0      -14.408676   -0.597185    1.660102
     46          1           0      -14.184563   -0.298719   -0.216709
     47          1           0       12.615496   -2.480137   -0.927079
     48          1           0      -12.716710    1.469528    1.751484
     49          1           0       13.963851    0.068239   -0.250881
     50          1           0       13.533589   -0.616922   -1.889975
     51          1           0      -13.291398    1.846940   -0.954000
     52          1           0      -12.258675    2.863752    0.140162
     53          1           0       11.019815   -2.109696    3.182420
     54          1           0        9.638458   -1.175508    2.572850
     55          1           0       10.931750   -0.165294    3.090086
     56          1           0       10.743464   -3.055936   -0.292675
     57          1           0       10.587872   -3.475237    1.081699
     58          1           0        9.277765   -2.766029    0.195817
     59          1           0      -11.750275   -0.546170    2.759274
     60          1           0      -10.706076   -1.594980    1.893696
     61          1           0      -12.409122   -2.038935    2.827126
     62          1           0      -13.361656   -2.848245    0.361018
     63          1           0      -11.852876   -2.795657    0.016769
     64          1           0      -13.207070   -2.237217   -1.063598
     65          1           0        8.860637   -0.218283    0.394960
     66          1           0       -9.956387   -2.118560   -0.584666
     67          1           0       10.587306    1.384631   -2.090180
     68          1           0       12.240189    2.138343   -1.477710
     69          1           0       12.035290    1.122597   -2.778019
     70          1           0      -11.018683    2.598960   -2.154587
     71          1           0       -9.685125    1.235065   -2.129677
     72          1           0       -9.891786    2.517901   -0.747169
     73          1           0       14.881560   -2.998745    0.221811
     74          1           0      -15.155611    1.283775    1.906332
     75          1           0       10.278813    2.281123    0.190905
     76          1           0       -8.711422    0.473712   -0.202707
     77          1           0        8.897605    4.183532    0.717172
     78          1           0        7.275324    4.387994   -0.211873
     79          1           0        7.402297    3.898208    1.603384
     80          1           0       -8.368688   -3.179553   -0.438441
     81          1           0       -8.562701   -2.682721   -2.001039
     82          1           0       -6.822739   -3.393197   -1.484198
     83          1           0        6.710799    0.574237   -0.378616
     84          1           0       -6.409475    0.324398   -0.237123
     85          1           0        5.525707    3.070143    0.237611
     86          1           0       -4.942537   -2.311832   -0.933792
     87          1           0        4.952167    0.109721   -0.135656
     88          1           0       -4.105595    0.563986   -0.176220
     89          1           0        2.572045    3.568970    1.351692
     90          1           0        1.610192    3.380201   -0.220780
     91          1           0        3.458400    3.635531   -0.223053
     92          1           0       -2.789062   -3.037249   -0.336047
     93          1           0       -2.944877   -2.466530   -1.957408
     94          1           0       -1.291796   -2.420052   -1.223767
     95          1           0        2.558942   -0.455371   -0.272341
     96          1           0       -2.065328    1.066768   -0.015757
     97          1           0        0.260235    1.932016    0.173981
     98          1           0        0.098144   -1.158419   -0.559242
 ---------------------------------------------------------------------

 SCF Done:  E(RCAM-B3LYP) =  -1706.91493370     A.U. after   16 cycles

 Excitation energies and oscillator strengths:

 Excited State   1:      Singlet-A      1.8232 eV  680.02 nm  f=3.6912  <S**2>=0.000
     155 ->158         0.15114
     156 ->157         0.69442
     156 <-157        -0.10675
 This state for optimization and/or second-order correction.
 Total Energy, E(TD-HF/TD-DFT) =  -1706.84793058
 Copying the excited state density for this state as the 1-particle RhoCI density.

 The electronic state is 1-A.
 Alpha  occ. eigenvalues --  -19.22595 -19.21488 -10.29736 -10.29385 -10.28556
 Alpha  occ. eigenvalues --  -10.28317 -10.28282 -10.27981 -10.27814 -10.27747
 Alpha  occ. eigenvalues --  -10.27658 -10.27438 -10.27338 -10.27330 -10.27149
 Alpha  occ. eigenvalues --  -10.26941 -10.26761 -10.26678 -10.26644 -10.26643
 Alpha  occ. eigenvalues --  -10.26590 -10.26586 -10.26575 -10.26526 -10.26211
 Alpha  occ. eigenvalues --  -10.26081 -10.25953 -10.25953 -10.25659 -10.25521
 Alpha  occ. eigenvalues --  -10.25357 -10.25223 -10.25181 -10.25176 -10.25172
 Alpha  occ. eigenvalues --  -10.25046 -10.25001 -10.24852 -10.24172 -10.24056
 Alpha  occ. eigenvalues --  -10.23959 -10.21957  -1.11495  -1.07689  -0.93949
 Alpha  occ. eigenvalues --   -0.93918  -0.92219  -0.91800  -0.90816  -0.89784
 Alpha  occ. eigenvalues --   -0.88607  -0.87356  -0.87227  -0.86180  -0.85142
 Alpha  occ. eigenvalues --   -0.83502  -0.82263  -0.80684  -0.79944  -0.78459
 Alpha  occ. eigenvalues --   -0.77614  -0.77215  -0.76446  -0.76320  -0.76027
 Alpha  occ. eigenvalues --   -0.75826  -0.75211  -0.74921  -0.73023  -0.70446
 Alpha  occ. eigenvalues --   -0.69322  -0.67461  -0.66007  -0.64778  -0.64377
 Alpha  occ. eigenvalues --   -0.64071  -0.62907  -0.61300  -0.60814  -0.60022
 Alpha  occ. eigenvalues --   -0.59723  -0.59463  -0.58425  -0.58214  -0.57840
 Alpha  occ. eigenvalues --   -0.56082  -0.55414  -0.54800  -0.54485  -0.53714
 Alpha  occ. eigenvalues --   -0.53554  -0.53090  -0.52766  -0.51959  -0.51555
 Alpha  occ. eigenvalues --   -0.50767  -0.50460  -0.49974  -0.49352  -0.49215
 Alpha  occ. eigenvalues --   -0.48771  -0.48389  -0.48161  -0.48032  -0.47471
 Alpha  occ. eigenvalues --   -0.47382  -0.47021  -0.46882  -0.46774  -0.46103
 Alpha  occ. eigenvalues --   -0.45764  -0.45423  -0.45310  -0.45042  -0.44979
 Alpha  occ. eigenvalues --   -0.44598  -0.44222  -0.43881  -0.43631  -0.43479
 Alpha  occ. eigenvalues --   -0.43095  -0.43042  -0.42612  -0.42461  -0.42225
 Alpha  occ. eigenvalues --   -0.41992  -0.41938  -0.41630  -0.40927  -0.40748
 Alpha  occ. eigenvalues --   -0.40637  -0.40356  -0.40256  -0.39587  -0.39370
 Alpha  occ. eigenvalues --   -0.38909  -0.38574  -0.38464  -0.37809  -0.37664
 Alpha  occ. eigenvalues --   -0.37316  -0.36967  -0.36785  -0.36402  -0.36244
 Alpha  occ. eigenvalues --   -0.35983  -0.34251  -0.33875  -0.32330  -0.32254
 Alpha  occ. eigenvalues --   -0.31863  -0.30092  -0.28099  -0.25728  -0.22113
 Alpha  occ. eigenvalues --   -0.18188
 Alpha virt. eigenvalues --   -0.06832  -0.02231   0.02162   0.05039   0.07616
 Alpha virt. eigenvalues --    0.09535   0.10535   0.11087   0.11382   0.12106
 Alpha virt. eigenvalues --    0.12246   0.12699   0.13271   0.13524   0.14112

 Mulliken charges:
               1
     1  O   -0.552004
     2  O   -0.569315
     3  C    0.008534
     4  C   -0.016286
     5  C   -0.202205
     6  C   -0.184723
     7  C    0.188223
     8  C    0.176826
     9  C    0.032616
    10  C    0.057082
    11  C   -0.208809
    12  C   -0.226022
    13  C    0.069147
    14  C    0.032692
    15  C   -0.294178
    16  C   -0.317481
    17  C   -0.310573
    18  C   -0.292183
    19  C   -0.120063
    20  C   -0.109078
    21  C   -0.388156
    22  C   -0.362002
    23  C   -0.100257
    24  C   -0.103699
    25  C    0.071814
    26  C    0.140362
    27  C   -0.369865
    28  C   -0.403087
    29  C   -0.081402
    30  C   -0.137688
    31  C   -0.064357
    32  C   -0.085503
    33  C   -0.147449
    34  C   -0.122063
    35  C    0.105872
    36  C    0.163184
    37  C   -0.354386
    38  C   -0.393889
    39  C   -0.126121
    40  C   -0.135189
    41  C   -0.083990
    42  C   -0.078040
    43  H    0.101089
    44  H    0.073711
    45  H    0.061782
    46  H    0.102600
    47  H    0.070007
    48  H    0.080393
    49  H    0.112837
    50  H    0.107041
    51  H    0.120694
    52  H    0.114758
    53  H    0.077293
    54  H    0.113874
    55  H    0.101715
    56  H    0.115425
    57  H    0.102358
    58  H    0.111855
    59  H    0.119597
    60  H    0.114652
    61  H    0.065504
    62  H    0.107302
    63  H    0.105032
    64  H    0.103734
    65  H    0.083893
    66  H    0.059283
    67  H    0.101562
    68  H    0.135975
    69  H    0.113517
    70  H    0.103998
    71  H    0.118686
    72  H    0.132583
    73  H    0.311853
    74  H    0.303685
    75  H    0.076559
    76  H    0.065026
    77  H    0.108237
    78  H    0.121829
    79  H    0.123555
    80  H    0.117514
    81  H    0.119735
    82  H    0.096611
    83  H    0.071199
    84  H    0.064838
    85  H    0.069434
    86  H    0.075041
    87  H    0.044557
    88  H    0.079335
    89  H    0.104151
    90  H    0.104765
    91  H    0.121324
    92  H    0.110234
    93  H    0.119271
    94  H    0.110025
    95  H    0.092514
    96  H    0.076747
    97  H    0.087488
    98  H    0.085436
 Sum of Mulliken charges =  -0.00000

 Dipole moment (field-independent basis, Debye):
    X=              2.9006    Y=             -1.8242    Z=              1.2129  Tot=              3.6349
 Quadrupole moment (field-independent basis, Debye-Ang):
   XX=           -250.5170   YY=           -243.1141   ZZ=           -262.5853
   XY=              3.2019   XZ=              3.5388   YZ=             -0.0209

 Normal termination of Gaussian 16 at Mon Jul 15 23:45:16 2019.
