 Gaussian 16, Revision A.03,
 Gaussian 16:  ES64L-G16RevA.03 25-Dec-2016

 -------------------------------------
 # td=(NStates=1) CAM-B3LYP/6-31G(d,p)
 -------------------------------------

 --
 TD
 --
 Symbolic Z-matrix:
 Charge =  0 Multiplicity = 1

                         Standard orientation:
 ---------------------------------------------------------------------
 Center     Atomic      Atomic             Coordinates (Angstroms)
 Number     Number       Type             X           Y           Z
 ---------------------------------------------------------------------
      1          8           0       14.784881   -2.117848   -0.338153
      2          8           0      -14.745566    1.835720    0.714236
      3          6           0       11.213420   -1.409888    0.963109
      4          6           0      -12.429946   -0.968505    0.482276
      5          6           0       12.689266   -1.859926    1.065253
      6          6           0      -13.736241   -0.255342    0.570770
      7          6           0       13.410321   -1.788406   -0.346762
      8          6           0      -13.588498    1.153344    0.823700
      9          6           0       10.977612   -0.261122    0.041027
     10          6           0      -11.189568   -0.163212   -0.138116
     11          6           0       13.295631   -0.369386   -0.917354
     12          6           0      -12.699963    1.771028   -0.022803
     13          6           0       11.950105    0.218004   -0.809157
     14          6           0      -11.432655    1.189680   -0.383432
     15          6           0       10.792748   -1.101554    2.388467
     16          6           0       10.482708   -2.667575    0.506599
     17          6           0      -11.960559   -1.208788    2.033595
     18          6           0      -12.631495   -2.371527   -0.198026
     19          6           0        9.660097    0.270505    0.193650
     20          6           0      -10.008999   -0.945866   -0.351116
     21          6           0       11.541571    1.318778   -1.872233
     22          6           0      -10.432250    1.947767   -1.243248
     23          6           0        9.312269    1.630017    0.046953
     24          6           0       -8.769664   -0.458392   -0.366935
     25          6           0        8.018794    2.276976    0.120859
     26          6           0       -7.502434   -1.193744   -0.704573
     27          6           0        8.002265    3.708258    0.401162
     28          6           0       -7.719222   -2.691212   -1.042005
     29          6           0        6.882501    1.524555    0.048230
     30          6           0       -6.355684   -0.492085   -0.535521
     31          6           0        5.590280    1.970826    0.208604
     32          6           0       -5.023628   -1.144544   -0.525251
     33          6           0        4.389180    1.204452    0.058793
     34          6           0       -3.884888   -0.416102   -0.269439
     35          6           0        3.058866    1.628860    0.081558
     36          6           0       -2.593973   -0.835312   -0.439104
     37          6           0        2.786218    3.054266    0.457594
     38          6           0       -2.303979   -2.332596   -0.855997
     39          6           0        2.021794    0.743279   -0.171632
     40          6           0       -1.685013    0.025801   -0.123351
     41          6           0        0.691950    0.879895    0.067303
     42          6           0       -0.254411   -0.138229   -0.304073
     43          1           0       13.219592   -1.270234    1.892470
     44          1           0       12.705813   -3.085394    1.345457
     45          1           0      -14.347503   -0.669840    1.248438
     46          1           0      -14.210971   -0.485952   -0.382064
     47          1           0       12.840791   -2.510938   -0.995616
     48          1           0      -13.203178    1.160449    1.982553
     49          1           0       14.198346    0.318163   -0.352119
     50          1           0       13.741037   -0.240213   -1.927520
     51          1           0      -13.137058    1.919498   -1.086820
     52          1           0      -12.415527    2.837601    0.284219
     53          1           0       10.952015   -1.711631    3.293323
     54          1           0        9.782060   -0.782963    2.464133
     55          1           0       11.213355   -0.203149    2.775257
     56          1           0       10.728807   -2.952701   -0.456176
     57          1           0       10.527621   -3.499719    1.196995
     58          1           0        9.389087   -2.546168    0.400204
     59          1           0      -12.093900   -0.340789    2.753158
     60          1           0      -10.825168   -1.503803    2.236242
     61          1           0      -12.748924   -2.033268    2.397562
     62          1           0      -13.631641   -2.683822    0.137152
     63          1           0      -11.964510   -3.291502    0.098868
     64          1           0      -12.648558   -2.479218   -1.271424
     65          1           0        8.872333   -0.514700    0.462553
     66          1           0      -10.289820   -1.909143   -0.678184
     67          1           0       10.436526    1.218445   -2.183621
     68          1           0       11.684605    2.499442   -1.779465
     69          1           0       12.189580    1.094092   -2.815129
     70          1           0      -10.915154    2.708505   -1.831141
     71          1           0       -9.879595    1.235292   -1.953947
     72          1           0       -9.574239    2.589161   -0.492238
     73          1           0       14.954523   -3.014559   -0.237049
     74          1           0      -15.400285    1.720915    1.587844
     75          1           0       10.123633    2.382480   -0.086912
     76          1           0       -8.533465    0.693014    0.019514
     77          1           0        8.953688    4.209037    0.310047
     78          1           0        7.253766    4.237343   -0.316478
     79          1           0        7.604227    3.829008    1.366903
     80          1           0       -8.176531   -3.271741   -0.436191
     81          1           0       -8.254348   -2.651696   -2.071746
     82          1           0       -6.782770   -3.300559   -1.136464
     83          1           0        7.161881    0.388519    0.021165
     84          1           0       -6.424033    0.771251   -0.613770
     85          1           0        5.485780    3.054444    0.371752
     86          1           0       -4.996301   -2.243214   -0.926317
     87          1           0        4.479820    0.109465   -0.183146
     88          1           0       -3.844548    0.632160    0.088562
     89          1           0        2.527027    2.838284    1.781498
     90          1           0        1.721918    3.351288   -0.146085
     91          1           0        3.739631    3.689567    0.237875
     92          1           0       -3.015943   -2.964824   -0.180253
     93          1           0       -2.475774   -2.705923   -1.898305
     94          1           0       -1.167161   -2.344887   -0.449613
     95          1           0        2.370239   -0.263100   -0.553025
     96          1           0       -1.995440    0.963856    0.241295
     97          1           0        0.209321    1.656637    0.643997
     98          1           0        0.183635   -1.033098   -0.843115
 ---------------------------------------------------------------------

 SCF Done:  E(RCAM-B3LYP) =  -1706.93281116     A.U. after   15 cycles

 Excitation energies and oscillator strengths:

 Excited State   1:      Singlet-A      2.0460 eV  605.98 nm  f=3.5114  <S**2>=0.000
     155 ->158        -0.13575
     156 ->157         0.69257
 This state for optimization and/or second-order correction.
 Total Energy, E(TD-HF/TD-DFT) =  -1706.85762163
 Copying the excited state density for this state as the 1-particle RhoCI density.

 The electronic state is 1-A.
 Alpha  occ. eigenvalues --  -19.22157 -19.20774 -10.31396 -10.29785 -10.29723
 Alpha  occ. eigenvalues --  -10.27969 -10.27719 -10.27696 -10.27672 -10.27579
 Alpha  occ. eigenvalues --  -10.27495 -10.27273 -10.27168 -10.27094 -10.26920
 Alpha  occ. eigenvalues --  -10.26847 -10.26847 -10.26845 -10.26800 -10.26786
 Alpha  occ. eigenvalues --  -10.26739 -10.26687 -10.26648 -10.26589 -10.26557
 Alpha  occ. eigenvalues --  -10.26331 -10.26099 -10.26044 -10.25941 -10.25921
 Alpha  occ. eigenvalues --  -10.25671 -10.25657 -10.25555 -10.25509 -10.25380
 Alpha  occ. eigenvalues --  -10.25237 -10.25148 -10.24819 -10.24588 -10.23733
 Alpha  occ. eigenvalues --  -10.23247 -10.22865  -1.10873  -1.10154  -0.94017
 Alpha  occ. eigenvalues --   -0.93549  -0.92999  -0.91966  -0.90775  -0.89677
 Alpha  occ. eigenvalues --   -0.86880  -0.86741  -0.86535  -0.85615  -0.84700
 Alpha  occ. eigenvalues --   -0.82921  -0.81420  -0.79644  -0.79019  -0.77729
 Alpha  occ. eigenvalues --   -0.77301  -0.76536  -0.76378  -0.75932  -0.75105
 Alpha  occ. eigenvalues --   -0.74672  -0.74178  -0.74125  -0.72807  -0.70892
 Alpha  occ. eigenvalues --   -0.69176  -0.67730  -0.65872  -0.65113  -0.64258
 Alpha  occ. eigenvalues --   -0.63571  -0.62656  -0.61567  -0.59752  -0.59520
 Alpha  occ. eigenvalues --   -0.58914  -0.58623  -0.58465  -0.57232  -0.56054
 Alpha  occ. eigenvalues --   -0.55902  -0.55204  -0.54459  -0.54265  -0.53841
 Alpha  occ. eigenvalues --   -0.52979  -0.52390  -0.51666  -0.51336  -0.50530
 Alpha  occ. eigenvalues --   -0.50236  -0.49806  -0.49448  -0.49252  -0.48989
 Alpha  occ. eigenvalues --   -0.48812  -0.48122  -0.47876  -0.47494  -0.47455
 Alpha  occ. eigenvalues --   -0.47014  -0.46746  -0.46222  -0.46105  -0.45617
 Alpha  occ. eigenvalues --   -0.45216  -0.45067  -0.44905  -0.44862  -0.44316
 Alpha  occ. eigenvalues --   -0.44078  -0.43790  -0.43406  -0.43326  -0.43282
 Alpha  occ. eigenvalues --   -0.42717  -0.42677  -0.42431  -0.41965  -0.41897
 Alpha  occ. eigenvalues --   -0.41622  -0.41300  -0.41120  -0.40534  -0.40169
 Alpha  occ. eigenvalues --   -0.40094  -0.40019  -0.39746  -0.39391  -0.39197
 Alpha  occ. eigenvalues --   -0.38966  -0.38828  -0.38429  -0.38024  -0.37848
 Alpha  occ. eigenvalues --   -0.37437  -0.37179  -0.37004  -0.36561  -0.36095
 Alpha  occ. eigenvalues --   -0.35542  -0.34597  -0.34086  -0.32463  -0.31658
 Alpha  occ. eigenvalues --   -0.31598  -0.29917  -0.27600  -0.25247  -0.22743
 Alpha  occ. eigenvalues --   -0.18938
 Alpha virt. eigenvalues --   -0.06244  -0.00944   0.02048   0.05436   0.07614
 Alpha virt. eigenvalues --    0.08339   0.09819   0.10490   0.11041   0.12051
 Alpha virt. eigenvalues --    0.12230   0.12525   0.12909   0.13137   0.13905

 Mulliken charges:
               1
     1  O   -0.552047
     2  O   -0.561466
     3  C   -0.017334
     4  C   -0.000692
     5  C   -0.180692
     6  C   -0.170721
     7  C    0.179517
     8  C    0.206667
     9  C    0.099835
    10  C    0.044008
    11  C   -0.225024
    12  C   -0.212953
    13  C    0.069163
    14  C    0.058866
    15  C   -0.327229
    16  C   -0.305571
    17  C   -0.300397
    18  C   -0.340130
    19  C   -0.132807
    20  C   -0.103726
    21  C   -0.367656
    22  C   -0.343295
    23  C   -0.126270
    24  C   -0.107304
    25  C    0.102994
    26  C    0.103673
    27  C   -0.384603
    28  C   -0.354033
    29  C   -0.086519
    30  C   -0.137785
    31  C   -0.120400
    32  C   -0.135552
    33  C   -0.110613
    34  C   -0.099047
    35  C    0.123283
    36  C    0.170971
    37  C   -0.324954
    38  C   -0.358610
    39  C   -0.128458
    40  C   -0.147439
    41  C   -0.084614
    42  C   -0.115100
    43  H    0.097203
    44  H    0.051891
    45  H    0.088051
    46  H    0.096917
    47  H    0.078147
    48  H    0.040834
    49  H    0.091168
    50  H    0.112906
    51  H    0.113343
    52  H    0.106082
    53  H    0.103337
    54  H    0.103176
    55  H    0.106988
    56  H    0.109794
    57  H    0.108512
    58  H    0.086745
    59  H    0.098636
    60  H    0.098997
    61  H    0.068773
    62  H    0.099982
    63  H    0.093869
    64  H    0.115689
    65  H    0.099124
    66  H    0.088380
    67  H    0.128643
    68  H    0.100220
    69  H    0.084739
    70  H    0.105608
    71  H    0.128258
    72  H    0.063143
    73  H    0.299902
    74  H    0.311728
    75  H    0.088687
    76  H    0.078605
    77  H    0.112949
    78  H    0.107645
    79  H    0.141898
    80  H    0.137906
    81  H    0.116557
    82  H    0.094160
    83  H    0.070404
    84  H    0.083694
    85  H    0.075975
    86  H    0.090776
    87  H    0.076306
    88  H    0.077008
    89  H    0.081572
    90  H    0.100655
    91  H    0.112296
    92  H    0.109997
    93  H    0.126109
    94  H    0.097799
    95  H    0.078610
    96  H    0.083169
    97  H    0.090133
    98  H    0.090373
 Sum of Mulliken charges =  -0.00000

 Dipole moment (field-independent basis, Debye):
    X=             -1.5614    Y=             -1.5709    Z=              0.7624  Tot=              2.3424
 Quadrupole moment (field-independent basis, Debye-Ang):
   XX=           -254.1315   YY=           -242.4433   ZZ=           -261.4722
   XY=              1.3852   XZ=            -10.6737   YZ=              5.9965

 Normal termination of Gaussian 16 at Fri Jul 12 03:53:59 2019.
