 Gaussian 16, Revision A.03,
 Gaussian 16:  ES64L-G16RevA.03 25-Dec-2016

 -------------------------------------
 # td=(NStates=1) CAM-B3LYP/6-31G(d,p)
 -------------------------------------

 --
 TD
 --
 Symbolic Z-matrix:
 Charge =  0 Multiplicity = 1

                         Standard orientation:
 ---------------------------------------------------------------------
 Center     Atomic      Atomic             Coordinates (Angstroms)
 Number     Number       Type             X           Y           Z
 ---------------------------------------------------------------------
      1          8           0       14.871955   -2.081897   -0.222297
      2          8           0      -14.769016    1.974493    0.922429
      3          6           0       11.253106   -1.468878    0.927601
      4          6           0      -12.296536   -0.934578    0.696654
      5          6           0       12.784109   -1.813489    0.990099
      6          6           0      -13.629479   -0.243202    0.764835
      7          6           0       13.462431   -1.844183   -0.341754
      8          6           0      -13.474376    1.263204    0.998036
      9          6           0       11.008222   -0.252718    0.098054
     10          6           0      -11.296104   -0.267401   -0.207194
     11          6           0       13.342868   -0.407364   -0.933352
     12          6           0      -12.675879    1.855960   -0.265913
     13          6           0       11.998459    0.270748   -0.775791
     14          6           0      -11.502117    1.006731   -0.612365
     15          6           0       10.870268   -1.216194    2.363330
     16          6           0       10.509490   -2.686856    0.365944
     17          6           0      -11.763211   -0.979315    2.147533
     18          6           0      -12.679446   -2.383636    0.239982
     19          6           0        9.745831    0.301201    0.227407
     20          6           0      -10.121082   -1.039977   -0.449694
     21          6           0       11.775229    1.436999   -1.735160
     22          6           0      -10.713960    1.745238   -1.628724
     23          6           0        9.270131    1.567677    0.196377
     24          6           0       -8.819584   -0.534819   -0.436278
     25          6           0        7.960607    2.217434    0.311189
     26          6           0       -7.658359   -1.425686   -0.632197
     27          6           0        7.820026    3.695728    0.528940
     28          6           0       -7.811896   -2.826935   -1.071828
     29          6           0        6.813436    1.482450    0.108027
     30          6           0       -6.461661   -0.738805   -0.397564
     31          6           0        5.507373    1.989923    0.184749
     32          6           0       -5.147846   -1.367859   -0.563901
     33          6           0        4.454331    1.338457   -0.098523
     34          6           0       -4.026554   -0.402592   -0.325824
     35          6           0        3.131621    1.696030    0.073496
     36          6           0       -2.639592   -0.717581   -0.535052
     37          6           0        2.843241    3.094113    0.512586
     38          6           0       -2.387328   -2.201981   -0.843451
     39          6           0        2.078699    0.827739   -0.301142
     40          6           0       -1.579526    0.183228   -0.354576
     41          6           0        0.694636    0.922348   -0.238064
     42          6           0       -0.311102   -0.029558   -0.533035
     43          1           0       13.286996   -1.233580    1.773141
     44          1           0       12.729597   -2.751393    1.619406
     45          1           0      -14.209878   -0.739922    1.504201
     46          1           0      -14.340717   -0.286728   -0.202335
     47          1           0       13.010617   -2.625786   -0.996095
     48          1           0      -12.905678    1.563235    1.704341
     49          1           0       14.350409    0.036597   -0.673365
     50          1           0       13.462712   -0.527581   -2.177850
     51          1           0      -13.379213    1.862169   -1.109899
     52          1           0      -12.470066    2.935303    0.055952
     53          1           0       10.901503   -2.010441    3.076479
     54          1           0        9.848374   -0.778324    2.387682
     55          1           0       11.077450   -0.207606    2.913384
     56          1           0       11.054824   -3.101047   -0.362374
     57          1           0       10.547558   -3.553290    1.145925
     58          1           0        9.341432   -2.495687    0.192851
     59          1           0      -11.700382   -0.072821    2.573594
     60          1           0      -10.679716   -1.302059    2.159531
     61          1           0      -12.371235   -1.629806    2.809630
     62          1           0      -13.492238   -2.863846    0.897990
     63          1           0      -11.621070   -2.872440    0.376581
     64          1           0      -12.850232   -2.273419   -0.773540
     65          1           0        8.955294   -0.411546    0.697697
     66          1           0      -10.219758   -2.090186   -0.625963
     67          1           0       10.661730    1.589845   -1.862811
     68          1           0       12.283084    2.371701   -1.483795
     69          1           0       12.283865    1.118032   -2.798891
     70          1           0      -11.423274    1.982944   -2.598815
     71          1           0       -9.715240    1.193879   -2.080331
     72          1           0      -10.273305    2.704896   -1.143470
     73          1           0       14.800799   -3.090158   -0.104943
     74          1           0      -15.124957    1.784202    1.774504
     75          1           0       10.173128    2.284874   -0.024759
     76          1           0       -8.551153    0.508184   -0.457919
     77          1           0        8.864544    4.165092    0.405099
     78          1           0        7.340171    4.204009   -0.295597
     79          1           0        7.088747    3.928463    1.396310
     80          1           0       -8.128422   -3.540861   -0.077071
     81          1           0       -8.457351   -3.016419   -2.029409
     82          1           0       -6.912259   -3.283413   -1.369933
     83          1           0        6.863416    0.366148   -0.130533
     84          1           0       -6.408932    0.464623   -0.176297
     85          1           0        5.465985    3.019889    0.751489
     86          1           0       -5.066205   -2.455145   -0.827597
     87          1           0        4.484836    0.147883   -0.367667
     88          1           0       -4.267352    0.606914   -0.165209
     89          1           0        3.204582    3.060647    1.639308
     90          1           0        1.697218    3.314778    0.436390
     91          1           0        3.576992    3.896092    0.043768
     92          1           0       -2.648597   -2.878420   -0.140830
     93          1           0       -2.890829   -2.424069   -1.629902
     94          1           0       -1.373782   -2.331862   -1.041668
     95          1           0        2.608245   -0.036720   -0.732139
     96          1           0       -1.822517    1.179626    0.027879
     97          1           0        0.423821    1.887292    0.414971
     98          1           0        0.122075   -1.103119   -0.638901
 ---------------------------------------------------------------------

 SCF Done:  E(RCAM-B3LYP) =  -1706.94538000     A.U. after   16 cycles

 Excitation energies and oscillator strengths:

 Excited State   1:      Singlet-A      1.9093 eV  649.38 nm  f=3.8484  <S**2>=0.000
     155 ->158        -0.13917
     156 ->157         0.69668
     156 <-157        -0.10793
 This state for optimization and/or second-order correction.
 Total Energy, E(TD-HF/TD-DFT) =  -1706.87521572
 Copying the excited state density for this state as the 1-particle RhoCI density.

 The electronic state is 1-A.
 Alpha  occ. eigenvalues --  -19.21928 -19.20717 -10.30872 -10.28871 -10.28833
 Alpha  occ. eigenvalues --  -10.28253 -10.28206 -10.28038 -10.27946 -10.27870
 Alpha  occ. eigenvalues --  -10.27836 -10.27716 -10.27594 -10.27452 -10.27447
 Alpha  occ. eigenvalues --  -10.27394 -10.27246 -10.27052 -10.26990 -10.26909
 Alpha  occ. eigenvalues --  -10.26740 -10.26623 -10.26451 -10.26432 -10.26368
 Alpha  occ. eigenvalues --  -10.26319 -10.26289 -10.26096 -10.26031 -10.26007
 Alpha  occ. eigenvalues --  -10.25882 -10.25806 -10.25713 -10.25582 -10.25580
 Alpha  occ. eigenvalues --  -10.25321 -10.25281 -10.24968 -10.24743 -10.24434
 Alpha  occ. eigenvalues --  -10.23838 -10.22638  -1.09132  -1.08172  -0.94094
 Alpha  occ. eigenvalues --   -0.94075  -0.93082  -0.91935  -0.90570  -0.90001
 Alpha  occ. eigenvalues --   -0.87466  -0.87067  -0.86548  -0.85620  -0.84877
 Alpha  occ. eigenvalues --   -0.83661  -0.81708  -0.80040  -0.79377  -0.79298
 Alpha  occ. eigenvalues --   -0.76868  -0.76748  -0.76616  -0.76222  -0.75804
 Alpha  occ. eigenvalues --   -0.75413  -0.74582  -0.74111  -0.73250  -0.71192
 Alpha  occ. eigenvalues --   -0.69006  -0.67506  -0.66136  -0.64671  -0.64437
 Alpha  occ. eigenvalues --   -0.63667  -0.62444  -0.61126  -0.60737  -0.59827
 Alpha  occ. eigenvalues --   -0.59216  -0.58864  -0.58822  -0.57667  -0.56185
 Alpha  occ. eigenvalues --   -0.55660  -0.55101  -0.54942  -0.54093  -0.53494
 Alpha  occ. eigenvalues --   -0.52799  -0.52428  -0.51886  -0.51499  -0.50538
 Alpha  occ. eigenvalues --   -0.50147  -0.49934  -0.49805  -0.49681  -0.49201
 Alpha  occ. eigenvalues --   -0.48946  -0.48726  -0.48241  -0.48118  -0.48023
 Alpha  occ. eigenvalues --   -0.47691  -0.47582  -0.47068  -0.46917  -0.46537
 Alpha  occ. eigenvalues --   -0.46223  -0.45924  -0.45673  -0.44920  -0.44834
 Alpha  occ. eigenvalues --   -0.44674  -0.44356  -0.44047  -0.43693  -0.43650
 Alpha  occ. eigenvalues --   -0.43402  -0.42923  -0.42901  -0.42375  -0.42108
 Alpha  occ. eigenvalues --   -0.41619  -0.41518  -0.41262  -0.40883  -0.40694
 Alpha  occ. eigenvalues --   -0.40257  -0.39989  -0.39796  -0.39399  -0.39187
 Alpha  occ. eigenvalues --   -0.39051  -0.38576  -0.38156  -0.37998  -0.37760
 Alpha  occ. eigenvalues --   -0.37622  -0.37385  -0.36986  -0.36531  -0.35395
 Alpha  occ. eigenvalues --   -0.35245  -0.34845  -0.34091  -0.33027  -0.31915
 Alpha  occ. eigenvalues --   -0.31840  -0.30196  -0.28502  -0.25516  -0.23294
 Alpha  occ. eigenvalues --   -0.18793
 Alpha virt. eigenvalues --   -0.07168  -0.01502   0.01515   0.04789   0.07156
 Alpha virt. eigenvalues --    0.09620   0.10349   0.10927   0.11219   0.11476
 Alpha virt. eigenvalues --    0.12349   0.12683   0.12809   0.13151   0.13399

 Mulliken charges:
               1
     1  O   -0.552350
     2  O   -0.558258
     3  C   -0.027185
     4  C   -0.048920
     5  C   -0.186267
     6  C   -0.164697
     7  C    0.143703
     8  C    0.131923
     9  C    0.116879
    10  C    0.105301
    11  C   -0.226760
    12  C   -0.229150
    13  C    0.060705
    14  C    0.047601
    15  C   -0.322033
    16  C   -0.283483
    17  C   -0.299977
    18  C   -0.291748
    19  C   -0.129760
    20  C   -0.160424
    21  C   -0.363633
    22  C   -0.343017
    23  C   -0.130888
    24  C   -0.084144
    25  C    0.089575
    26  C    0.110410
    27  C   -0.386705
    28  C   -0.366884
    29  C   -0.107841
    30  C   -0.126151
    31  C   -0.077895
    32  C   -0.101331
    33  C   -0.097303
    34  C   -0.124817
    35  C    0.127481
    36  C    0.063077
    37  C   -0.368663
    38  C   -0.358681
    39  C   -0.115071
    40  C   -0.090255
    41  C   -0.115670
    42  C   -0.076305
    43  H    0.115003
    44  H    0.069249
    45  H    0.079913
    46  H    0.084362
    47  H    0.084897
    48  H    0.096429
    49  H    0.137380
    50  H    0.069396
    51  H    0.126349
    52  H    0.101990
    53  H    0.109099
    54  H    0.096304
    55  H    0.096488
    56  H    0.112022
    57  H    0.082341
    58  H    0.099339
    59  H    0.109210
    60  H    0.100300
    61  H    0.093193
    62  H    0.099662
    63  H    0.083148
    64  H    0.118279
    65  H    0.077228
    66  H    0.096829
    67  H    0.123749
    68  H    0.126221
    69  H    0.081915
    70  H    0.096211
    71  H    0.088687
    72  H    0.103086
    73  H    0.307375
    74  H    0.299219
    75  H    0.070545
    76  H    0.090264
    77  H    0.107767
    78  H    0.134494
    79  H    0.122189
    80  H    0.098964
    81  H    0.123325
    82  H    0.116882
    83  H    0.080302
    84  H    0.087471
    85  H    0.072890
    86  H    0.104670
    87  H    0.066132
    88  H    0.083714
    89  H    0.106654
    90  H    0.103150
    91  H    0.114953
    92  H    0.129405
    93  H    0.128089
    94  H    0.099936
    95  H    0.065335
    96  H    0.082775
    97  H    0.070330
    98  H    0.094505
 Sum of Mulliken charges =  -0.00000

 Dipole moment (field-independent basis, Debye):
    X=             -0.8977    Y=             -2.1401    Z=              1.4588  Tot=              2.7412
 Quadrupole moment (field-independent basis, Debye-Ang):
   XX=           -305.3476   YY=           -241.8664   ZZ=           -261.2791
   XY=              5.1825   XZ=            -14.6631   YZ=              5.2508

 Normal termination of Gaussian 16 at Sat Jul 20 03:30:50 2019.
