 Gaussian 16, Revision A.03,
 Gaussian 16:  ES64L-G16RevA.03 25-Dec-2016

 -------------------------------------
 # td=(NStates=1) CAM-B3LYP/6-31G(d,p)
 -------------------------------------

 --
 TD
 --
 Symbolic Z-matrix:
 Charge =  0 Multiplicity = 1

                         Standard orientation:
 ---------------------------------------------------------------------
 Center     Atomic      Atomic             Coordinates (Angstroms)
 Number     Number       Type             X           Y           Z
 ---------------------------------------------------------------------
      1          8           0       14.789339   -1.952409   -0.315776
      2          8           0      -14.756188    1.766535    1.025532
      3          6           0       11.250408   -1.478718    0.985208
      4          6           0      -12.392986   -1.058651    0.712856
      5          6           0       12.776955   -1.750470    1.021031
      6          6           0      -13.783950   -0.337787    0.732816
      7          6           0       13.380240   -1.728406   -0.341433
      8          6           0      -13.527778    1.160600    0.912671
      9          6           0       11.024900   -0.277163   -0.000574
     10          6           0      -11.315098   -0.248058   -0.123260
     11          6           0       13.289600   -0.419736   -0.900708
     12          6           0      -12.823190    1.770155   -0.227308
     13          6           0       11.932382    0.149192   -0.885919
     14          6           0      -11.534216    1.021256   -0.575547
     15          6           0       10.929269   -1.148597    2.391291
     16          6           0       10.599881   -2.625072    0.487639
     17          6           0      -11.816535   -1.326376    2.125408
     18          6           0      -12.619606   -2.316078    0.030163
     19          6           0        9.665450    0.347299    0.283179
     20          6           0      -10.084739   -0.852131   -0.457643
     21          6           0       11.556763    1.123235   -1.913820
     22          6           0      -10.637420    1.881475   -1.443140
     23          6           0        9.384426    1.690710    0.191248
     24          6           0       -8.857432   -0.327215   -0.313659
     25          6           0        8.041759    2.218489    0.228734
     26          6           0       -7.601871   -1.050224   -0.631766
     27          6           0        7.826851    3.738079    0.616952
     28          6           0       -7.821531   -2.566253   -1.066959
     29          6           0        6.885844    1.427641    0.161736
     30          6           0       -6.386506   -0.442840   -0.459023
     31          6           0        5.584468    1.979900    0.199596
     32          6           0       -5.140669   -1.005661   -0.627540
     33          6           0        4.501891    1.235371    0.019276
     34          6           0       -3.896948   -0.346403   -0.481737
     35          6           0        3.084628    1.628883    0.144307
     36          6           0       -2.630007   -0.863516   -0.645710
     37          6           0        2.762858    3.049710    0.474321
     38          6           0       -2.417296   -2.265273   -1.003762
     39          6           0        2.097236    0.640566   -0.160627
     40          6           0       -1.543708    0.010526   -0.429935
     41          6           0        0.807977    0.788150   -0.180919
     42          6           0       -0.194126   -0.138056   -0.354401
     43          1           0       13.568898   -1.154781    1.643709
     44          1           0       13.200504   -2.818989    1.658942
     45          1           0      -14.305246   -0.884078    1.522442
     46          1           0      -14.206875   -0.542911   -0.217417
     47          1           0       12.884178   -2.490203   -1.023699
     48          1           0      -12.956553    1.450418    1.842235
     49          1           0       13.943534    0.484554   -0.260896
     50          1           0       13.822408   -0.504065   -1.829938
     51          1           0      -13.412028    1.954909   -1.264611
     52          1           0      -12.515464    2.753987    0.059630
     53          1           0       11.130501   -2.021445    2.955336
     54          1           0        9.899348   -0.855681    2.572192
     55          1           0       11.519578   -0.273180    2.459034
     56          1           0       10.944179   -3.019074   -0.546358
     57          1           0       10.852681   -3.616656    1.234356
     58          1           0        9.688267   -2.542219    0.398776
     59          1           0      -11.667039   -0.392893    2.570183
     60          1           0      -10.906663   -1.941337    2.067190
     61          1           0      -12.528255   -1.733241    2.771525
     62          1           0      -13.388008   -2.871696    0.299546
     63          1           0      -11.770475   -2.956304    0.008959
     64          1           0      -12.906277   -2.253434   -1.095766
     65          1           0        8.790115   -0.453912    0.739467
     66          1           0      -10.209459   -1.911567   -0.680909
     67          1           0       10.406213    1.142366   -2.295611
     68          1           0       11.786652    2.347704   -1.786124
     69          1           0       12.200241    0.832122   -2.684609
     70          1           0      -10.964678    2.360310   -2.265789
     71          1           0       -9.982924    1.416781   -1.894682
     72          1           0       -9.941280    2.531302   -0.907775
     73          1           0       15.040607   -2.895012    0.138235
     74          1           0      -15.236823    1.525251    1.909080
     75          1           0       10.229882    2.339207   -0.103626
     76          1           0       -8.803625    0.731108   -0.066082
     77          1           0        8.688897    4.289466    0.586266
     78          1           0        7.207477    4.008714   -0.198374
     79          1           0        7.304090    4.025287    1.502356
     80          1           0       -8.121664   -3.075237   -0.142336
     81          1           0       -8.406312   -2.634481   -1.933166
     82          1           0       -6.774323   -3.094863   -1.271498
     83          1           0        6.884265    0.455761   -0.213497
     84          1           0       -6.208068    0.616730   -0.150235
     85          1           0        5.351809    3.087833    0.415885
     86          1           0       -5.173824   -2.188587   -0.598238
     87          1           0        4.412397    0.104522   -0.100710
     88          1           0       -4.090928    0.876830   -0.397001
     89          1           0        2.803628    3.242386    1.588813
     90          1           0        1.788524    3.408920    0.157270
     91          1           0        3.562766    3.634433   -0.105068
     92          1           0       -3.063864   -2.818145   -0.189870
     93          1           0       -2.650443   -2.531987   -2.162151
     94          1           0       -1.299627   -2.459215   -0.800832
     95          1           0        2.442659   -0.453889   -0.447312
     96          1           0       -1.945882    0.994276    0.012413
     97          1           0        0.417752    1.640591    0.314224
     98          1           0        0.250312   -1.111020   -0.430190
 ---------------------------------------------------------------------

 SCF Done:  E(RCAM-B3LYP) =  -1706.90405355     A.U. after   15 cycles

 Excitation energies and oscillator strengths:

 Excited State   1:      Singlet-A      2.0029 eV  619.02 nm  f=3.8059  <S**2>=0.000
     155 ->158        -0.13905
     156 ->157         0.69609
     156 <-157        -0.10495
 This state for optimization and/or second-order correction.
 Total Energy, E(TD-HF/TD-DFT) =  -1706.83044796
 Copying the excited state density for this state as the 1-particle RhoCI density.

 The electronic state is 1-A.
 Alpha  occ. eigenvalues --  -19.21649 -19.20492 -10.30046 -10.29892 -10.28282
 Alpha  occ. eigenvalues --  -10.28165 -10.28124 -10.27928 -10.27499 -10.27363
 Alpha  occ. eigenvalues --  -10.27205 -10.26974 -10.26832 -10.26767 -10.26727
 Alpha  occ. eigenvalues --  -10.26690 -10.26654 -10.26635 -10.26560 -10.26553
 Alpha  occ. eigenvalues --  -10.26405 -10.26401 -10.26339 -10.26332 -10.26233
 Alpha  occ. eigenvalues --  -10.26216 -10.26072 -10.25840 -10.25720 -10.25603
 Alpha  occ. eigenvalues --  -10.25491 -10.25391 -10.25148 -10.25004 -10.24625
 Alpha  occ. eigenvalues --  -10.24474 -10.24241 -10.24199 -10.23651 -10.23039
 Alpha  occ. eigenvalues --  -10.22944 -10.22059  -1.09292  -1.07855  -0.94998
 Alpha  occ. eigenvalues --   -0.93633  -0.92519  -0.91567  -0.90436  -0.89673
 Alpha  occ. eigenvalues --   -0.89187  -0.87967  -0.87451  -0.85799  -0.84865
 Alpha  occ. eigenvalues --   -0.83183  -0.82264  -0.80729  -0.80278  -0.79047
 Alpha  occ. eigenvalues --   -0.78087  -0.77682  -0.77113  -0.76425  -0.75856
 Alpha  occ. eigenvalues --   -0.75583  -0.75492  -0.75234  -0.73146  -0.70915
 Alpha  occ. eigenvalues --   -0.68928  -0.67677  -0.65724  -0.64562  -0.64207
 Alpha  occ. eigenvalues --   -0.63820  -0.62586  -0.61387  -0.60242  -0.59896
 Alpha  occ. eigenvalues --   -0.58877  -0.58569  -0.58357  -0.57767  -0.56516
 Alpha  occ. eigenvalues --   -0.55796  -0.55490  -0.54811  -0.54076  -0.53630
 Alpha  occ. eigenvalues --   -0.53171  -0.53028  -0.52461  -0.51869  -0.51590
 Alpha  occ. eigenvalues --   -0.50423  -0.50177  -0.50115  -0.49745  -0.49367
 Alpha  occ. eigenvalues --   -0.49198  -0.48962  -0.48698  -0.48386  -0.48341
 Alpha  occ. eigenvalues --   -0.48074  -0.47816  -0.47638  -0.46798  -0.46649
 Alpha  occ. eigenvalues --   -0.46500  -0.45945  -0.45777  -0.45564  -0.45133
 Alpha  occ. eigenvalues --   -0.44635  -0.44323  -0.44010  -0.43920  -0.43175
 Alpha  occ. eigenvalues --   -0.42915  -0.42447  -0.42210  -0.41973  -0.41757
 Alpha  occ. eigenvalues --   -0.41583  -0.41251  -0.41154  -0.41008  -0.40611
 Alpha  occ. eigenvalues --   -0.40168  -0.40057  -0.39983  -0.39712  -0.39166
 Alpha  occ. eigenvalues --   -0.39027  -0.38585  -0.38301  -0.37952  -0.37591
 Alpha  occ. eigenvalues --   -0.37545  -0.36837  -0.36424  -0.36022  -0.35844
 Alpha  occ. eigenvalues --   -0.35697  -0.35186  -0.33690  -0.32782  -0.32056
 Alpha  occ. eigenvalues --   -0.30853  -0.29943  -0.28528  -0.26047  -0.23634
 Alpha  occ. eigenvalues --   -0.18676
 Alpha virt. eigenvalues --   -0.06578  -0.01117   0.02049   0.05796   0.07644
 Alpha virt. eigenvalues --    0.09878   0.10155   0.11062   0.11648   0.11998
 Alpha virt. eigenvalues --    0.12312   0.12548   0.13372   0.13487   0.13692

 Mulliken charges:
               1
     1  O   -0.583119
     2  O   -0.570654
     3  C   -0.024576
     4  C   -0.027788
     5  C   -0.179784
     6  C   -0.184072
     7  C    0.189095
     8  C    0.186557
     9  C    0.030631
    10  C    0.066325
    11  C   -0.197984
    12  C   -0.209230
    13  C    0.083228
    14  C    0.026800
    15  C   -0.274004
    16  C   -0.244184
    17  C   -0.297194
    18  C   -0.306081
    19  C   -0.108037
    20  C   -0.134970
    21  C   -0.360427
    22  C   -0.359360
    23  C   -0.110742
    24  C   -0.080219
    25  C    0.042406
    26  C    0.061339
    27  C   -0.364154
    28  C   -0.363311
    29  C   -0.099393
    30  C   -0.106068
    31  C   -0.097086
    32  C   -0.085473
    33  C   -0.093508
    34  C   -0.134333
    35  C    0.085540
    36  C    0.134508
    37  C   -0.377410
    38  C   -0.355179
    39  C   -0.118405
    40  C   -0.120102
    41  C   -0.062885
    42  C   -0.099767
    43  H    0.103317
    44  H    0.018151
    45  H    0.085031
    46  H    0.111759
    47  H    0.082664
    48  H    0.070008
    49  H    0.089556
    50  H    0.117868
    51  H    0.098281
    52  H    0.116650
    53  H    0.102846
    54  H    0.093533
    55  H    0.114772
    56  H    0.088463
    57  H    0.058482
    58  H    0.104592
    59  H    0.108191
    60  H    0.107906
    61  H    0.099280
    62  H    0.107079
    63  H    0.095818
    64  H    0.083918
    65  H    0.080314
    66  H    0.080185
    67  H    0.118422
    68  H    0.082914
    69  H    0.111830
    70  H    0.109856
    71  H    0.123054
    72  H    0.109007
    73  H    0.302322
    74  H    0.303416
    75  H    0.097868
    76  H    0.080831
    77  H    0.107080
    78  H    0.127908
    79  H    0.128233
    80  H    0.132516
    81  H    0.138799
    82  H    0.090380
    83  H    0.090198
    84  H    0.077703
    85  H    0.087904
    86  H    0.068076
    87  H    0.076401
    88  H    0.069193
    89  H    0.125002
    90  H    0.122109
    91  H    0.110920
    92  H    0.112832
    93  H    0.115360
    94  H    0.105347
    95  H    0.067927
    96  H    0.067764
    97  H    0.074018
    98  H    0.069219
 Sum of Mulliken charges =  -0.00000

 Dipole moment (field-independent basis, Debye):
    X=             -1.0495    Y=             -1.4153    Z=              1.4139  Tot=              2.2591
 Quadrupole moment (field-independent basis, Debye-Ang):
   XX=           -264.9504   YY=           -243.6424   ZZ=           -259.5962
   XY=              9.4619   XZ=            -14.3978   YZ=              1.7292

 Normal termination of Gaussian 16 at Wed Jul 17 11:52:05 2019.
