 Gaussian 16, Revision A.03,
 Gaussian 16:  ES64L-G16RevA.03 25-Dec-2016

 -------------------------------------
 # td=(NStates=1) CAM-B3LYP/6-31G(d,p)
 -------------------------------------

 --
 TD
 --
 Symbolic Z-matrix:
 Charge =  0 Multiplicity = 1

                         Standard orientation:
 ---------------------------------------------------------------------
 Center     Atomic      Atomic             Coordinates (Angstroms)
 Number     Number       Type             X           Y           Z
 ---------------------------------------------------------------------
      1          8           0       14.814353   -2.107849   -0.155290
      2          8           0      -14.692933    2.012000    1.191291
      3          6           0       11.205994   -1.435865    0.988912
      4          6           0      -12.406654   -0.954906    0.661575
      5          6           0       12.670422   -1.847602    0.966298
      6          6           0      -13.681213   -0.241529    0.770821
      7          6           0       13.416152   -1.869242   -0.364884
      8          6           0      -13.444278    1.348644    0.857623
      9          6           0       11.023688   -0.190266    0.044246
     10          6           0      -11.365106   -0.254742   -0.213110
     11          6           0       13.311680   -0.416183   -0.904967
     12          6           0      -12.721425    1.896159   -0.394960
     13          6           0       11.870729    0.137013   -0.913553
     14          6           0      -11.387727    1.008504   -0.687754
     15          6           0       10.764890   -1.060688    2.414310
     16          6           0       10.421250   -2.727182    0.439869
     17          6           0      -11.705394   -1.172282    2.054702
     18          6           0      -12.689917   -2.315436    0.069647
     19          6           0        9.727091    0.399896    0.098154
     20          6           0      -10.014596   -0.966332   -0.369273
     21          6           0       11.512307    1.140285   -2.051221
     22          6           0      -10.489202    1.699107   -1.732155
     23          6           0        9.328481    1.715042    0.184209
     24          6           0       -8.817134   -0.546559   -0.401826
     25          6           0        7.961828    2.230838    0.289542
     26          6           0       -7.558757   -1.319212   -0.564488
     27          6           0        7.903310    3.716173    0.799266
     28          6           0       -7.820919   -2.751195   -0.819211
     29          6           0        6.826586    1.572162    0.072812
     30          6           0       -6.333791   -0.701634   -0.498038
     31          6           0        5.565785    2.118523    0.225877
     32          6           0       -5.061907   -1.199439   -0.597525
     33          6           0        4.488962    1.319485   -0.030328
     34          6           0       -3.959582   -0.445851   -0.389794
     35          6           0        3.150096    1.740846    0.080871
     36          6           0       -2.585830   -0.823882   -0.549081
     37          6           0        2.825708    3.162486    0.408322
     38          6           0       -2.296413   -2.346557   -0.818916
     39          6           0        2.163059    0.784760   -0.198943
     40          6           0       -1.583209    0.177481   -0.338586
     41          6           0        0.677374    0.966581   -0.183549
     42          6           0       -0.272461   -0.102662   -0.371117
     43          1           0       13.157040   -1.090621    1.641825
     44          1           0       12.834716   -2.771897    1.558834
     45          1           0      -14.232638   -0.470528    1.680904
     46          1           0      -14.453803   -0.662145    0.023716
     47          1           0       12.837092   -2.772889   -0.981232
     48          1           0      -12.844591    1.566843    1.894203
     49          1           0       13.848755    0.121651   -0.288955
     50          1           0       13.518154   -0.395979   -2.093475
     51          1           0      -13.473920    1.805935   -1.238852
     52          1           0      -12.474232    2.831495   -0.156591
     53          1           0       11.335973   -1.889410    2.937307
     54          1           0        9.855613   -1.111794    2.544190
     55          1           0       11.322036   -0.054333    2.672087
     56          1           0       10.643389   -3.221399   -0.400309
     57          1           0       10.275495   -3.640155    1.169218
     58          1           0        9.329978   -2.530952    0.264582
     59          1           0      -11.546825   -0.260900    2.735538
     60          1           0      -10.697609   -1.492536    1.779036
     61          1           0      -12.189598   -1.855624    2.632955
     62          1           0      -13.430579   -2.683523    0.695379
     63          1           0      -11.862609   -3.025853    0.088196
     64          1           0      -13.085584   -2.132688   -0.915116
     65          1           0        8.786315   -0.317039    0.320529
     66          1           0      -10.244830   -2.076437   -0.388554
     67          1           0       10.434715    1.436132   -1.971280
     68          1           0       12.026945    2.089043   -1.982552
     69          1           0       11.737852    0.887006   -3.101510
     70          1           0      -11.171455    2.259263   -2.447852
     71          1           0       -9.911509    1.005818   -2.396651
     72          1           0       -9.843633    2.320306   -1.401574
     73          1           0       14.843436   -3.112199    0.221862
     74          1           0      -15.191435    1.479817    1.958244
     75          1           0       10.048828    2.603664    0.019425
     76          1           0       -8.639175    0.709209   -0.360846
     77          1           0        8.819221    4.022787    0.839467
     78          1           0        7.182774    4.470520    0.296250
     79          1           0        7.528580    3.688294    1.741894
     80          1           0       -8.363226   -3.146105    0.177739
     81          1           0       -8.446669   -2.986880   -1.706486
     82          1           0       -6.896385   -3.443523   -1.117732
     83          1           0        6.809585    0.460476   -0.130759
     84          1           0       -6.573973    0.379304   -0.289963
     85          1           0        5.437941    3.185811    0.388742
     86          1           0       -4.947639   -2.384869   -0.667112
     87          1           0        4.648858    0.193364   -0.247759
     88          1           0       -4.133159    0.550808   -0.157781
     89          1           0        3.239160    3.210712    1.317419
     90          1           0        1.876299    3.095283    0.406617
     91          1           0        3.143893    3.736852   -0.371982
     92          1           0       -2.482983   -2.975787    0.188978
     93          1           0       -3.095055   -2.686928   -1.697679
     94          1           0       -1.247350   -2.597890   -1.120027
     95          1           0        2.645811   -0.227217   -0.309410
     96          1           0       -1.899554    1.142120   -0.302757
     97          1           0        0.191618    1.995804   -0.072171
     98          1           0        0.329331   -1.131847   -0.368835
 ---------------------------------------------------------------------

 SCF Done:  E(RCAM-B3LYP) =  -1706.92700574     A.U. after   15 cycles

 Excitation energies and oscillator strengths:

 Excited State   1:      Singlet-A      2.2330 eV  555.25 nm  f=3.7102  <S**2>=0.000
     155 ->158         0.14484
     156 ->157         0.69291
 This state for optimization and/or second-order correction.
 Total Energy, E(TD-HF/TD-DFT) =  -1706.84494604
 Copying the excited state density for this state as the 1-particle RhoCI density.

 The electronic state is 1-A.
 Alpha  occ. eigenvalues --  -19.22766 -19.20756 -10.32214 -10.31786 -10.28594
 Alpha  occ. eigenvalues --  -10.28418 -10.28293 -10.28153 -10.27435 -10.27321
 Alpha  occ. eigenvalues --  -10.27280 -10.27178 -10.27173 -10.27073 -10.27021
 Alpha  occ. eigenvalues --  -10.26985 -10.26944 -10.26824 -10.26751 -10.26633
 Alpha  occ. eigenvalues --  -10.26478 -10.26232 -10.26230 -10.25933 -10.25835
 Alpha  occ. eigenvalues --  -10.25720 -10.25646 -10.25568 -10.25550 -10.25470
 Alpha  occ. eigenvalues --  -10.25410 -10.25400 -10.25213 -10.25052 -10.25042
 Alpha  occ. eigenvalues --  -10.24974 -10.24626 -10.24354 -10.24080 -10.24004
 Alpha  occ. eigenvalues --  -10.23982 -10.22414  -1.08141  -1.06031  -0.93580
 Alpha  occ. eigenvalues --   -0.93540  -0.92572  -0.91773  -0.90545  -0.90022
 Alpha  occ. eigenvalues --   -0.87704  -0.86968  -0.86452  -0.85460  -0.84058
 Alpha  occ. eigenvalues --   -0.83306  -0.81658  -0.79789  -0.79638  -0.78828
 Alpha  occ. eigenvalues --   -0.77216  -0.77124  -0.76888  -0.76409  -0.76240
 Alpha  occ. eigenvalues --   -0.75632  -0.75613  -0.75385  -0.73484  -0.70614
 Alpha  occ. eigenvalues --   -0.68620  -0.66498  -0.65465  -0.65012  -0.64635
 Alpha  occ. eigenvalues --   -0.63627  -0.62107  -0.61262  -0.60849  -0.59840
 Alpha  occ. eigenvalues --   -0.58746  -0.58447  -0.56873  -0.55936  -0.55820
 Alpha  occ. eigenvalues --   -0.54986  -0.54813  -0.54615  -0.54043  -0.53673
 Alpha  occ. eigenvalues --   -0.53295  -0.52838  -0.52548  -0.52367  -0.51713
 Alpha  occ. eigenvalues --   -0.51049  -0.50860  -0.50161  -0.49781  -0.49432
 Alpha  occ. eigenvalues --   -0.48918  -0.48315  -0.48046  -0.47881  -0.47768
 Alpha  occ. eigenvalues --   -0.47624  -0.47194  -0.46913  -0.46744  -0.46586
 Alpha  occ. eigenvalues --   -0.46239  -0.46070  -0.45993  -0.45684  -0.45315
 Alpha  occ. eigenvalues --   -0.45038  -0.44426  -0.43926  -0.43716  -0.43079
 Alpha  occ. eigenvalues --   -0.42839  -0.42694  -0.42135  -0.42061  -0.41950
 Alpha  occ. eigenvalues --   -0.41821  -0.41235  -0.40968  -0.40918  -0.40617
 Alpha  occ. eigenvalues --   -0.40503  -0.40248  -0.39931  -0.39855  -0.39572
 Alpha  occ. eigenvalues --   -0.39375  -0.39085  -0.38971  -0.38663  -0.38207
 Alpha  occ. eigenvalues --   -0.37893  -0.37854  -0.36471  -0.36348  -0.35879
 Alpha  occ. eigenvalues --   -0.35012  -0.34949  -0.34220  -0.32814  -0.32275
 Alpha  occ. eigenvalues --   -0.30628  -0.30139  -0.28733  -0.26750  -0.23770
 Alpha  occ. eigenvalues --   -0.19301
 Alpha virt. eigenvalues --   -0.05724  -0.00623   0.02984   0.05913   0.08040
 Alpha virt. eigenvalues --    0.09574   0.10099   0.10392   0.11356   0.11969
 Alpha virt. eigenvalues --    0.12481   0.12609   0.13028   0.13516   0.13723

 Mulliken charges:
               1
     1  O   -0.549872
     2  O   -0.589566
     3  C    0.000565
     4  C    0.001001
     5  C   -0.203018
     6  C   -0.208015
     7  C    0.168339
     8  C    0.180206
     9  C    0.083392
    10  C    0.097780
    11  C   -0.190148
    12  C   -0.208330
    13  C    0.035396
    14  C   -0.006478
    15  C   -0.264865
    16  C   -0.324197
    17  C   -0.300595
    18  C   -0.308165
    19  C   -0.141530
    20  C   -0.145477
    21  C   -0.376187
    22  C   -0.360798
    23  C   -0.105823
    24  C   -0.081876
    25  C    0.051039
    26  C    0.118896
    27  C   -0.358972
    28  C   -0.374259
    29  C   -0.099041
    30  C   -0.115148
    31  C   -0.080367
    32  C   -0.092777
    33  C   -0.110193
    34  C   -0.090954
    35  C    0.058023
    36  C    0.082954
    37  C   -0.317662
    38  C   -0.353779
    39  C   -0.142280
    40  C   -0.109297
    41  C   -0.124741
    42  C   -0.063532
    43  H    0.089324
    44  H    0.074330
    45  H    0.076098
    46  H    0.089546
    47  H    0.057380
    48  H    0.062077
    49  H    0.135137
    50  H    0.090551
    51  H    0.114816
    52  H    0.121138
    53  H    0.090910
    54  H    0.110157
    55  H    0.100027
    56  H    0.121307
    57  H    0.081876
    58  H    0.090669
    59  H    0.094635
    60  H    0.109838
    61  H    0.102179
    62  H    0.105450
    63  H    0.103099
    64  H    0.113584
    65  H    0.074405
    66  H    0.072000
    67  H    0.122901
    68  H    0.115538
    69  H    0.109262
    70  H    0.101549
    71  H    0.120967
    72  H    0.133539
    73  H    0.308368
    74  H    0.308003
    75  H    0.081283
    76  H    0.058999
    77  H    0.105467
    78  H    0.102820
    79  H    0.138186
    80  H    0.105789
    81  H    0.125842
    82  H    0.088665
    83  H    0.074985
    84  H    0.072048
    85  H    0.091011
    86  H    0.085190
    87  H    0.075372
    88  H    0.077732
    89  H    0.131227
    90  H    0.105298
    91  H    0.129575
    92  H    0.110498
    93  H    0.102511
    94  H    0.113326
    95  H    0.075423
    96  H    0.088585
    97  H    0.088945
    98  H    0.090913
 Sum of Mulliken charges =  -0.00000

 Dipole moment (field-independent basis, Debye):
    X=              0.3025    Y=             -2.1006    Z=              1.1377  Tot=              2.4080
 Quadrupole moment (field-independent basis, Debye-Ang):
   XX=           -287.5442   YY=           -242.1063   ZZ=           -261.5604
   XY=             13.1981   XZ=             -1.5600   YZ=             -1.1010

 Normal termination of Gaussian 16 at Thu Jul 11 14:39:18 2019.
