 Gaussian 16, Revision A.03,
 Gaussian 16:  ES64L-G16RevA.03 25-Dec-2016

 -------------------------------------
 # td=(NStates=1) CAM-B3LYP/6-31G(d,p)
 -------------------------------------

 --
 TD
 --
 Symbolic Z-matrix:
 Charge =  0 Multiplicity = 1

                         Standard orientation:
 ---------------------------------------------------------------------
 Center     Atomic      Atomic             Coordinates (Angstroms)
 Number     Number       Type             X           Y           Z
 ---------------------------------------------------------------------
      1          8           0       14.766546   -2.261062   -0.082240
      2          8           0      -14.788175    1.644493    1.352676
      3          6           0       11.192008   -1.553458    0.987138
      4          6           0      -12.346856   -1.177460    0.633831
      5          6           0       12.713420   -1.898352    1.079621
      6          6           0      -13.723230   -0.434225    0.887492
      7          6           0       13.423054   -1.883426   -0.197852
      8          6           0      -13.503715    0.987717    1.216348
      9          6           0       10.959852   -0.338981    0.072382
     10          6           0      -11.294069   -0.297219   -0.212321
     11          6           0       13.324174   -0.486240   -0.897255
     12          6           0      -12.865712    1.700590    0.010999
     13          6           0       11.894632    0.109611   -0.803796
     14          6           0      -11.568823    1.017042   -0.478636
     15          6           0       10.706650   -1.190676    2.453438
     16          6           0       10.370986   -2.752565    0.498918
     17          6           0      -11.721598   -1.509421    2.073397
     18          6           0      -12.637647   -2.557533   -0.023256
     19          6           0        9.604842    0.281514    0.172466
     20          6           0      -10.089622   -0.905427   -0.627159
     21          6           0       11.730980    1.207283   -1.861542
     22          6           0      -10.779863    1.871002   -1.333119
     23          6           0        9.443664    1.623001    0.207644
     24          6           0       -8.817118   -0.397017   -0.435252
     25          6           0        8.141728    2.244213    0.226498
     26          6           0       -7.535524   -1.006025   -0.727415
     27          6           0        8.086176    3.656434    0.646749
     28          6           0       -7.667180   -2.423425   -1.252804
     29          6           0        7.000044    1.509216    0.179985
     30          6           0       -6.364142   -0.351605   -0.476458
     31          6           0        5.614719    2.001007    0.331215
     32          6           0       -5.137541   -0.787177   -0.765681
     33          6           0        4.553501    1.169378    0.086410
     34          6           0       -3.911996   -0.112742   -0.584203
     35          6           0        3.120820    1.750927    0.057155
     36          6           0       -2.644255   -0.628225   -0.784417
     37          6           0        2.860943    3.101244    0.381398
     38          6           0       -2.357807   -1.906888   -1.278114
     39          6           0        2.113014    0.798664   -0.191881
     40          6           0       -1.608570    0.339442   -0.562245
     41          6           0        0.732064    1.076148   -0.360469
     42          6           0       -0.207372    0.079493   -0.543777
     43          1           0       13.151770   -1.235740    1.656611
     44          1           0       12.642671   -3.005707    1.372054
     45          1           0      -14.425032   -0.956517    1.783623
     46          1           0      -14.352959   -0.664914    0.167548
     47          1           0       12.970066   -2.514145   -0.823639
     48          1           0      -12.897368    1.129465    2.182919
     49          1           0       13.980768    0.185840   -0.270913
     50          1           0       13.653229   -0.564253   -1.843590
     51          1           0      -13.555625    1.511849   -0.783932
     52          1           0      -12.781346    2.668547    0.400196
     53          1           0       10.763583   -2.101881    3.144514
     54          1           0        9.510827   -0.842803    2.280614
     55          1           0       11.215350   -0.419805    2.930341
     56          1           0       10.964236   -3.323138   -0.366977
     57          1           0       10.346860   -3.435060    1.469831
     58          1           0        9.306979   -2.737235    0.402333
     59          1           0      -11.510872   -0.557364    2.768174
     60          1           0      -10.742126   -2.062670    2.071965
     61          1           0      -12.584600   -2.068492    2.655966
     62          1           0      -13.412163   -3.107029    0.443107
     63          1           0      -11.765145   -2.992770   -0.241482
     64          1           0      -13.109161   -2.266534   -0.970971
     65          1           0        8.763495   -0.279007    0.276601
     66          1           0      -10.073927   -1.934338   -1.045791
     67          1           0       10.639929    1.334897   -2.177575
     68          1           0       12.118835    2.225723   -1.698992
     69          1           0       12.142142    0.751178   -2.863506
     70          1           0      -11.427853    2.585650   -1.785299
     71          1           0      -10.131308    1.367840   -1.888149
     72          1           0      -10.151370    2.716087   -0.862588
     73          1           0       14.760128   -3.120052    0.364528
     74          1           0      -15.281000    1.032094    1.901603
     75          1           0       10.455601    2.241409   -0.122894
     76          1           0       -8.868872    0.552374    0.248339
     77          1           0        9.062746    4.178523    0.591526
     78          1           0        7.460816    4.211672   -0.086287
     79          1           0        7.396194    3.848970    1.587676
     80          1           0       -7.857313   -2.995023   -0.259046
     81          1           0       -8.482791   -2.572617   -1.975493
     82          1           0       -6.793217   -2.872660   -1.953335
     83          1           0        7.229796    0.473474   -0.248974
     84          1           0       -6.497536    0.655144   -0.138969
     85          1           0        5.429450    3.088861    0.691516
     86          1           0       -4.935807   -1.839421   -1.059097
     87          1           0        4.633940    0.085432   -0.115598
     88          1           0       -3.839491    0.882130   -0.080535
     89          1           0        3.333082    3.694376    1.247833
     90          1           0        1.635076    3.247207    0.380536
     91          1           0        3.256895    3.899637   -0.286762
     92          1           0       -3.150580   -2.618925   -0.821843
     93          1           0       -2.707924   -1.976298   -2.274654
     94          1           0       -1.317891   -2.464882   -1.371040
     95          1           0        2.515043   -0.278702   -0.154179
     96          1           0       -2.021077    1.353752   -0.562459
     97          1           0        0.427375    2.266844   -0.425321
     98          1           0        0.252700   -1.003475   -0.456137
 ---------------------------------------------------------------------

 SCF Done:  E(RCAM-B3LYP) =  -1706.98743190     A.U. after   15 cycles

 Excitation energies and oscillator strengths:

 Excited State   1:      Singlet-A      2.1907 eV  565.95 nm  f=3.6624  <S**2>=0.000
     155 ->158         0.15231
     156 ->157         0.68993
 This state for optimization and/or second-order correction.
 Total Energy, E(TD-HF/TD-DFT) =  -1706.90692418
 Copying the excited state density for this state as the 1-particle RhoCI density.

 The electronic state is 1-A.
 Alpha  occ. eigenvalues --  -19.20862 -19.20561 -10.30360 -10.28807 -10.28332
 Alpha  occ. eigenvalues --  -10.28142 -10.28065 -10.27895 -10.27654 -10.27628
 Alpha  occ. eigenvalues --  -10.27628 -10.27477 -10.27348 -10.27223 -10.27148
 Alpha  occ. eigenvalues --  -10.27104 -10.26994 -10.26888 -10.26714 -10.26637
 Alpha  occ. eigenvalues --  -10.26619 -10.26514 -10.26430 -10.26351 -10.26339
 Alpha  occ. eigenvalues --  -10.26335 -10.26244 -10.26237 -10.26176 -10.26117
 Alpha  occ. eigenvalues --  -10.26052 -10.25989 -10.25913 -10.25825 -10.25712
 Alpha  occ. eigenvalues --  -10.25327 -10.25114 -10.24640 -10.24562 -10.24153
 Alpha  occ. eigenvalues --  -10.23650 -10.23502  -1.10027  -1.08885  -0.93252
 Alpha  occ. eigenvalues --   -0.93192  -0.92757  -0.91354  -0.90828  -0.90242
 Alpha  occ. eigenvalues --   -0.87278  -0.86811  -0.86274  -0.85770  -0.84972
 Alpha  occ. eigenvalues --   -0.83269  -0.82388  -0.80297  -0.80194  -0.78720
 Alpha  occ. eigenvalues --   -0.77140  -0.76687  -0.75962  -0.75747  -0.75652
 Alpha  occ. eigenvalues --   -0.75146  -0.74910  -0.74460  -0.73351  -0.70548
 Alpha  occ. eigenvalues --   -0.68692  -0.67203  -0.66037  -0.65172  -0.63992
 Alpha  occ. eigenvalues --   -0.63610  -0.62520  -0.60549  -0.60353  -0.60002
 Alpha  occ. eigenvalues --   -0.59976  -0.58839  -0.58256  -0.57705  -0.56277
 Alpha  occ. eigenvalues --   -0.55688  -0.55576  -0.55255  -0.54692  -0.54290
 Alpha  occ. eigenvalues --   -0.53251  -0.52863  -0.52191  -0.51761  -0.51331
 Alpha  occ. eigenvalues --   -0.51004  -0.50680  -0.50521  -0.49696  -0.49579
 Alpha  occ. eigenvalues --   -0.49238  -0.48492  -0.48334  -0.48292  -0.47903
 Alpha  occ. eigenvalues --   -0.47630  -0.46915  -0.46677  -0.46197  -0.46009
 Alpha  occ. eigenvalues --   -0.45857  -0.45443  -0.45091  -0.44908  -0.44847
 Alpha  occ. eigenvalues --   -0.44690  -0.44395  -0.44312  -0.44084  -0.43447
 Alpha  occ. eigenvalues --   -0.43339  -0.42980  -0.42906  -0.42525  -0.42184
 Alpha  occ. eigenvalues --   -0.42012  -0.41649  -0.41188  -0.40888  -0.40647
 Alpha  occ. eigenvalues --   -0.40457  -0.39854  -0.39611  -0.39440  -0.39157
 Alpha  occ. eigenvalues --   -0.38892  -0.38768  -0.38330  -0.38155  -0.37794
 Alpha  occ. eigenvalues --   -0.37688  -0.37246  -0.37100  -0.36298  -0.35487
 Alpha  occ. eigenvalues --   -0.35315  -0.34524  -0.33843  -0.32429  -0.32246
 Alpha  occ. eigenvalues --   -0.32089  -0.29560  -0.28210  -0.25982  -0.23397
 Alpha  occ. eigenvalues --   -0.19250
 Alpha virt. eigenvalues --   -0.05859  -0.01154   0.02176   0.05693   0.07695
 Alpha virt. eigenvalues --    0.09236   0.10432   0.10752   0.11207   0.11884
 Alpha virt. eigenvalues --    0.12179   0.12791   0.12979   0.13204   0.13630

 Mulliken charges:
               1
     1  O   -0.558080
     2  O   -0.563418
     3  C   -0.028206
     4  C   -0.022331
     5  C   -0.175563
     6  C   -0.180509
     7  C    0.175964
     8  C    0.155448
     9  C    0.083042
    10  C    0.062946
    11  C   -0.214566
    12  C   -0.212206
    13  C    0.026677
    14  C    0.054702
    15  C   -0.289939
    16  C   -0.301902
    17  C   -0.283361
    18  C   -0.304973
    19  C   -0.113880
    20  C   -0.157071
    21  C   -0.377254
    22  C   -0.359298
    23  C   -0.097327
    24  C   -0.108842
    25  C    0.106865
    26  C    0.100167
    27  C   -0.380852
    28  C   -0.374164
    29  C   -0.130403
    30  C   -0.093348
    31  C   -0.098038
    32  C   -0.103815
    33  C   -0.103751
    34  C   -0.125051
    35  C    0.143262
    36  C    0.170664
    37  C   -0.399012
    38  C   -0.407683
    39  C   -0.129520
    40  C   -0.149623
    41  C   -0.078296
    42  C   -0.097196
    43  H    0.106653
    44  H    0.071178
    45  H    0.035268
    46  H    0.111622
    47  H    0.074435
    48  H    0.083181
    49  H    0.111136
    50  H    0.112721
    51  H    0.131137
    52  H    0.121552
    53  H    0.091049
    54  H    0.076294
    55  H    0.118640
    56  H    0.094784
    57  H    0.080166
    58  H    0.118279
    59  H    0.080483
    60  H    0.102083
    61  H    0.084008
    62  H    0.110895
    63  H    0.111793
    64  H    0.097213
    65  H    0.085921
    66  H    0.079140
    67  H    0.118139
    68  H    0.124169
    69  H    0.093045
    70  H    0.111946
    71  H    0.126447
    72  H    0.097310
    73  H    0.301107
    74  H    0.298144
    75  H    0.077943
    76  H    0.085902
    77  H    0.108815
    78  H    0.114845
    79  H    0.113803
    80  H    0.126671
    81  H    0.125917
    82  H    0.094110
    83  H    0.078527
    84  H    0.082889
    85  H    0.084106
    86  H    0.072479
    87  H    0.090264
    88  H    0.082084
    89  H    0.122400
    90  H    0.088927
    91  H    0.121085
    92  H    0.100867
    93  H    0.145885
    94  H    0.118340
    95  H    0.081796
    96  H    0.090429
    97  H    0.082868
    98  H    0.088848
 Sum of Mulliken charges =  -0.00000

 Dipole moment (field-independent basis, Debye):
    X=             -0.5230    Y=             -2.1059    Z=              0.1417  Tot=              2.1745
 Quadrupole moment (field-independent basis, Debye-Ang):
   XX=           -293.8159   YY=           -242.0597   ZZ=           -263.8956
   XY=             14.7782   XZ=              3.0435   YZ=              1.0959

 Normal termination of Gaussian 16 at Sat Jul 13 06:47:01 2019.
