 Gaussian 16, Revision A.03,
 Gaussian 16:  ES64L-G16RevA.03 25-Dec-2016

 -------------------------------------
 # td=(NStates=1) CAM-B3LYP/6-31G(d,p)
 -------------------------------------

 --
 TD
 --
 Symbolic Z-matrix:
 Charge =  0 Multiplicity = 1

                         Standard orientation:
 ---------------------------------------------------------------------
 Center     Atomic      Atomic             Coordinates (Angstroms)
 Number     Number       Type             X           Y           Z
 ---------------------------------------------------------------------
      1          8           0       14.674494   -2.246041   -0.058394
      2          8           0      -14.593663    2.018821    1.112284
      3          6           0       10.990158   -1.568863    0.889743
      4          6           0      -12.320169   -0.925943    0.737815
      5          6           0       12.563917   -1.862787    0.978146
      6          6           0      -13.612708   -0.257150    0.836732
      7          6           0       13.355198   -1.908578   -0.279554
      8          6           0      -13.365250    1.271776    0.967101
      9          6           0       10.884123   -0.292903   -0.002768
     10          6           0      -11.306932   -0.222148   -0.231393
     11          6           0       13.240417   -0.510056   -0.945109
     12          6           0      -12.706696    1.712455   -0.368659
     13          6           0       11.881317    0.138720   -0.845322
     14          6           0      -11.415613    1.053397   -0.666814
     15          6           0       10.642665   -1.067542    2.331713
     16          6           0       10.223750   -2.692568    0.433482
     17          6           0      -11.619889   -1.213110    1.999698
     18          6           0      -12.728675   -2.399137    0.058078
     19          6           0        9.598766    0.255174    0.131212
     20          6           0      -10.061033   -0.930576   -0.465488
     21          6           0       11.693556    1.195434   -1.867356
     22          6           0      -10.465237    1.710847   -1.581933
     23          6           0        9.266485    1.627314    0.201071
     24          6           0       -8.790354   -0.524924   -0.354164
     25          6           0        8.001659    2.317215    0.365467
     26          6           0       -7.599801   -1.226365   -0.564636
     27          6           0        7.959734    3.813553    0.736432
     28          6           0       -7.708487   -2.729330   -0.905458
     29          6           0        6.894189    1.687570    0.017504
     30          6           0       -6.351578   -0.599806   -0.557482
     31          6           0        5.538199    2.180755    0.159399
     32          6           0       -5.069319   -1.235369   -0.603227
     33          6           0        4.456935    1.363536   -0.210106
     34          6           0       -3.944031   -0.406364   -0.371440
     35          6           0        3.196572    1.754456   -0.066244
     36          6           0       -2.655897   -0.863023   -0.438281
     37          6           0        2.862053    3.197519    0.338583
     38          6           0       -2.262795   -2.308119   -0.795433
     39          6           0        2.077817    0.832280   -0.183159
     40          6           0       -1.646892    0.083909   -0.314071
     41          6           0        0.674223    1.001882   -0.127329
     42          6           0       -0.271725   -0.139234   -0.379646
     43          1           0       13.220409   -1.122267    1.666248
     44          1           0       12.755971   -2.726357    1.437576
     45          1           0      -14.083475   -0.796728    1.667219
     46          1           0      -14.188495   -0.315047   -0.002421
     47          1           0       12.938458   -2.619681   -1.073651
     48          1           0      -12.613011    1.600124    1.640634
     49          1           0       14.062471    0.053576   -0.437202
     50          1           0       13.811114   -0.651533   -1.994665
     51          1           0      -13.474503    1.484678   -1.239260
     52          1           0      -12.624993    2.825721   -0.433272
     53          1           0       11.199367   -1.739451    3.078574
     54          1           0        9.581533   -0.821049    2.461381
     55          1           0       11.112185    0.003023    2.492454
     56          1           0       10.463639   -3.219047   -0.535319
     57          1           0       10.403575   -3.519487    1.153567
     58          1           0        9.137496   -2.607746    0.483246
     59          1           0      -11.314643   -0.175036    2.494153
     60          1           0      -10.381436   -1.409008    1.792863
     61          1           0      -11.891008   -1.912717    2.736538
     62          1           0      -13.539479   -2.781895    0.654908
     63          1           0      -11.684265   -2.884517    0.062024
     64          1           0      -13.304785   -2.328873   -0.874506
     65          1           0        8.665442   -0.234671    0.267487
     66          1           0      -10.150934   -2.078398   -0.424704
     67          1           0       10.766029    1.519952   -1.872464
     68          1           0       12.355300    2.071198   -1.560855
     69          1           0       11.885863    0.834809   -2.931689
     70          1           0      -11.108186    2.310323   -2.335487
     71          1           0       -9.749497    0.809206   -2.015332
     72          1           0       -9.871432    2.359572   -0.988895
     73          1           0       14.635338   -3.241746    0.386910
     74          1           0      -15.050276    1.545859    1.798637
     75          1           0       10.207578    2.143464    0.270176
     76          1           0       -8.836049    0.587962   -0.205215
     77          1           0        9.011750    4.198106    1.024917
     78          1           0        7.594072    4.434614   -0.223748
     79          1           0        7.312707    3.756362    1.738349
     80          1           0       -8.310210   -3.031104    0.069454
     81          1           0       -8.308551   -2.821684   -1.898516
     82          1           0       -6.857338   -3.240490   -0.941684
     83          1           0        6.920325    0.761401   -0.496879
     84          1           0       -6.093998    0.369516   -0.279813
     85          1           0        5.448482    3.172925    0.390268
     86          1           0       -4.901943   -2.293216   -1.109708
     87          1           0        4.869930    0.321001   -0.535088
     88          1           0       -4.302314    0.458820   -0.003597
     89          1           0        2.540992    3.378969    1.677545
     90          1           0        1.929188    3.627823   -0.289277
     91          1           0        4.016990    3.871034    0.089526
     92          1           0       -2.881696   -2.800425   -0.278983
     93          1           0       -2.485761   -2.334728   -1.946876
     94          1           0       -1.141679   -2.487326   -0.425652
     95          1           0        2.412792   -0.316944   -0.370002
     96          1           0       -1.827688    1.093303   -0.085219
     97          1           0        0.141445    1.892139   -0.034504
     98          1           0        0.338631   -1.039948   -0.463931
 ---------------------------------------------------------------------

 SCF Done:  E(RCAM-B3LYP) =  -1706.86670067     A.U. after   17 cycles

 Excitation energies and oscillator strengths:

 Excited State   1:      Singlet-A      1.7707 eV  700.21 nm  f=3.7032  <S**2>=0.000
     155 ->158         0.12764
     156 ->157         0.70287
     156 <-157        -0.12594
 This state for optimization and/or second-order correction.
 Total Energy, E(TD-HF/TD-DFT) =  -1706.80162943
 Copying the excited state density for this state as the 1-particle RhoCI density.

 The electronic state is 1-A.
 Alpha  occ. eigenvalues --  -19.22449 -19.21077 -10.30954 -10.30372 -10.29788
 Alpha  occ. eigenvalues --  -10.28360 -10.28203 -10.27977 -10.27939 -10.27763
 Alpha  occ. eigenvalues --  -10.27735 -10.27484 -10.27464 -10.27408 -10.27147
 Alpha  occ. eigenvalues --  -10.27044 -10.26742 -10.26742 -10.26471 -10.26327
 Alpha  occ. eigenvalues --  -10.26294 -10.26292 -10.26238 -10.26103 -10.26079
 Alpha  occ. eigenvalues --  -10.25974 -10.25948 -10.25877 -10.25850 -10.25757
 Alpha  occ. eigenvalues --  -10.25699 -10.25697 -10.25686 -10.25653 -10.25573
 Alpha  occ. eigenvalues --  -10.25504 -10.25420 -10.25015 -10.24774 -10.24687
 Alpha  occ. eigenvalues --  -10.24491 -10.23938  -1.09443  -1.09162  -0.94598
 Alpha  occ. eigenvalues --   -0.93518  -0.92730  -0.91956  -0.90916  -0.89832
 Alpha  occ. eigenvalues --   -0.88245  -0.87268  -0.87069  -0.85493  -0.84691
 Alpha  occ. eigenvalues --   -0.83269  -0.81549  -0.80153  -0.79806  -0.78074
 Alpha  occ. eigenvalues --   -0.77039  -0.76665  -0.76535  -0.75895  -0.75753
 Alpha  occ. eigenvalues --   -0.75019  -0.74696  -0.73766  -0.72505  -0.70922
 Alpha  occ. eigenvalues --   -0.68829  -0.67513  -0.66105  -0.64183  -0.63847
 Alpha  occ. eigenvalues --   -0.63771  -0.63095  -0.62527  -0.61869  -0.61001
 Alpha  occ. eigenvalues --   -0.60258  -0.58494  -0.58206  -0.57482  -0.56455
 Alpha  occ. eigenvalues --   -0.55922  -0.55491  -0.54836  -0.53897  -0.53666
 Alpha  occ. eigenvalues --   -0.53068  -0.52562  -0.52062  -0.51874  -0.50711
 Alpha  occ. eigenvalues --   -0.50369  -0.50281  -0.50102  -0.49739  -0.49600
 Alpha  occ. eigenvalues --   -0.49261  -0.48550  -0.48523  -0.48415  -0.48055
 Alpha  occ. eigenvalues --   -0.47861  -0.47128  -0.46883  -0.46359  -0.46172
 Alpha  occ. eigenvalues --   -0.45730  -0.45624  -0.45538  -0.45392  -0.45228
 Alpha  occ. eigenvalues --   -0.44735  -0.44654  -0.44162  -0.43658  -0.43551
 Alpha  occ. eigenvalues --   -0.43076  -0.42439  -0.42331  -0.42011  -0.41784
 Alpha  occ. eigenvalues --   -0.41617  -0.41188  -0.40848  -0.40791  -0.40276
 Alpha  occ. eigenvalues --   -0.40173  -0.40128  -0.40037  -0.39650  -0.39322
 Alpha  occ. eigenvalues --   -0.39180  -0.39137  -0.38234  -0.37867  -0.37659
 Alpha  occ. eigenvalues --   -0.37249  -0.37047  -0.36530  -0.36090  -0.35873
 Alpha  occ. eigenvalues --   -0.35173  -0.34490  -0.34040  -0.32460  -0.31938
 Alpha  occ. eigenvalues --   -0.31571  -0.30112  -0.28303  -0.25771  -0.23275
 Alpha  occ. eigenvalues --   -0.18146
 Alpha virt. eigenvalues --   -0.07420  -0.01290   0.01802   0.05288   0.07758
 Alpha virt. eigenvalues --    0.09376   0.09568   0.10121   0.11115   0.11781
 Alpha virt. eigenvalues --    0.12274   0.12906   0.13602   0.13704   0.13742

 Mulliken charges:
               1
     1  O   -0.553020
     2  O   -0.561018
     3  C    0.010414
     4  C   -0.002672
     5  C   -0.184095
     6  C   -0.185371
     7  C    0.173191
     8  C    0.154583
     9  C    0.070016
    10  C    0.090874
    11  C   -0.237231
    12  C   -0.245498
    13  C    0.059743
    14  C    0.069388
    15  C   -0.302471
    16  C   -0.310100
    17  C   -0.309949
    18  C   -0.309689
    19  C   -0.126565
    20  C   -0.172620
    21  C   -0.345803
    22  C   -0.372035
    23  C   -0.130558
    24  C   -0.076633
    25  C    0.075640
    26  C    0.069304
    27  C   -0.355879
    28  C   -0.334202
    29  C   -0.109486
    30  C   -0.114654
    31  C   -0.088216
    32  C   -0.104994
    33  C   -0.100324
    34  C   -0.091208
    35  C    0.112781
    36  C    0.058794
    37  C   -0.307368
    38  C   -0.334095
    39  C   -0.130500
    40  C   -0.105727
    41  C   -0.093841
    42  C   -0.085306
    43  H    0.085329
    44  H    0.066439
    45  H    0.086259
    46  H    0.116553
    47  H    0.059200
    48  H    0.092794
    49  H    0.117054
    50  H    0.091340
    51  H    0.099960
    52  H    0.101397
    53  H    0.093640
    54  H    0.109870
    55  H    0.100554
    56  H    0.108859
    57  H    0.097862
    58  H    0.111643
    59  H    0.090033
    60  H    0.085948
    61  H    0.117548
    62  H    0.097936
    63  H    0.100320
    64  H    0.105192
    65  H    0.080886
    66  H    0.063055
    67  H    0.122555
    68  H    0.103839
    69  H    0.105336
    70  H    0.102747
    71  H    0.118909
    72  H    0.131539
    73  H    0.309249
    74  H    0.304280
    75  H    0.070739
    76  H    0.081304
    77  H    0.108572
    78  H    0.120338
    79  H    0.120411
    80  H    0.106711
    81  H    0.119095
    82  H    0.114650
    83  H    0.080973
    84  H    0.074921
    85  H    0.082930
    86  H    0.078359
    87  H    0.087371
    88  H    0.084056
    89  H    0.072570
    90  H    0.111190
    91  H    0.065893
    92  H    0.133499
    93  H    0.123752
    94  H    0.106140
    95  H    0.066334
    96  H    0.082957
    97  H    0.080236
    98  H    0.085273
 Sum of Mulliken charges =  -0.00000

 Dipole moment (field-independent basis, Debye):
    X=             -1.4618    Y=             -2.4671    Z=              1.2072  Tot=              3.1114
 Quadrupole moment (field-independent basis, Debye-Ang):
   XX=           -282.1775   YY=           -248.0676   ZZ=           -262.8280
   XY=              6.1938   XZ=             -5.5267   YZ=             -0.5511

 Normal termination of Gaussian 16 at Thu Jul 18 03:13:52 2019.
