 Gaussian 16, Revision A.03,
 Gaussian 16:  ES64L-G16RevA.03 25-Dec-2016

 -------------------------------------
 # td=(NStates=1) CAM-B3LYP/6-31G(d,p)
 -------------------------------------

 --
 TD
 --
 Symbolic Z-matrix:
 Charge =  0 Multiplicity = 1

                         Standard orientation:
 ---------------------------------------------------------------------
 Center     Atomic      Atomic             Coordinates (Angstroms)
 Number     Number       Type             X           Y           Z
 ---------------------------------------------------------------------
      1          8           0       14.735379   -2.271428   -0.105168
      2          8           0      -14.956220    1.527183    1.137913
      3          6           0       11.196515   -1.575633    0.909196
      4          6           0      -12.324546   -1.183469    0.608400
      5          6           0       12.696308   -2.018631    0.964556
      6          6           0      -13.739558   -0.511497    0.655147
      7          6           0       13.363407   -1.994775   -0.368007
      8          6           0      -13.713364    0.918926    1.010365
      9          6           0       10.943730   -0.398162    0.118462
     10          6           0      -11.225834   -0.184654   -0.130395
     11          6           0       13.296682   -0.515795   -0.865616
     12          6           0      -12.949212    1.619112   -0.155906
     13          6           0       11.910743    0.131287   -0.799051
     14          6           0      -11.625795    1.030053   -0.477172
     15          6           0       10.617839   -1.507883    2.334327
     16          6           0       10.465623   -2.826929    0.197653
     17          6           0      -11.881164   -1.601472    2.001806
     18          6           0      -12.564350   -2.616942   -0.131563
     19          6           0        9.700647    0.309317    0.317019
     20          6           0      -10.075757   -0.943060   -0.540505
     21          6           0       11.719008    1.178808   -1.723240
     22          6           0      -10.735786    1.890992   -1.244428
     23          6           0        9.427869    1.627647    0.199699
     24          6           0       -8.735412   -0.391052   -0.379106
     25          6           0        8.154816    2.257807    0.290297
     26          6           0       -7.533455   -1.126897   -0.598693
     27          6           0        8.124666    3.617995    0.700477
     28          6           0       -7.680548   -2.578668   -0.953990
     29          6           0        6.951706    1.461094    0.035643
     30          6           0       -6.376534   -0.411097   -0.400042
     31          6           0        5.667662    2.069593    0.167004
     32          6           0       -5.013933   -0.818065   -0.680139
     33          6           0        4.554253    1.405303   -0.106530
     34          6           0       -3.949018    0.065683   -0.386956
     35          6           0        3.173054    1.878276   -0.019036
     36          6           0       -2.609532   -0.354120   -0.683790
     37          6           0        2.794309    3.275364    0.619101
     38          6           0       -2.309429   -1.841611   -1.152857
     39          6           0        2.170693    0.995830   -0.283065
     40          6           0       -1.590115    0.588330   -0.437755
     41          6           0        0.736819    1.225895   -0.119177
     42          6           0       -0.246383    0.291452   -0.493023
     43          1           0       12.918388   -1.272780    1.769681
     44          1           0       12.677410   -2.792777    1.455051
     45          1           0      -14.440516   -1.142844    1.450164
     46          1           0      -14.050787   -0.551226   -0.276729
     47          1           0       13.011612   -2.836998   -1.132325
     48          1           0      -12.940891    0.970011    1.932356
     49          1           0       14.072055   -0.032263   -0.055537
     50          1           0       13.651285   -0.708697   -1.820086
     51          1           0      -13.638196    1.629934   -1.053509
     52          1           0      -12.721523    2.628469    0.091284
     53          1           0       11.015379   -2.338214    3.038946
     54          1           0        9.562258   -1.524526    2.381524
     55          1           0       11.330664   -0.677929    2.695089
     56          1           0       10.866884   -2.741463   -0.992856
     57          1           0       10.907588   -3.923891    0.686472
     58          1           0        9.365748   -2.917857    0.608045
     59          1           0      -11.759648   -0.804899    2.653048
     60          1           0      -10.946698   -2.019663    1.896967
     61          1           0      -12.483597   -2.372881    2.635627
     62          1           0      -13.272749   -3.301537    0.392048
     63          1           0      -11.585689   -3.238894   -0.275818
     64          1           0      -12.906486   -2.309853   -1.271526
     65          1           0        8.811285   -0.209862    0.649042
     66          1           0      -10.076075   -2.133753   -0.765246
     67          1           0       10.818606    1.711994   -1.723386
     68          1           0       12.419998    2.002631   -1.469225
     69          1           0       11.947095    0.700192   -2.667795
     70          1           0      -11.149888    2.530282   -1.851903
     71          1           0      -10.032173    1.084403   -1.724946
     72          1           0      -10.270507    2.424580   -0.636383
     73          1           0       14.788966   -3.232556   -0.085891
     74          1           0      -15.276078    1.307553    1.934755
     75          1           0       10.229981    2.146402    0.056115
     76          1           0       -8.564322    0.533241    0.241899
     77          1           0        9.084399    3.952623    1.305310
     78          1           0        8.033477    4.552108   -0.141513
     79          1           0        7.354384    3.825122    1.621634
     80          1           0       -7.816140   -3.032170   -0.076709
     81          1           0       -8.615074   -2.807102   -1.891533
     82          1           0       -6.776041   -2.970964   -1.340621
     83          1           0        6.921048    0.508542   -0.250945
     84          1           0       -6.458582    0.622865    0.056486
     85          1           0        5.613088    3.209990    0.304853
     86          1           0       -5.120772   -1.876166   -1.073893
     87          1           0        4.696413    0.304967   -0.329343
     88          1           0       -4.292712    0.974241   -0.148691
     89          1           0        2.976434    3.347441    1.626301
     90          1           0        1.759883    3.631634    0.357692
     91          1           0        3.409997    3.938571    0.151387
     92          1           0       -2.962636   -2.487972   -0.582011
     93          1           0       -2.684451   -1.913862   -2.125513
     94          1           0       -1.201051   -1.910790   -1.012696
     95          1           0        2.320339   -0.174137   -0.550239
     96          1           0       -1.923978    1.556334   -0.256771
     97          1           0        0.317201    2.232020    0.134191
     98          1           0        0.132365   -0.743784   -0.798936
 ---------------------------------------------------------------------

 SCF Done:  E(RCAM-B3LYP) =  -1706.83775890     A.U. after   15 cycles

 Excitation energies and oscillator strengths:

 Excited State   1:      Singlet-A      2.2038 eV  562.58 nm  f=3.8975  <S**2>=0.000
     155 ->158         0.18690
     156 ->157         0.67809
 This state for optimization and/or second-order correction.
 Total Energy, E(TD-HF/TD-DFT) =  -1706.75676906
 Copying the excited state density for this state as the 1-particle RhoCI density.

 The electronic state is 1-A.
 Alpha  occ. eigenvalues --  -19.21297 -19.21001 -10.31652 -10.30735 -10.28366
 Alpha  occ. eigenvalues --  -10.28275 -10.27937 -10.27922 -10.27745 -10.27562
 Alpha  occ. eigenvalues --  -10.27471 -10.27317 -10.27255 -10.27215 -10.27152
 Alpha  occ. eigenvalues --  -10.26949 -10.26848 -10.26786 -10.26786 -10.26754
 Alpha  occ. eigenvalues --  -10.26573 -10.26573 -10.26462 -10.26228 -10.26118
 Alpha  occ. eigenvalues --  -10.25993 -10.25828 -10.25811 -10.25693 -10.25657
 Alpha  occ. eigenvalues --  -10.25649 -10.25620 -10.25463 -10.25080 -10.24918
 Alpha  occ. eigenvalues --  -10.24867 -10.24248 -10.24023 -10.23741 -10.22999
 Alpha  occ. eigenvalues --  -10.22796 -10.21477  -1.12436  -1.09949  -0.94045
 Alpha  occ. eigenvalues --   -0.93187  -0.91764  -0.91392  -0.90569  -0.89595
 Alpha  occ. eigenvalues --   -0.87911  -0.87212  -0.86900  -0.85443  -0.84520
 Alpha  occ. eigenvalues --   -0.83644  -0.81903  -0.80645  -0.80035  -0.78254
 Alpha  occ. eigenvalues --   -0.77425  -0.77400  -0.76458  -0.76082  -0.75578
 Alpha  occ. eigenvalues --   -0.75507  -0.74046  -0.73339  -0.73042  -0.70479
 Alpha  occ. eigenvalues --   -0.68676  -0.67247  -0.65704  -0.65073  -0.63783
 Alpha  occ. eigenvalues --   -0.63359  -0.62092  -0.61345  -0.61249  -0.60762
 Alpha  occ. eigenvalues --   -0.59736  -0.59258  -0.58776  -0.57744  -0.56540
 Alpha  occ. eigenvalues --   -0.55833  -0.55240  -0.54664  -0.54523  -0.53808
 Alpha  occ. eigenvalues --   -0.53348  -0.52812  -0.51785  -0.51395  -0.50986
 Alpha  occ. eigenvalues --   -0.50773  -0.50552  -0.50022  -0.49721  -0.49453
 Alpha  occ. eigenvalues --   -0.49178  -0.48827  -0.48400  -0.48391  -0.48136
 Alpha  occ. eigenvalues --   -0.47959  -0.47599  -0.47249  -0.47198  -0.46839
 Alpha  occ. eigenvalues --   -0.46558  -0.45883  -0.45624  -0.45088  -0.44921
 Alpha  occ. eigenvalues --   -0.44721  -0.44282  -0.43918  -0.43844  -0.43241
 Alpha  occ. eigenvalues --   -0.43054  -0.42871  -0.42571  -0.42305  -0.41907
 Alpha  occ. eigenvalues --   -0.41660  -0.41215  -0.41042  -0.40891  -0.40757
 Alpha  occ. eigenvalues --   -0.40391  -0.40099  -0.39935  -0.39674  -0.39319
 Alpha  occ. eigenvalues --   -0.39019  -0.38489  -0.38387  -0.38030  -0.37596
 Alpha  occ. eigenvalues --   -0.37370  -0.36819  -0.36726  -0.36083  -0.35435
 Alpha  occ. eigenvalues --   -0.35146  -0.34133  -0.33512  -0.32685  -0.31773
 Alpha  occ. eigenvalues --   -0.31545  -0.29887  -0.27656  -0.25355  -0.22432
 Alpha  occ. eigenvalues --   -0.19258
 Alpha virt. eigenvalues --   -0.05505  -0.01784   0.01960   0.05157   0.07279
 Alpha virt. eigenvalues --    0.09509   0.10923   0.11309   0.11340   0.11763
 Alpha virt. eigenvalues --    0.12316   0.12781   0.13106   0.13755   0.13939

 Mulliken charges:
               1
     1  O   -0.550424
     2  O   -0.524543
     3  C   -0.087110
     4  C   -0.033947
     5  C   -0.104201
     6  C   -0.133723
     7  C    0.121917
     8  C    0.153629
     9  C    0.125521
    10  C    0.063541
    11  C   -0.210563
    12  C   -0.229095
    13  C    0.038193
    14  C    0.051010
    15  C   -0.308385
    16  C   -0.267678
    17  C   -0.290120
    18  C   -0.294007
    19  C   -0.102576
    20  C   -0.170663
    21  C   -0.358706
    22  C   -0.346471
    23  C   -0.094698
    24  C   -0.111783
    25  C    0.103685
    26  C    0.107476
    27  C   -0.387173
    28  C   -0.359142
    29  C   -0.100539
    30  C   -0.142230
    31  C   -0.073554
    32  C   -0.082514
    33  C   -0.113560
    34  C   -0.102114
    35  C    0.066638
    36  C    0.054683
    37  C   -0.362541
    38  C   -0.347310
    39  C   -0.117196
    40  C   -0.096730
    41  C   -0.097133
    42  C   -0.086596
    43  H    0.082452
    44  H    0.076361
    45  H    0.051200
    46  H    0.100835
    47  H    0.074525
    48  H    0.051742
    49  H    0.122957
    50  H    0.109209
    51  H    0.117349
    52  H    0.106971
    53  H    0.089498
    54  H    0.116897
    55  H    0.101288
    56  H    0.084281
    57  H    0.051443
    58  H    0.092709
    59  H    0.099371
    60  H    0.106470
    61  H    0.080387
    62  H    0.109346
    63  H    0.082706
    64  H    0.077052
    65  H    0.068688
    66  H    0.095761
    67  H    0.124554
    68  H    0.116440
    69  H    0.116192
    70  H    0.103180
    71  H    0.112271
    72  H    0.127497
    73  H    0.304724
    74  H    0.295801
    75  H    0.063454
    76  H    0.094799
    77  H    0.105581
    78  H    0.098996
    79  H    0.108474
    80  H    0.152223
    81  H    0.085386
    82  H    0.109106
    83  H    0.080724
    84  H    0.072670
    85  H    0.083605
    86  H    0.076672
    87  H    0.077643
    88  H    0.088251
    89  H    0.137352
    90  H    0.107831
    91  H    0.123410
    92  H    0.123747
    93  H    0.137856
    94  H    0.106494
    95  H    0.072183
    96  H    0.083576
    97  H    0.078228
    98  H    0.082313
 Sum of Mulliken charges =  -0.00000

 Dipole moment (field-independent basis, Debye):
    X=              0.8328    Y=             -1.2811    Z=              1.0888  Tot=              1.8762
 Quadrupole moment (field-independent basis, Debye-Ang):
   XX=           -287.3914   YY=           -239.6131   ZZ=           -260.6139
   XY=             -0.6177   XZ=            -18.8057   YZ=              4.1823

 Normal termination of Gaussian 16 at Thu Jul 11 08:43:01 2019.
