 Gaussian 16, Revision A.03,
 Gaussian 16:  ES64L-G16RevA.03 25-Dec-2016

 -------------------------------------
 # td=(NStates=1) CAM-B3LYP/6-31G(d,p)
 -------------------------------------

 --
 TD
 --
 Symbolic Z-matrix:
 Charge =  0 Multiplicity = 1

                         Standard orientation:
 ---------------------------------------------------------------------
 Center     Atomic      Atomic             Coordinates (Angstroms)
 Number     Number       Type             X           Y           Z
 ---------------------------------------------------------------------
      1          8           0       14.717642   -2.166091   -0.116990
      2          8           0      -14.753059    1.766890    1.093153
      3          6           0       11.100418   -1.565730    0.944761
      4          6           0      -12.429631   -1.021628    0.687739
      5          6           0       12.616432   -1.972991    1.130752
      6          6           0      -13.657448   -0.245248    0.655677
      7          6           0       13.375585   -1.848856   -0.225971
      8          6           0      -13.502713    1.160797    0.967765
      9          6           0       10.925015   -0.299261    0.085240
     10          6           0      -11.344976   -0.267745   -0.118458
     11          6           0       13.354049   -0.579494   -0.874256
     12          6           0      -12.738473    1.799188   -0.130262
     13          6           0       11.930813    0.114503   -0.755125
     14          6           0      -11.514166    0.998755   -0.534278
     15          6           0       10.559279   -1.374786    2.453206
     16          6           0       10.307654   -2.798564    0.211801
     17          6           0      -11.956191   -1.342860    2.088401
     18          6           0      -12.586869   -2.388645   -0.000729
     19          6           0        9.597116    0.245487    0.145635
     20          6           0      -10.021657   -1.015957   -0.380123
     21          6           0       11.791219    1.290596   -1.703896
     22          6           0      -10.587711    1.851354   -1.318516
     23          6           0        9.401817    1.598532    0.311748
     24          6           0       -8.823231   -0.501508   -0.373175
     25          6           0        8.064949    2.283262    0.309897
     26          6           0       -7.531471   -1.218470   -0.611879
     27          6           0        8.095015    3.715704    0.807288
     28          6           0       -7.643618   -2.713111   -1.030570
     29          6           0        6.886527    1.586562   -0.047823
     30          6           0       -6.351831   -0.632166   -0.392261
     31          6           0        5.590544    2.180001   -0.019851
     32          6           0       -5.085947   -1.163895   -0.622762
     33          6           0        4.403657    1.445939   -0.219623
     34          6           0       -3.965964   -0.365182   -0.443486
     35          6           0        3.072390    1.872228   -0.088130
     36          6           0       -2.570733   -0.688636   -0.648562
     37          6           0        2.874866    3.246924    0.344391
     38          6           0       -2.201123   -2.120959   -1.092609
     39          6           0        2.148409    0.963875   -0.249303
     40          6           0       -1.634063    0.270532   -0.368732
     41          6           0        0.680457    1.147021   -0.159281
     42          6           0       -0.192553    0.138801   -0.545167
     43          1           0       13.064158   -1.248958    1.789673
     44          1           0       12.676795   -3.001066    1.479480
     45          1           0      -14.542285   -0.833980    1.168171
     46          1           0      -14.197560    0.070945   -0.414605
     47          1           0       13.019045   -2.748365   -0.838010
     48          1           0      -13.058693    1.324297    2.113799
     49          1           0       14.088980    0.118698   -0.237265
     50          1           0       13.698860   -0.749651   -1.895862
     51          1           0      -13.149640    1.712661   -1.193118
     52          1           0      -12.344603    2.845334    0.112516
     53          1           0       10.735186   -2.126213    3.157913
     54          1           0        9.516167   -1.282951    2.508539
     55          1           0       10.989417   -0.506247    2.732602
     56          1           0       10.972968   -2.928263   -0.651725
     57          1           0       10.371448   -3.943535    0.556096
     58          1           0        9.213147   -2.603500   -0.191063
     59          1           0      -11.942528   -0.667595    2.812208
     60          1           0      -10.813021   -1.569025    1.895125
     61          1           0      -12.646313   -2.321825    2.572585
     62          1           0      -13.411433   -2.932701    0.399085
     63          1           0      -11.784312   -3.141571    0.210851
     64          1           0      -12.697353   -2.420746   -1.112318
     65          1           0        8.729684   -0.474444    0.413855
     66          1           0      -10.025958   -2.113166   -0.579162
     67          1           0       10.577057    1.515581   -1.704994
     68          1           0       12.238141    2.090699   -1.432495
     69          1           0       12.127226    1.066424   -2.539887
     70          1           0      -11.047516    2.570886   -1.799145
     71          1           0       -9.774901    1.373420   -1.999544
     72          1           0      -10.006295    2.410343   -0.695321
     73          1           0       15.045793   -2.994638    0.263693
     74          1           0      -15.237782    1.074191    1.777548
     75          1           0       10.409072    2.212132    0.223359
     76          1           0       -8.789289    0.592390   -0.296465
     77          1           0        8.983564    4.359264    0.644028
     78          1           0        7.379199    4.287163    0.258923
     79          1           0        7.710133    3.719804    1.764218
     80          1           0       -8.159790   -3.314890   -0.416728
     81          1           0       -8.318735   -2.685874   -1.982868
     82          1           0       -6.634990   -3.147676   -0.971105
     83          1           0        6.939436    0.561995   -0.182961
     84          1           0       -6.302619    0.421178   -0.036809
     85          1           0        5.438183    3.297348    0.087241
     86          1           0       -5.083550   -2.189406   -0.940759
     87          1           0        4.510421    0.348249   -0.273004
     88          1           0       -4.049563    0.583748    0.093906
     89          1           0        3.382286    3.445731    1.346823
     90          1           0        1.874257    3.417172    0.353805
     91          1           0        3.245857    4.043550   -0.368389
     92          1           0       -2.792810   -2.875951   -0.602841
     93          1           0       -2.364152   -2.350098   -2.170781
     94          1           0       -1.186613   -2.247894   -1.082211
     95          1           0        2.611919   -0.085609   -0.451071
     96          1           0       -2.070373    1.178987   -0.118300
     97          1           0        0.454082    2.168829    0.216706
     98          1           0        0.098489   -0.817796   -0.720068
 ---------------------------------------------------------------------

 SCF Done:  E(RCAM-B3LYP) =  -1706.96922936     A.U. after   14 cycles

 Excitation energies and oscillator strengths:

 Excited State   1:      Singlet-A      2.5984 eV  477.16 nm  f=3.5746  <S**2>=0.000
     155 ->158         0.19149
     156 ->157         0.67510
 This state for optimization and/or second-order correction.
 Total Energy, E(TD-HF/TD-DFT) =  -1706.87374146
 Copying the excited state density for this state as the 1-particle RhoCI density.

 The electronic state is 1-A.
 Alpha  occ. eigenvalues --  -19.21624 -19.19699 -10.31089 -10.29816 -10.28492
 Alpha  occ. eigenvalues --  -10.28205 -10.27758 -10.27520 -10.27356 -10.27347
 Alpha  occ. eigenvalues --  -10.27173 -10.27132 -10.26733 -10.26633 -10.26553
 Alpha  occ. eigenvalues --  -10.26508 -10.26502 -10.26498 -10.26346 -10.26254
 Alpha  occ. eigenvalues --  -10.26161 -10.26107 -10.26087 -10.26046 -10.26036
 Alpha  occ. eigenvalues --  -10.25979 -10.25833 -10.25724 -10.25692 -10.25669
 Alpha  occ. eigenvalues --  -10.25622 -10.25607 -10.25299 -10.25253 -10.25229
 Alpha  occ. eigenvalues --  -10.24981 -10.24720 -10.24687 -10.24514 -10.23923
 Alpha  occ. eigenvalues --  -10.22482 -10.22268  -1.09452  -1.09231  -0.94628
 Alpha  occ. eigenvalues --   -0.92812  -0.92461  -0.91732  -0.90172  -0.89390
 Alpha  occ. eigenvalues --   -0.88452  -0.86848  -0.85655  -0.85603  -0.84837
 Alpha  occ. eigenvalues --   -0.83064  -0.82242  -0.80612  -0.80446  -0.78589
 Alpha  occ. eigenvalues --   -0.77364  -0.77162  -0.76931  -0.76350  -0.76204
 Alpha  occ. eigenvalues --   -0.75894  -0.75585  -0.74585  -0.73997  -0.70918
 Alpha  occ. eigenvalues --   -0.68796  -0.67075  -0.65683  -0.64868  -0.64747
 Alpha  occ. eigenvalues --   -0.64054  -0.62195  -0.61998  -0.61132  -0.59901
 Alpha  occ. eigenvalues --   -0.59281  -0.58261  -0.57830  -0.57705  -0.56770
 Alpha  occ. eigenvalues --   -0.55724  -0.55224  -0.55138  -0.54723  -0.54150
 Alpha  occ. eigenvalues --   -0.53715  -0.52855  -0.52554  -0.51272  -0.51103
 Alpha  occ. eigenvalues --   -0.50682  -0.50434  -0.49973  -0.49721  -0.49577
 Alpha  occ. eigenvalues --   -0.49317  -0.48835  -0.48525  -0.48476  -0.48267
 Alpha  occ. eigenvalues --   -0.47840  -0.47363  -0.47019  -0.46677  -0.46424
 Alpha  occ. eigenvalues --   -0.46000  -0.45677  -0.45556  -0.45218  -0.44836
 Alpha  occ. eigenvalues --   -0.44798  -0.44751  -0.43908  -0.43743  -0.43597
 Alpha  occ. eigenvalues --   -0.43504  -0.43310  -0.42854  -0.42818  -0.42099
 Alpha  occ. eigenvalues --   -0.41842  -0.41492  -0.41480  -0.40962  -0.40653
 Alpha  occ. eigenvalues --   -0.40401  -0.40165  -0.39971  -0.39889  -0.39605
 Alpha  occ. eigenvalues --   -0.38958  -0.38836  -0.38749  -0.38246  -0.37873
 Alpha  occ. eigenvalues --   -0.37642  -0.37005  -0.36859  -0.36143  -0.35496
 Alpha  occ. eigenvalues --   -0.35286  -0.35173  -0.34051  -0.32480  -0.31172
 Alpha  occ. eigenvalues --   -0.30285  -0.29964  -0.28171  -0.26714  -0.23349
 Alpha  occ. eigenvalues --   -0.20402
 Alpha virt. eigenvalues --   -0.04500  -0.00881   0.03104   0.06074   0.08179
 Alpha virt. eigenvalues --    0.09722   0.10084   0.11593   0.12209   0.12483
 Alpha virt. eigenvalues --    0.13038   0.13154   0.13317   0.13499   0.13869

 Mulliken charges:
               1
     1  O   -0.586103
     2  O   -0.558317
     3  C   -0.026094
     4  C    0.030072
     5  C   -0.190229
     6  C   -0.209384
     7  C    0.196518
     8  C    0.207825
     9  C    0.063916
    10  C    0.041163
    11  C   -0.196691
    12  C   -0.227877
    13  C    0.012644
    14  C    0.035289
    15  C   -0.308405
    16  C   -0.319652
    17  C   -0.273257
    18  C   -0.309644
    19  C   -0.105370
    20  C   -0.134489
    21  C   -0.338936
    22  C   -0.370030
    23  C   -0.126687
    24  C   -0.078451
    25  C    0.055907
    26  C    0.068485
    27  C   -0.375279
    28  C   -0.367083
    29  C   -0.091553
    30  C   -0.102446
    31  C   -0.100320
    32  C   -0.074327
    33  C   -0.139003
    34  C   -0.142328
    35  C    0.178636
    36  C    0.117392
    37  C   -0.373287
    38  C   -0.372850
    39  C   -0.147007
    40  C   -0.126761
    41  C   -0.098738
    42  C   -0.079102
    43  H    0.099855
    44  H    0.088704
    45  H    0.067120
    46  H    0.084573
    47  H    0.062810
    48  H    0.045615
    49  H    0.110687
    50  H    0.121032
    51  H    0.132346
    52  H    0.110505
    53  H    0.102391
    54  H    0.097396
    55  H    0.111713
    56  H    0.105895
    57  H    0.080587
    58  H    0.092266
    59  H    0.115082
    60  H    0.103589
    61  H    0.055423
    62  H    0.096868
    63  H    0.099016
    64  H    0.103734
    65  H    0.097272
    66  H    0.074212
    67  H    0.097924
    68  H    0.124519
    69  H    0.108248
    70  H    0.108029
    71  H    0.116368
    72  H    0.135384
    73  H    0.302657
    74  H    0.301841
    75  H    0.096557
    76  H    0.073494
    77  H    0.112722
    78  H    0.117776
    79  H    0.141509
    80  H    0.135718
    81  H    0.114275
    82  H    0.100867
    83  H    0.081204
    84  H    0.075909
    85  H    0.081494
    86  H    0.082102
    87  H    0.069221
    88  H    0.083147
    89  H    0.122777
    90  H    0.103027
    91  H    0.114857
    92  H    0.121317
    93  H    0.116070
    94  H    0.112536
    95  H    0.074068
    96  H    0.075705
    97  H    0.094641
    98  H    0.087199
 Sum of Mulliken charges =  -0.00000

 Dipole moment (field-independent basis, Debye):
    X=              0.6943    Y=             -1.4316    Z=              1.1214  Tot=              1.9466
 Quadrupole moment (field-independent basis, Debye-Ang):
   XX=           -272.0542   YY=           -239.8640   ZZ=           -263.1234
   XY=             10.5795   XZ=             -0.5304   YZ=              0.7202

 Normal termination of Gaussian 16 at Thu Jul 18 23:27:34 2019.
