 Gaussian 16, Revision A.03,
 Gaussian 16:  ES64L-G16RevA.03 25-Dec-2016

 -------------------------------------
 # td=(NStates=1) CAM-B3LYP/6-31G(d,p)
 -------------------------------------

 --
 TD
 --
 Symbolic Z-matrix:
 Charge =  0 Multiplicity = 1

                         Standard orientation:
 ---------------------------------------------------------------------
 Center     Atomic      Atomic             Coordinates (Angstroms)
 Number     Number       Type             X           Y           Z
 ---------------------------------------------------------------------
      1          8           0       14.690621   -2.244296   -0.392599
      2          8           0      -14.756186    1.919084    0.872715
      3          6           0       11.144797   -1.606982    0.814016
      4          6           0      -12.313496   -1.014638    0.588241
      5          6           0       12.608103   -1.987817    0.945156
      6          6           0      -13.652863   -0.284436    0.750017
      7          6           0       13.278857   -1.890301   -0.466922
      8          6           0      -13.511787    1.239379    0.812539
      9          6           0       10.909798   -0.279695    0.018268
     10          6           0      -11.320533   -0.225319   -0.263723
     11          6           0       13.164377   -0.479817   -0.956008
     12          6           0      -12.767249    1.775512   -0.412972
     13          6           0       11.870724    0.132833   -0.892752
     14          6           0      -11.526162    1.021706   -0.748742
     15          6           0       10.651632   -1.377150    2.350773
     16          6           0       10.187109   -2.648280    0.234147
     17          6           0      -11.746075   -1.264087    2.039519
     18          6           0      -12.573076   -2.449524    0.073888
     19          6           0        9.668439    0.435925    0.160341
     20          6           0      -10.126889   -0.890738   -0.499874
     21          6           0       11.820116    1.435812   -1.710506
     22          6           0      -10.569719    1.660468   -1.615686
     23          6           0        9.411946    1.718605    0.162086
     24          6           0       -8.802401   -0.432121   -0.422053
     25          6           0        8.108391    2.357592    0.185145
     26          6           0       -7.609293   -1.147625   -0.496246
     27          6           0        8.138055    3.810999    0.483445
     28          6           0       -7.740694   -2.607986   -0.798611
     29          6           0        6.936232    1.636053   -0.007853
     30          6           0       -6.427909   -0.475403   -0.341771
     31          6           0        5.588373    2.157998    0.213364
     32          6           0       -5.091603   -1.012815   -0.531015
     33          6           0        4.573286    1.316625    0.028680
     34          6           0       -3.969520   -0.212359   -0.375649
     35          6           0        3.160002    1.610534    0.307721
     36          6           0       -2.578736   -0.695892   -0.482910
     37          6           0        2.816295    3.023810    0.644016
     38          6           0       -2.331971   -2.121222   -0.933625
     39          6           0        2.158748    0.609542    0.094770
     40          6           0       -1.622245    0.105839   -0.091298
     41          6           0        0.797637    0.811853    0.192965
     42          6           0       -0.150437   -0.135538   -0.164261
     43          1           0       13.459947   -1.450542    1.551520
     44          1           0       12.719041   -3.010411    1.232290
     45          1           0      -14.166470   -0.706377    1.726636
     46          1           0      -14.342416   -0.455938   -0.095506
     47          1           0       12.751089   -2.622957   -1.241252
     48          1           0      -12.723069    1.478515    1.700205
     49          1           0       13.947055   -0.039113   -0.247227
     50          1           0       13.568096   -0.396237   -1.987398
     51          1           0      -13.439676    1.967249   -1.292391
     52          1           0      -12.403626    2.835733   -0.130805
     53          1           0       11.053917   -2.087404    2.969199
     54          1           0        9.576524   -1.162587    2.314645
     55          1           0       11.145098   -0.575284    2.768425
     56          1           0       10.045353   -2.956992   -0.867616
     57          1           0       10.529479   -3.550008    0.620123
     58          1           0        9.206883   -2.309885    0.562231
     59          1           0      -11.542703   -0.206500    2.373954
     60          1           0      -10.926292   -1.884680    1.880932
     61          1           0      -12.665206   -1.696729    2.636943
     62          1           0      -13.062040   -3.281706    0.849625
     63          1           0      -11.643446   -2.946327   -0.132626
     64          1           0      -13.303690   -2.253030   -0.914140
     65          1           0        8.677466   -0.067631    0.675069
     66          1           0      -10.206496   -1.963132   -0.841911
     67          1           0       10.885433    1.675521   -1.966538
     68          1           0       12.121511    2.217927   -1.100882
     69          1           0       12.500721    1.455132   -2.688790
     70          1           0      -11.204902    2.452907   -2.210530
     71          1           0      -10.177236    0.868043   -2.266121
     72          1           0       -9.568363    2.168976   -1.116600
     73          1           0       14.534205   -2.954091    0.273541
     74          1           0      -15.209789    1.428835    1.476434
     75          1           0       10.292159    2.375979    0.182548
     76          1           0       -8.649948    0.667921   -0.357760
     77          1           0        9.191443    3.942135    0.356392
     78          1           0        7.454705    4.299147   -0.130516
     79          1           0        7.775737    4.114638    1.582882
     80          1           0       -8.128479   -3.150007   -0.096647
     81          1           0       -8.156024   -2.901735   -1.798427
     82          1           0       -6.695807   -3.283763   -0.782731
     83          1           0        7.081992    0.602052   -0.311711
     84          1           0       -6.642528    0.707577   -0.185876
     85          1           0        5.568537    3.079468    0.806860
     86          1           0       -5.098456   -2.044842   -1.000617
     87          1           0        4.705900    0.313944   -0.278541
     88          1           0       -4.039679    0.709294   -0.194454
     89          1           0        3.158575    3.102470    1.829177
     90          1           0        1.663015    3.083500    0.619254
     91          1           0        3.255731    3.600644   -0.132332
     92          1           0       -2.445865   -2.897466   -0.098626
     93          1           0       -3.144350   -2.585400   -1.692513
     94          1           0       -1.219096   -2.258788   -1.503008
     95          1           0        2.461155   -0.368177   -0.513104
     96          1           0       -1.890565    1.073460    0.196515
     97          1           0        0.488647    1.838618    0.443258
     98          1           0        0.039763   -1.118292   -0.612115
 ---------------------------------------------------------------------

 SCF Done:  E(RCAM-B3LYP) =  -1706.97568575     A.U. after   14 cycles

 Excitation energies and oscillator strengths:

 Excited State   1:      Singlet-A      2.4892 eV  498.10 nm  f=3.6688  <S**2>=0.000
     155 ->158         0.20129
     156 ->157         0.66984
 This state for optimization and/or second-order correction.
 Total Energy, E(TD-HF/TD-DFT) =  -1706.88421096
 Copying the excited state density for this state as the 1-particle RhoCI density.

 The electronic state is 1-A.
 Alpha  occ. eigenvalues --  -19.21760 -19.21490 -10.31532 -10.30917 -10.28937
 Alpha  occ. eigenvalues --  -10.28634 -10.28019 -10.27587 -10.27451 -10.27354
 Alpha  occ. eigenvalues --  -10.27332 -10.27242 -10.27164 -10.27103 -10.27079
 Alpha  occ. eigenvalues --  -10.27021 -10.26923 -10.26857 -10.26782 -10.26678
 Alpha  occ. eigenvalues --  -10.26623 -10.26567 -10.26557 -10.26334 -10.26158
 Alpha  occ. eigenvalues --  -10.26053 -10.26032 -10.26031 -10.25986 -10.25861
 Alpha  occ. eigenvalues --  -10.25806 -10.25734 -10.25644 -10.25506 -10.25457
 Alpha  occ. eigenvalues --  -10.25320 -10.25212 -10.25078 -10.24951 -10.24873
 Alpha  occ. eigenvalues --  -10.24489 -10.23816  -1.11658  -1.09203  -0.94336
 Alpha  occ. eigenvalues --   -0.93883  -0.92206  -0.91796  -0.90996  -0.90371
 Alpha  occ. eigenvalues --   -0.87768  -0.87687  -0.87321  -0.85685  -0.85001
 Alpha  occ. eigenvalues --   -0.83679  -0.82137  -0.80730  -0.79577  -0.77782
 Alpha  occ. eigenvalues --   -0.77367  -0.76967  -0.76848  -0.76412  -0.75753
 Alpha  occ. eigenvalues --   -0.75622  -0.75425  -0.74502  -0.73571  -0.70612
 Alpha  occ. eigenvalues --   -0.68923  -0.67458  -0.65897  -0.64906  -0.63946
 Alpha  occ. eigenvalues --   -0.63463  -0.62695  -0.62036  -0.60654  -0.59940
 Alpha  occ. eigenvalues --   -0.59450  -0.58518  -0.58148  -0.57566  -0.56412
 Alpha  occ. eigenvalues --   -0.56109  -0.55676  -0.55548  -0.54160  -0.53869
 Alpha  occ. eigenvalues --   -0.53646  -0.52874  -0.52370  -0.52022  -0.50796
 Alpha  occ. eigenvalues --   -0.50266  -0.50127  -0.49998  -0.49878  -0.49667
 Alpha  occ. eigenvalues --   -0.49336  -0.49083  -0.48538  -0.48101  -0.47742
 Alpha  occ. eigenvalues --   -0.47657  -0.47281  -0.47089  -0.46913  -0.46554
 Alpha  occ. eigenvalues --   -0.46341  -0.46056  -0.45883  -0.45463  -0.45412
 Alpha  occ. eigenvalues --   -0.45372  -0.44683  -0.44664  -0.44090  -0.43766
 Alpha  occ. eigenvalues --   -0.43066  -0.42806  -0.42674  -0.42633  -0.42151
 Alpha  occ. eigenvalues --   -0.41765  -0.41714  -0.41344  -0.41169  -0.40948
 Alpha  occ. eigenvalues --   -0.40499  -0.40355  -0.39909  -0.39686  -0.39579
 Alpha  occ. eigenvalues --   -0.39524  -0.39128  -0.39108  -0.38462  -0.38349
 Alpha  occ. eigenvalues --   -0.38043  -0.37592  -0.37414  -0.37049  -0.35649
 Alpha  occ. eigenvalues --   -0.35402  -0.34903  -0.34612  -0.32515  -0.32158
 Alpha  occ. eigenvalues --   -0.32003  -0.29684  -0.28378  -0.25698  -0.23161
 Alpha  occ. eigenvalues --   -0.20509
 Alpha virt. eigenvalues --   -0.05078  -0.01747   0.01349   0.05221   0.07309
 Alpha virt. eigenvalues --    0.09167   0.10741   0.11082   0.11479   0.11907
 Alpha virt. eigenvalues --    0.12040   0.12906   0.13071   0.13761   0.13872

 Mulliken charges:
               1
     1  O   -0.550309
     2  O   -0.530332
     3  C   -0.038858
     4  C   -0.041813
     5  C   -0.228169
     6  C   -0.193193
     7  C    0.124641
     8  C    0.163938
     9  C    0.076075
    10  C    0.118749
    11  C   -0.202089
    12  C   -0.233105
    13  C    0.053090
    14  C    0.090388
    15  C   -0.304317
    16  C   -0.285362
    17  C   -0.270784
    18  C   -0.281635
    19  C   -0.127575
    20  C   -0.201594
    21  C   -0.361379
    22  C   -0.369915
    23  C   -0.110180
    24  C   -0.093011
    25  C    0.079241
    26  C    0.155417
    27  C   -0.359277
    28  C   -0.379059
    29  C   -0.130984
    30  C   -0.139171
    31  C   -0.095731
    32  C   -0.102891
    33  C   -0.080276
    34  C   -0.070344
    35  C    0.055762
    36  C    0.138656
    37  C   -0.345899
    38  C   -0.370923
    39  C   -0.117486
    40  C   -0.126581
    41  C   -0.075377
    42  C   -0.094461
    43  H    0.107008
    44  H    0.090073
    45  H    0.067634
    46  H    0.099007
    47  H    0.068506
    48  H    0.054987
    49  H    0.114799
    50  H    0.106323
    51  H    0.116168
    52  H    0.106890
    53  H    0.105589
    54  H    0.101905
    55  H    0.114074
    56  H    0.099860
    57  H    0.105138
    58  H    0.110517
    59  H    0.098152
    60  H    0.112795
    61  H    0.086920
    62  H    0.079234
    63  H    0.108497
    64  H    0.076533
    65  H    0.069212
    66  H    0.085577
    67  H    0.131257
    68  H    0.133109
    69  H    0.087412
    70  H    0.089598
    71  H    0.133999
    72  H    0.098358
    73  H    0.305756
    74  H    0.298390
    75  H    0.080066
    76  H    0.065178
    77  H    0.109526
    78  H    0.130982
    79  H    0.100195
    80  H    0.141867
    81  H    0.124731
    82  H    0.065621
    83  H    0.081294
    84  H    0.072766
    85  H    0.100799
    86  H    0.095065
    87  H    0.084449
    88  H    0.063555
    89  H    0.108673
    90  H    0.096171
    91  H    0.139943
    92  H    0.127151
    93  H    0.098369
    94  H    0.089944
    95  H    0.079065
    96  H    0.073950
    97  H    0.085172
    98  H    0.078314
 Sum of Mulliken charges =  -0.00000

 Dipole moment (field-independent basis, Debye):
    X=             -0.0153    Y=             -1.4838    Z=              1.3422  Tot=              2.0008
 Quadrupole moment (field-independent basis, Debye-Ang):
   XX=           -298.4927   YY=           -247.6161   ZZ=           -263.1984
   XY=             19.0542   XZ=             10.7995   YZ=             -0.3997

 Normal termination of Gaussian 16 at Wed Jul 10 07:38:02 2019.
