 Gaussian 16, Revision A.03,
 Gaussian 16:  ES64L-G16RevA.03 25-Dec-2016

 -------------------------------------
 # td=(NStates=1) CAM-B3LYP/6-31G(d,p)
 -------------------------------------

 --
 TD
 --
 Symbolic Z-matrix:
 Charge =  0 Multiplicity = 1

                         Standard orientation:
 ---------------------------------------------------------------------
 Center     Atomic      Atomic             Coordinates (Angstroms)
 Number     Number       Type             X           Y           Z
 ---------------------------------------------------------------------
      1          8           0       14.639863   -2.301196   -0.141983
      2          8           0      -14.676858    1.913974    1.044986
      3          6           0       11.013288   -1.463788    0.966944
      4          6           0      -12.324403   -1.024464    0.632246
      5          6           0       12.472066   -1.846767    1.096933
      6          6           0      -13.523941   -0.288598    0.619150
      7          6           0       13.115450   -1.978780   -0.184417
      8          6           0      -13.412864    1.242152    0.860347
      9          6           0       10.875104   -0.284262    0.068695
     10          6           0      -11.225296   -0.287960   -0.165816
     11          6           0       13.246945   -0.592003   -0.906132
     12          6           0      -12.645559    1.824742   -0.282515
     13          6           0       11.888893    0.066666   -0.840007
     14          6           0      -11.398496    1.043186   -0.590419
     15          6           0       10.548282   -1.058487    2.421079
     16          6           0       10.093336   -2.651344    0.513992
     17          6           0      -11.819278   -1.173587    2.045960
     18          6           0      -12.636550   -2.308774    0.025389
     19          6           0        9.619787    0.332595    0.084188
     20          6           0       -9.976267   -0.887303   -0.468655
     21          6           0       11.705869    1.051322   -2.040762
     22          6           0      -10.535659    1.756619   -1.593000
     23          6           0        9.340032    1.634229    0.053356
     24          6           0       -8.760127   -0.422597   -0.338949
     25          6           0        8.018714    2.328368    0.096471
     26          6           0       -7.619580   -1.298738   -0.626812
     27          6           0        8.021922    3.841195    0.440106
     28          6           0       -7.735624   -2.689123   -1.031600
     29          6           0        6.811583    1.674946   -0.023652
     30          6           0       -6.347693   -0.713696   -0.411852
     31          6           0        5.565821    2.230739    0.125686
     32          6           0       -4.998644   -1.271797   -0.505447
     33          6           0        4.451936    1.337639    0.032920
     34          6           0       -3.908717   -0.425908   -0.404897
     35          6           0        3.113267    1.857320    0.125659
     36          6           0       -2.580833   -0.840360   -0.423232
     37          6           0        2.803476    3.255727    0.525430
     38          6           0       -2.215691   -2.229921   -0.864457
     39          6           0        2.226598    0.816412   -0.152409
     40          6           0       -1.480999    0.113295   -0.144784
     41          6           0        0.815510    0.924913    0.018669
     42          6           0       -0.098366   -0.062882   -0.433833
     43          1           0       13.016787   -1.058124    1.529732
     44          1           0       12.374754   -2.737903    1.828249
     45          1           0      -14.205691   -0.726605    1.372877
     46          1           0      -13.942935   -0.333894   -0.527908
     47          1           0       12.874696   -2.725614   -0.923520
     48          1           0      -12.838750    1.413871    1.768393
     49          1           0       13.989890    0.046080   -0.496639
     50          1           0       13.558546   -0.990374   -1.709826
     51          1           0      -13.317583    1.805960   -1.136711
     52          1           0      -12.244488    2.927773   -0.103452
     53          1           0       10.906817   -1.784320    3.057288
     54          1           0        9.540616   -0.856417    2.476999
     55          1           0       10.961315   -0.218410    2.660954
     56          1           0       10.468422   -2.629271   -0.644458
     57          1           0       10.312640   -3.596441    0.978695
     58          1           0        9.047031   -2.261209    0.439435
     59          1           0      -11.545741    0.029981    2.324664
     60          1           0      -11.081230   -1.878487    1.994301
     61          1           0      -12.708916   -1.216675    2.852687
     62          1           0      -13.481058   -2.854592    0.544925
     63          1           0      -11.918232   -3.123937    0.184231
     64          1           0      -12.769814   -2.471717   -0.843109
     65          1           0        8.719914   -0.239532   -0.093754
     66          1           0      -10.057675   -1.916045   -0.632132
     67          1           0       10.679046    1.192076   -2.288358
     68          1           0       11.974919    2.070262   -1.601286
     69          1           0       12.273720    0.762189   -2.790933
     70          1           0      -11.036858    2.356032   -2.305468
     71          1           0       -9.921082    0.935628   -2.064985
     72          1           0       -9.858155    2.406488   -0.942468
     73          1           0       14.697894   -3.287187    0.107613
     74          1           0      -15.004454    1.453372    1.777019
     75          1           0       10.050556    2.433228    0.197479
     76          1           0       -8.448281    0.703717   -0.070935
     77          1           0        9.029093    4.236726    0.422155
     78          1           0        7.774590    4.318126   -0.398159
     79          1           0        7.621274    4.030204    1.533515
     80          1           0       -8.196513   -3.478220   -0.245747
     81          1           0       -8.268479   -3.009903   -1.982065
     82          1           0       -6.689235   -3.012374   -1.308256
     83          1           0        6.865182    0.651104   -0.213298
     84          1           0       -6.415543    0.180947    0.074470
     85          1           0        5.584364    3.246920    0.290934
     86          1           0       -4.933073   -2.354276   -1.021352
     87          1           0        4.812359    0.314047   -0.211017
     88          1           0       -4.126427    0.594475    0.013759
     89          1           0        2.888782    3.463421    1.671381
     90          1           0        1.779291    3.420571    0.438819
     91          1           0        3.349511    3.957609   -0.138041
     92          1           0       -2.949752   -2.775999   -0.129172
     93          1           0       -2.273496   -2.487857   -1.989498
     94          1           0       -1.130712   -2.565493   -0.497352
     95          1           0        2.767994   -0.195370   -0.339240
     96          1           0       -1.803816    0.914107    0.223552
     97          1           0        0.385377    1.895717    0.348161
     98          1           0        0.138820   -1.062157   -0.604603
 ---------------------------------------------------------------------

 SCF Done:  E(RCAM-B3LYP) =  -1706.89241892     A.U. after   15 cycles

 Excitation energies and oscillator strengths:

 Excited State   1:      Singlet-A      2.0326 eV  609.99 nm  f=3.6513  <S**2>=0.000
     155 ->158        -0.14442
     156 ->157         0.69422
 This state for optimization and/or second-order correction.
 Total Energy, E(TD-HF/TD-DFT) =  -1706.81772391
 Copying the excited state density for this state as the 1-particle RhoCI density.

 The electronic state is 1-A.
 Alpha  occ. eigenvalues --  -19.20731 -19.20022 -10.30112 -10.29889 -10.27927
 Alpha  occ. eigenvalues --  -10.27533 -10.27486 -10.27455 -10.27382 -10.27306
 Alpha  occ. eigenvalues --  -10.27305 -10.27067 -10.27022 -10.26961 -10.26854
 Alpha  occ. eigenvalues --  -10.26825 -10.26807 -10.26635 -10.26534 -10.26405
 Alpha  occ. eigenvalues --  -10.26340 -10.26295 -10.26288 -10.26172 -10.25638
 Alpha  occ. eigenvalues --  -10.25593 -10.25589 -10.25583 -10.25574 -10.25467
 Alpha  occ. eigenvalues --  -10.25431 -10.25287 -10.25245 -10.25135 -10.24932
 Alpha  occ. eigenvalues --  -10.24872 -10.24352 -10.24244 -10.23966 -10.23533
 Alpha  occ. eigenvalues --  -10.22772 -10.21347  -1.09795  -1.04386  -0.95519
 Alpha  occ. eigenvalues --   -0.94321  -0.92119  -0.91449  -0.90541  -0.89959
 Alpha  occ. eigenvalues --   -0.88281  -0.87255  -0.86802  -0.86323  -0.85141
 Alpha  occ. eigenvalues --   -0.83258  -0.81814  -0.80629  -0.80314  -0.78639
 Alpha  occ. eigenvalues --   -0.78255  -0.77411  -0.76832  -0.76716  -0.76108
 Alpha  occ. eigenvalues --   -0.75917  -0.75406  -0.75053  -0.72951  -0.70607
 Alpha  occ. eigenvalues --   -0.68876  -0.67628  -0.65923  -0.65198  -0.64384
 Alpha  occ. eigenvalues --   -0.64070  -0.63348  -0.62202  -0.61561  -0.59604
 Alpha  occ. eigenvalues --   -0.58995  -0.58667  -0.58413  -0.57628  -0.57024
 Alpha  occ. eigenvalues --   -0.56689  -0.55469  -0.54595  -0.54182  -0.53779
 Alpha  occ. eigenvalues --   -0.53497  -0.53022  -0.51928  -0.51685  -0.51023
 Alpha  occ. eigenvalues --   -0.50834  -0.50607  -0.50397  -0.50162  -0.49417
 Alpha  occ. eigenvalues --   -0.49304  -0.49109  -0.49026  -0.48708  -0.48269
 Alpha  occ. eigenvalues --   -0.48101  -0.47901  -0.47775  -0.47460  -0.47042
 Alpha  occ. eigenvalues --   -0.46477  -0.45962  -0.45631  -0.45237  -0.45015
 Alpha  occ. eigenvalues --   -0.44412  -0.44348  -0.44070  -0.43667  -0.43256
 Alpha  occ. eigenvalues --   -0.42775  -0.42514  -0.42500  -0.42466  -0.42359
 Alpha  occ. eigenvalues --   -0.42225  -0.42087  -0.41661  -0.41567  -0.41175
 Alpha  occ. eigenvalues --   -0.41039  -0.40253  -0.39847  -0.39712  -0.39573
 Alpha  occ. eigenvalues --   -0.38950  -0.38789  -0.38693  -0.38169  -0.37885
 Alpha  occ. eigenvalues --   -0.37430  -0.36602  -0.36567  -0.36124  -0.35967
 Alpha  occ. eigenvalues --   -0.35470  -0.34915  -0.33967  -0.32310  -0.31993
 Alpha  occ. eigenvalues --   -0.31795  -0.29593  -0.27629  -0.25646  -0.22885
 Alpha  occ. eigenvalues --   -0.18768
 Alpha virt. eigenvalues --   -0.06226  -0.00977   0.02509   0.05309   0.07239
 Alpha virt. eigenvalues --    0.09333   0.11121   0.11591   0.11735   0.12269
 Alpha virt. eigenvalues --    0.12652   0.12770   0.13335   0.13511   0.13859

 Mulliken charges:
               1
     1  O   -0.594810
     2  O   -0.551717
     3  C   -0.052078
     4  C    0.020915
     5  C   -0.155517
     6  C   -0.196317
     7  C    0.098541
     8  C    0.159206
     9  C    0.075139
    10  C    0.068929
    11  C   -0.188412
    12  C   -0.217373
    13  C   -0.002296
    14  C    0.031289
    15  C   -0.288803
    16  C   -0.290964
    17  C   -0.268859
    18  C   -0.287096
    19  C   -0.121283
    20  C   -0.165372
    21  C   -0.338205
    22  C   -0.353829
    23  C   -0.083396
    24  C   -0.068003
    25  C    0.015429
    26  C    0.127814
    27  C   -0.376980
    28  C   -0.380717
    29  C   -0.093277
    30  C   -0.131993
    31  C   -0.066920
    32  C   -0.109372
    33  C   -0.136074
    34  C   -0.089712
    35  C    0.114965
    36  C    0.067593
    37  C   -0.365354
    38  C   -0.364043
    39  C   -0.114639
    40  C   -0.083022
    41  C   -0.110054
    42  C   -0.066742
    43  H    0.118352
    44  H    0.073941
    45  H    0.077111
    46  H    0.077769
    47  H    0.100912
    48  H    0.075387
    49  H    0.133678
    50  H    0.120918
    51  H    0.122701
    52  H    0.090617
    53  H    0.092955
    54  H    0.103974
    55  H    0.110597
    56  H    0.077659
    57  H    0.111469
    58  H    0.109592
    59  H    0.078059
    60  H    0.117181
    61  H    0.081041
    62  H    0.089330
    63  H    0.081709
    64  H    0.111110
    65  H    0.085998
    66  H    0.075337
    67  H    0.121578
    68  H    0.107171
    69  H    0.115521
    70  H    0.117198
    71  H    0.122131
    72  H    0.106339
    73  H    0.291363
    74  H    0.299492
    75  H    0.067924
    76  H    0.083607
    77  H    0.101314
    78  H    0.139531
    79  H    0.125060
    80  H    0.104806
    81  H    0.113756
    82  H    0.100993
    83  H    0.059769
    84  H    0.073371
    85  H    0.085488
    86  H    0.089080
    87  H    0.095114
    88  H    0.086080
    89  H    0.122111
    90  H    0.119977
    91  H    0.128829
    92  H    0.114147
    93  H    0.121996
    94  H    0.094200
    95  H    0.089005
    96  H    0.047977
    97  H    0.090957
    98  H    0.080123
 Sum of Mulliken charges =  -0.00000

 Dipole moment (field-independent basis, Debye):
    X=              0.2633    Y=             -1.2909    Z=              0.9433  Tot=              1.6204
 Quadrupole moment (field-independent basis, Debye-Ang):
   XX=           -307.9571   YY=           -240.1759   ZZ=           -260.0039
   XY=             19.4592   XZ=             -8.2660   YZ=              3.5153

 Normal termination of Gaussian 16 at Sun Jul 14 10:17:52 2019.
