 Gaussian 16, Revision A.03,
 Gaussian 16:  ES64L-G16RevA.03 25-Dec-2016

 -------------------------------------
 # td=(NStates=1) CAM-B3LYP/6-31G(d,p)
 -------------------------------------

 --
 TD
 --
 Symbolic Z-matrix:
 Charge =  0 Multiplicity = 1

                         Standard orientation:
 ---------------------------------------------------------------------
 Center     Atomic      Atomic             Coordinates (Angstroms)
 Number     Number       Type             X           Y           Z
 ---------------------------------------------------------------------
      1          8           0       14.683869   -2.361273   -0.473711
      2          8           0      -14.733072    1.825964    0.856918
      3          6           0       11.227844   -1.285518    0.985426
      4          6           0      -12.253215   -1.074191    0.620985
      5          6           0       12.698666   -1.746569    0.987080
      6          6           0      -13.713214   -0.262500    0.596946
      7          6           0       13.307839   -2.054883   -0.371151
      8          6           0      -13.506473    1.179819    0.770046
      9          6           0       10.955655   -0.260510   -0.019943
     10          6           0      -11.365535   -0.200276   -0.273274
     11          6           0       13.201502   -0.716472   -1.206896
     12          6           0      -12.854391    1.672217   -0.456463
     13          6           0       11.874246    0.015912   -1.046583
     14          6           0      -11.622347    0.967184   -0.832135
     15          6           0       10.782470   -0.849906    2.412636
     16          6           0       10.394580   -2.576837    0.720293
     17          6           0      -11.725753   -1.224844    2.064620
     18          6           0      -12.496639   -2.474045    0.103007
     19          6           0        9.571494    0.339062    0.159972
     20          6           0      -10.053886   -0.987094   -0.513817
     21          6           0       11.635862    1.070201   -2.106517
     22          6           0      -10.714126    1.738598   -1.656353
     23          6           0        9.438416    1.609687    0.077429
     24          6           0       -8.867434   -0.475892   -0.169125
     25          6           0        8.158607    2.280262    0.207486
     26          6           0       -7.518372   -1.170676   -0.555876
     27          6           0        7.992337    3.737557    0.450154
     28          6           0       -7.633484   -2.686950   -0.919217
     29          6           0        6.973312    1.563296    0.109955
     30          6           0       -6.403933   -0.602963   -0.204699
     31          6           0        5.645152    2.053895    0.319540
     32          6           0       -5.032991   -1.166829   -0.468109
     33          6           0        4.444639    1.322092    0.082311
     34          6           0       -3.954052   -0.236362   -0.196402
     35          6           0        3.127084    1.785576    0.219856
     36          6           0       -2.663077   -0.658539   -0.336481
     37          6           0        2.786556    3.127095    0.808007
     38          6           0       -2.209105   -2.082852   -0.772456
     39          6           0        2.099752    0.800630   -0.047114
     40          6           0       -1.625065    0.223283   -0.190496
     41          6           0        0.746017    1.015632   -0.117814
     42          6           0       -0.264380   -0.018001   -0.295714
     43          1           0       13.345781   -0.830869    1.451346
     44          1           0       12.798351   -2.602555    1.745855
     45          1           0      -14.352039   -0.768080    1.438649
     46          1           0      -14.069006   -0.455670   -0.374480
     47          1           0       12.644426   -2.674406   -0.970936
     48          1           0      -12.784516    1.323093    1.512518
     49          1           0       13.967843    0.018329   -0.750412
     50          1           0       13.646434   -0.948446   -2.200480
     51          1           0      -13.688579    1.423202   -1.390333
     52          1           0      -12.628803    2.739735   -0.489736
     53          1           0       10.967465   -1.729963    3.267630
     54          1           0        9.753859   -0.684277    2.471144
     55          1           0       11.516953   -0.148239    2.871946
     56          1           0       10.407978   -3.153970   -0.379511
     57          1           0       10.805698   -3.212192    1.413916
     58          1           0        9.152088   -2.544201    0.950482
     59          1           0      -11.556960   -0.409402    2.648220
     60          1           0      -10.808039   -1.531769    1.878132
     61          1           0      -12.321408   -1.819833    2.561543
     62          1           0      -13.530799   -2.623450    0.616853
     63          1           0      -11.815467   -3.252302    0.283142
     64          1           0      -12.478419   -2.294461   -1.022754
     65          1           0        8.843223   -0.334397    0.527929
     66          1           0      -10.172586   -1.991465   -0.784765
     67          1           0       10.429753    1.396215   -2.335480
     68          1           0       12.367239    2.029350   -1.913552
     69          1           0       12.002175    0.689587   -3.137849
     70          1           0      -11.282172    2.348314   -2.299417
     71          1           0      -10.094027    1.064129   -2.237056
     72          1           0      -10.123124    2.306579   -1.052903
     73          1           0       14.591677   -3.266882   -0.008999
     74          1           0      -15.149847    1.437054    1.583183
     75          1           0       10.333027    2.397077   -0.133028
     76          1           0       -8.634560    0.515708    0.122931
     77          1           0        8.890767    4.158754    0.175075
     78          1           0        7.068115    3.907678   -0.173271
     79          1           0        7.921681    3.902468    1.575909
     80          1           0       -7.995858   -3.305864   -0.158140
     81          1           0       -8.320403   -2.652417   -1.769608
     82          1           0       -6.693083   -3.139951   -1.258794
     83          1           0        6.775650    0.595640   -0.258230
     84          1           0       -6.445549    0.546523    0.008747
     85          1           0        5.401158    3.124815    0.661516
     86          1           0       -4.918654   -2.219500   -0.709183
     87          1           0        4.594209    0.299450   -0.598623
     88          1           0       -4.247448    0.725226    0.242646
     89          1           0        3.938603    3.544128    1.533514
     90          1           0        1.752494    3.182941    1.194131
     91          1           0        2.805021    4.036497   -0.041062
     92          1           0       -2.784296   -2.738642   -0.287912
     93          1           0       -2.508464   -2.264615   -1.651539
     94          1           0       -1.191803   -2.150034   -0.606824
     95          1           0        2.462260   -0.158675   -0.209083
     96          1           0       -1.942491    1.303784   -0.103618
     97          1           0        0.242744    2.067967    0.246367
     98          1           0       -0.001994   -1.030965   -0.376071
 ---------------------------------------------------------------------

 SCF Done:  E(RCAM-B3LYP) =  -1706.88339651     A.U. after   15 cycles

 Excitation energies and oscillator strengths:

 Excited State   1:      Singlet-A      1.9859 eV  624.33 nm  f=3.3537  <S**2>=0.000
     155 ->158        -0.11884
     156 ->157         0.70413
     156 <-157        -0.12560
 This state for optimization and/or second-order correction.
 Total Energy, E(TD-HF/TD-DFT) =  -1706.81041698
 Copying the excited state density for this state as the 1-particle RhoCI density.

 The electronic state is 1-A.
 Alpha  occ. eigenvalues --  -19.23147 -19.20896 -10.30751 -10.29671 -10.28792
 Alpha  occ. eigenvalues --  -10.28073 -10.28045 -10.27937 -10.27914 -10.27845
 Alpha  occ. eigenvalues --  -10.27572 -10.27457 -10.27329 -10.27148 -10.27060
 Alpha  occ. eigenvalues --  -10.26945 -10.26870 -10.26862 -10.26813 -10.26766
 Alpha  occ. eigenvalues --  -10.26634 -10.26308 -10.26282 -10.26217 -10.26188
 Alpha  occ. eigenvalues --  -10.26124 -10.26084 -10.25931 -10.25703 -10.25703
 Alpha  occ. eigenvalues --  -10.25512 -10.25394 -10.25356 -10.25339 -10.25232
 Alpha  occ. eigenvalues --  -10.25105 -10.25014 -10.25004 -10.24886 -10.23204
 Alpha  occ. eigenvalues --  -10.22849 -10.21101  -1.11684  -1.10385  -0.94069
 Alpha  occ. eigenvalues --   -0.93837  -0.92366  -0.91406  -0.90320  -0.89793
 Alpha  occ. eigenvalues --   -0.88275  -0.86664  -0.86073  -0.85620  -0.84937
 Alpha  occ. eigenvalues --   -0.83040  -0.81883  -0.80717  -0.80237  -0.79035
 Alpha  occ. eigenvalues --   -0.77834  -0.77352  -0.76299  -0.75554  -0.75122
 Alpha  occ. eigenvalues --   -0.75084  -0.74640  -0.74023  -0.73614  -0.70403
 Alpha  occ. eigenvalues --   -0.68412  -0.67362  -0.65571  -0.64651  -0.64229
 Alpha  occ. eigenvalues --   -0.63753  -0.62719  -0.61905  -0.60709  -0.60384
 Alpha  occ. eigenvalues --   -0.59827  -0.59000  -0.58120  -0.57379  -0.56442
 Alpha  occ. eigenvalues --   -0.56207  -0.55500  -0.54339  -0.53801  -0.53612
 Alpha  occ. eigenvalues --   -0.53323  -0.52985  -0.52088  -0.51872  -0.51089
 Alpha  occ. eigenvalues --   -0.50843  -0.50315  -0.49940  -0.49769  -0.49396
 Alpha  occ. eigenvalues --   -0.49022  -0.48942  -0.48868  -0.48541  -0.47937
 Alpha  occ. eigenvalues --   -0.47739  -0.47343  -0.46984  -0.46929  -0.46736
 Alpha  occ. eigenvalues --   -0.46205  -0.46059  -0.45900  -0.45768  -0.45473
 Alpha  occ. eigenvalues --   -0.45297  -0.44867  -0.44598  -0.44220  -0.43474
 Alpha  occ. eigenvalues --   -0.43368  -0.42973  -0.42329  -0.42196  -0.41928
 Alpha  occ. eigenvalues --   -0.41607  -0.41518  -0.41395  -0.40827  -0.40671
 Alpha  occ. eigenvalues --   -0.40340  -0.39789  -0.39632  -0.39552  -0.39235
 Alpha  occ. eigenvalues --   -0.39014  -0.38609  -0.38499  -0.38153  -0.38016
 Alpha  occ. eigenvalues --   -0.37869  -0.37278  -0.36593  -0.36354  -0.35675
 Alpha  occ. eigenvalues --   -0.35177  -0.34283  -0.33794  -0.33570  -0.32502
 Alpha  occ. eigenvalues --   -0.31245  -0.29272  -0.27749  -0.26551  -0.24203
 Alpha  occ. eigenvalues --   -0.18547
 Alpha virt. eigenvalues --   -0.06732  -0.00161   0.03059   0.05704   0.07081
 Alpha virt. eigenvalues --    0.09139   0.09805   0.11060   0.11242   0.12108
 Alpha virt. eigenvalues --    0.12421   0.12502   0.13147   0.13264   0.13670

 Mulliken charges:
               1
     1  O   -0.532853
     2  O   -0.538881
     3  C   -0.044303
     4  C   -0.039843
     5  C   -0.193997
     6  C   -0.206402
     7  C    0.146657
     8  C    0.189283
     9  C    0.084073
    10  C    0.012335
    11  C   -0.234905
    12  C   -0.225061
    13  C    0.060004
    14  C    0.088036
    15  C   -0.287063
    16  C   -0.274734
    17  C   -0.281058
    18  C   -0.297866
    19  C   -0.108952
    20  C   -0.153183
    21  C   -0.351422
    22  C   -0.366068
    23  C   -0.071008
    24  C   -0.062169
    25  C    0.044224
    26  C    0.070045
    27  C   -0.346872
    28  C   -0.368405
    29  C   -0.096824
    30  C   -0.122356
    31  C   -0.115129
    32  C   -0.110052
    33  C   -0.135231
    34  C   -0.120795
    35  C    0.139206
    36  C    0.095032
    37  C   -0.345408
    38  C   -0.341258
    39  C   -0.107328
    40  C   -0.120118
    41  C   -0.101553
    42  C   -0.088665
    43  H    0.084167
    44  H    0.072602
    45  H    0.057407
    46  H    0.108244
    47  H    0.094202
    48  H    0.087385
    49  H    0.107966
    50  H    0.114658
    51  H    0.075294
    52  H    0.102875
    53  H    0.061929
    54  H    0.122845
    55  H    0.112192
    56  H    0.081377
    57  H    0.114693
    58  H    0.066432
    59  H    0.096968
    60  H    0.111459
    61  H    0.099873
    62  H    0.099064
    63  H    0.111716
    64  H    0.098400
    65  H    0.105440
    66  H    0.092366
    67  H    0.100481
    68  H    0.094475
    69  H    0.098945
    70  H    0.111238
    71  H    0.119953
    72  H    0.130969
    73  H    0.309097
    74  H    0.295064
    75  H    0.086713
    76  H    0.080425
    77  H    0.109749
    78  H    0.129293
    79  H    0.120664
    80  H    0.132496
    81  H    0.118766
    82  H    0.100316
    83  H    0.075403
    84  H    0.069460
    85  H    0.070801
    86  H    0.095070
    87  H    0.070596
    88  H    0.099899
    89  H    0.070404
    90  H    0.124841
    91  H    0.097833
    92  H    0.114933
    93  H    0.135300
    94  H    0.107563
    95  H    0.085487
    96  H    0.069674
    97  H    0.071326
    98  H    0.084076
 Sum of Mulliken charges =  -0.00000

 Dipole moment (field-independent basis, Debye):
    X=             -0.4023    Y=             -2.4279    Z=              1.4738  Tot=              2.8685
 Quadrupole moment (field-independent basis, Debye-Ang):
   XX=           -285.5856   YY=           -244.9366   ZZ=           -262.0321
   XY=              6.1524   XZ=             -3.7827   YZ=              1.5735

 Normal termination of Gaussian 16 at Tue Jul  9 00:28:35 2019.
