 Gaussian 16, Revision A.03,
 Gaussian 16:  ES64L-G16RevA.03 25-Dec-2016

 -------------------------------------
 # td=(NStates=1) CAM-B3LYP/6-31G(d,p)
 -------------------------------------

 --
 TD
 --
 Symbolic Z-matrix:
 Charge =  0 Multiplicity = 1

                         Standard orientation:
 ---------------------------------------------------------------------
 Center     Atomic      Atomic             Coordinates (Angstroms)
 Number     Number       Type             X           Y           Z
 ---------------------------------------------------------------------
      1          8           0       14.689805   -2.295012   -0.303218
      2          8           0      -14.717802    2.040025    0.883899
      3          6           0       11.116948   -1.514885    0.906301
      4          6           0      -12.408794   -0.914225    0.593006
      5          6           0       12.611528   -1.927946    0.954323
      6          6           0      -13.750764   -0.199295    0.568773
      7          6           0       13.323885   -2.005033   -0.441733
      8          6           0      -13.449091    1.323971    0.752251
      9          6           0       11.024990   -0.271761   -0.166423
     10          6           0      -11.306638   -0.239117   -0.353141
     11          6           0       13.365055   -0.493392   -0.936490
     12          6           0      -12.854116    1.747336   -0.497786
     13          6           0       11.975353    0.161065   -0.915288
     14          6           0      -11.539790    1.006906   -0.730717
     15          6           0       10.610728   -1.138382    2.370447
     16          6           0       10.274682   -2.695560    0.306522
     17          6           0      -11.909200   -1.286314    2.016612
     18          6           0      -12.693458   -2.360181    0.035051
     19          6           0        9.758228    0.318380    0.047046
     20          6           0      -10.037975   -1.009690   -0.538256
     21          6           0       11.727216    1.227308   -1.898370
     22          6           0      -10.499823    1.651672   -1.586710
     23          6           0        9.447743    1.676409    0.057153
     24          6           0       -8.783796   -0.481016   -0.334631
     25          6           0        8.213429    2.304912    0.139623
     26          6           0       -7.595439   -1.258818   -0.595163
     27          6           0        8.081429    3.870702    0.255171
     28          6           0       -7.728740   -2.730625   -0.794066
     29          6           0        6.926748    1.590715    0.058314
     30          6           0       -6.412482   -0.594681   -0.415973
     31          6           0        5.660499    2.147619    0.223394
     32          6           0       -5.098316   -1.058172   -0.534067
     33          6           0        4.436524    1.386267    0.076986
     34          6           0       -3.959081   -0.400886   -0.263055
     35          6           0        3.106952    1.778550    0.300539
     36          6           0       -2.651764   -0.735861   -0.352288
     37          6           0        2.890295    3.158670    0.692833
     38          6           0       -2.381751   -2.143172   -0.819187
     39          6           0        2.140371    0.697239    0.179740
     40          6           0       -1.551864    0.059163   -0.070835
     41          6           0        0.773758    0.852878    0.245587
     42          6           0       -0.226486   -0.153510   -0.064367
     43          1           0       13.026444   -1.217102    1.573078
     44          1           0       12.582200   -2.835394    1.672466
     45          1           0      -14.463266   -0.606059    1.330664
     46          1           0      -14.255620   -0.429668   -0.528442
     47          1           0       12.728123   -2.708846   -0.998121
     48          1           0      -12.877285    1.529093    1.705821
     49          1           0       14.127309   -0.046318   -0.150077
     50          1           0       13.916852   -0.306226   -1.882261
     51          1           0      -13.405573    1.481043   -1.305009
     52          1           0      -12.549714    2.840327   -0.478000
     53          1           0       10.541563   -2.221663    2.799485
     54          1           0        9.553895   -0.685738    2.129147
     55          1           0       11.150564   -0.410911    2.792696
     56          1           0       10.654171   -2.634659   -0.894382
     57          1           0       10.543750   -3.550409    1.013411
     58          1           0        9.279291   -2.300816    0.424343
     59          1           0      -11.702656   -0.283282    2.511268
     60          1           0      -10.882364   -1.884250    2.333003
     61          1           0      -12.592386   -1.716621    2.558690
     62          1           0      -13.484376   -2.569349    0.752215
     63          1           0      -11.759127   -2.987016    0.001986
     64          1           0      -13.141738   -2.329088   -0.999558
     65          1           0        8.964007   -0.408772    0.189702
     66          1           0      -10.124667   -2.025241   -0.839653
     67          1           0       10.623974    1.586075   -2.013839
     68          1           0       12.357577    2.162634   -1.359240
     69          1           0       12.114236    1.005302   -2.854981
     70          1           0      -11.034054    2.354683   -2.272362
     71          1           0       -9.946725    0.962793   -2.145783
     72          1           0       -9.529501    2.206240   -1.080661
     73          1           0       14.614118   -3.109912    0.232710
     74          1           0      -15.145087    1.538658    1.690758
     75          1           0       10.375801    2.245486   -0.095430
     76          1           0       -8.791499    0.429021    0.169076
     77          1           0        9.073552    4.448369    0.312478
     78          1           0        7.272244    4.403524   -0.314680
     79          1           0        7.791549    3.902987    1.409839
     80          1           0       -8.030828   -3.171757    0.073649
     81          1           0       -8.450164   -3.084100   -1.650270
     82          1           0       -6.647027   -3.209137   -1.090865
     83          1           0        6.824363    0.640339   -0.080999
     84          1           0       -6.547223    0.591005   -0.007874
     85          1           0        5.589336    3.120226    0.498362
     86          1           0       -5.035182   -2.116710   -0.931910
     87          1           0        4.660846    0.415886   -0.101506
     88          1           0       -4.189964    0.669491   -0.033774
     89          1           0        3.480790    3.418393    1.867344
     90          1           0        1.752706    3.352457    1.059171
     91          1           0        3.205889    3.986006   -0.094178
     92          1           0       -2.702498   -2.907834   -0.025683
     93          1           0       -2.895254   -2.658314   -1.720629
     94          1           0       -1.226223   -2.469566   -0.838001
     95          1           0        2.496036   -0.347749    0.027544
     96          1           0       -1.852453    1.215173    0.163202
     97          1           0        0.271409    1.785824    0.700727
     98          1           0        0.151868   -1.102092   -0.676870
 ---------------------------------------------------------------------

 SCF Done:  E(RCAM-B3LYP) =  -1706.90779186     A.U. after   18 cycles

 Excitation energies and oscillator strengths:

 Excited State   1:      Singlet-A      1.6732 eV  741.02 nm  f=3.5805  <S**2>=0.000
     155 ->158        -0.12454
     156 ->157         0.70658
     156 <-157        -0.14284
 This state for optimization and/or second-order correction.
 Total Energy, E(TD-HF/TD-DFT) =  -1706.84630434
 Copying the excited state density for this state as the 1-particle RhoCI density.

 The electronic state is 1-A.
 Alpha  occ. eigenvalues --  -19.22276 -19.21004 -10.31689 -10.30668 -10.29711
 Alpha  occ. eigenvalues --  -10.29212 -10.28485 -10.28006 -10.27973 -10.27779
 Alpha  occ. eigenvalues --  -10.27555 -10.27529 -10.27419 -10.27341 -10.27323
 Alpha  occ. eigenvalues --  -10.27174 -10.27135 -10.27131 -10.27120 -10.27040
 Alpha  occ. eigenvalues --  -10.26977 -10.26748 -10.26642 -10.26496 -10.26456
 Alpha  occ. eigenvalues --  -10.26324 -10.26108 -10.25999 -10.25790 -10.25784
 Alpha  occ. eigenvalues --  -10.25660 -10.25553 -10.25542 -10.25491 -10.25414
 Alpha  occ. eigenvalues --  -10.25293 -10.25096 -10.25064 -10.24986 -10.24808
 Alpha  occ. eigenvalues --  -10.24776 -10.24575  -1.11111  -1.06991  -0.93948
 Alpha  occ. eigenvalues --   -0.93475  -0.92432  -0.91646  -0.90756  -0.89746
 Alpha  occ. eigenvalues --   -0.87675  -0.87367  -0.87119  -0.85659  -0.84766
 Alpha  occ. eigenvalues --   -0.83239  -0.82085  -0.79880  -0.79433  -0.78442
 Alpha  occ. eigenvalues --   -0.76337  -0.76223  -0.75756  -0.75739  -0.75352
 Alpha  occ. eigenvalues --   -0.75102  -0.74956  -0.74690  -0.72779  -0.71001
 Alpha  occ. eigenvalues --   -0.69437  -0.67459  -0.66648  -0.65738  -0.63959
 Alpha  occ. eigenvalues --   -0.62766  -0.62602  -0.61594  -0.60714  -0.59811
 Alpha  occ. eigenvalues --   -0.59446  -0.59167  -0.58803  -0.57900  -0.55965
 Alpha  occ. eigenvalues --   -0.55763  -0.55142  -0.55003  -0.54491  -0.53625
 Alpha  occ. eigenvalues --   -0.53223  -0.52509  -0.52040  -0.51339  -0.51120
 Alpha  occ. eigenvalues --   -0.50704  -0.50276  -0.49525  -0.49239  -0.48997
 Alpha  occ. eigenvalues --   -0.48650  -0.48550  -0.48488  -0.48265  -0.47787
 Alpha  occ. eigenvalues --   -0.47579  -0.47471  -0.47005  -0.46469  -0.46354
 Alpha  occ. eigenvalues --   -0.45710  -0.45567  -0.45394  -0.45253  -0.45086
 Alpha  occ. eigenvalues --   -0.44961  -0.44148  -0.44033  -0.43833  -0.43556
 Alpha  occ. eigenvalues --   -0.43451  -0.42815  -0.42645  -0.42182  -0.41865
 Alpha  occ. eigenvalues --   -0.41562  -0.41462  -0.41293  -0.41217  -0.41122
 Alpha  occ. eigenvalues --   -0.40572  -0.40469  -0.39659  -0.39577  -0.39125
 Alpha  occ. eigenvalues --   -0.38862  -0.38703  -0.38346  -0.38240  -0.37814
 Alpha  occ. eigenvalues --   -0.37393  -0.37239  -0.36991  -0.36302  -0.36150
 Alpha  occ. eigenvalues --   -0.35643  -0.34416  -0.33716  -0.32674  -0.32291
 Alpha  occ. eigenvalues --   -0.31538  -0.29945  -0.28692  -0.26482  -0.23251
 Alpha  occ. eigenvalues --   -0.17937
 Alpha virt. eigenvalues --   -0.07875  -0.01742   0.01931   0.05830   0.07934
 Alpha virt. eigenvalues --    0.09339   0.10244   0.11153   0.11255   0.11561
 Alpha virt. eigenvalues --    0.11648   0.12368   0.12616   0.12963   0.13230

 Mulliken charges:
               1
     1  O   -0.536194
     2  O   -0.575353
     3  C   -0.067865
     4  C   -0.030322
     5  C   -0.198174
     6  C   -0.212709
     7  C    0.164211
     8  C    0.177909
     9  C    0.077600
    10  C    0.082236
    11  C   -0.231881
    12  C   -0.191930
    13  C    0.065005
    14  C    0.014317
    15  C   -0.278821
    16  C   -0.272848
    17  C   -0.291579
    18  C   -0.283536
    19  C   -0.109674
    20  C   -0.145552
    21  C   -0.363922
    22  C   -0.363257
    23  C   -0.138203
    24  C   -0.079016
    25  C    0.078059
    26  C    0.111743
    27  C   -0.370632
    28  C   -0.369820
    29  C   -0.085894
    30  C   -0.114135
    31  C   -0.068681
    32  C   -0.077961
    33  C   -0.122177
    34  C   -0.124642
    35  C    0.153123
    36  C    0.163620
    37  C   -0.366697
    38  C   -0.394849
    39  C   -0.130033
    40  C   -0.118632
    41  C   -0.087575
    42  C   -0.094921
    43  H    0.107654
    44  H    0.056912
    45  H    0.080471
    46  H    0.094748
    47  H    0.090529
    48  H    0.092572
    49  H    0.115723
    50  H    0.107145
    51  H    0.137317
    52  H    0.109386
    53  H    0.090906
    54  H    0.095650
    55  H    0.123797
    56  H    0.092569
    57  H    0.098771
    58  H    0.108706
    59  H    0.082671
    60  H    0.090547
    61  H    0.113592
    62  H    0.092969
    63  H    0.096214
    64  H    0.084780
    65  H    0.085766
    66  H    0.081460
    67  H    0.126231
    68  H    0.083237
    69  H    0.117093
    70  H    0.090395
    71  H    0.135958
    72  H    0.083298
    73  H    0.305156
    74  H    0.298217
    75  H    0.090803
    76  H    0.096606
    77  H    0.110328
    78  H    0.132092
    79  H    0.115141
    80  H    0.148087
    81  H    0.110235
    82  H    0.088633
    83  H    0.056709
    84  H    0.060681
    85  H    0.066513
    86  H    0.071278
    87  H    0.067178
    88  H    0.070214
    89  H    0.083682
    90  H    0.099293
    91  H    0.125697
    92  H    0.111246
    93  H    0.115839
    94  H    0.088442
    95  H    0.099271
    96  H    0.065025
    97  H    0.085293
    98  H    0.080934
 Sum of Mulliken charges =  -0.00000

 Dipole moment (field-independent basis, Debye):
    X=              2.2734    Y=             -1.8213    Z=              1.7458  Tot=              3.3961
 Quadrupole moment (field-independent basis, Debye-Ang):
   XX=           -275.5434   YY=           -248.2838   ZZ=           -261.5716
   XY=             18.4366   XZ=             -4.4047   YZ=              0.6773

 Normal termination of Gaussian 16 at Sat Jul 13 00:21:04 2019.
