 Gaussian 16, Revision A.03,
 Gaussian 16:  ES64L-G16RevA.03 25-Dec-2016

 -------------------------------------
 # td=(NStates=1) CAM-B3LYP/6-31G(d,p)
 -------------------------------------

 --
 TD
 --
 Symbolic Z-matrix:
 Charge =  0 Multiplicity = 1

                         Standard orientation:
 ---------------------------------------------------------------------
 Center     Atomic      Atomic             Coordinates (Angstroms)
 Number     Number       Type             X           Y           Z
 ---------------------------------------------------------------------
      1          8           0       14.745739   -2.266846   -0.179267
      2          8           0      -14.843257    1.754267    0.966716
      3          6           0       11.113771   -1.588756    0.970125
      4          6           0      -12.384158   -1.037519    0.593009
      5          6           0       12.642337   -1.910979    1.023089
      6          6           0      -13.685696   -0.244347    0.652565
      7          6           0       13.427735   -1.818148   -0.324178
      8          6           0      -13.622349    1.258060    0.908855
      9          6           0       10.947245   -0.291116    0.046185
     10          6           0      -11.292425   -0.186318   -0.128260
     11          6           0       13.468270   -0.401658   -0.876262
     12          6           0      -12.706726    1.877054   -0.149405
     13          6           0       12.048131    0.223838   -0.791826
     14          6           0      -11.461307    1.067835   -0.521317
     15          6           0       10.685704   -1.267132    2.336931
     16          6           0       10.210773   -2.707212    0.381523
     17          6           0      -12.048019   -1.373216    2.077028
     18          6           0      -12.597466   -2.375311   -0.209488
     19          6           0        9.600255    0.310513    0.157884
     20          6           0      -10.067189   -0.949860   -0.399453
     21          6           0       11.850338    1.371844   -1.765049
     22          6           0      -10.469106    1.906874   -1.339685
     23          6           0        9.381209    1.623577    0.213229
     24          6           0       -8.760194   -0.429757   -0.420838
     25          6           0        8.077604    2.342914    0.285816
     26          6           0       -7.516613   -1.211154   -0.565632
     27          6           0        8.006967    3.719103    0.726745
     28          6           0       -7.710317   -2.588068   -1.031581
     29          6           0        6.890582    1.588010   -0.038281
     30          6           0       -6.420907   -0.601132   -0.429361
     31          6           0        5.677964    2.088057    0.167640
     32          6           0       -5.152548   -1.128916   -0.483195
     33          6           0        4.526926    1.236743   -0.142254
     34          6           0       -3.890246   -0.362016   -0.336536
     35          6           0        3.127155    1.684413    0.056589
     36          6           0       -2.593225   -0.768173   -0.495162
     37          6           0        2.729906    3.043474    0.393512
     38          6           0       -2.318818   -2.270301   -0.990440
     39          6           0        2.121366    0.789208   -0.248217
     40          6           0       -1.622466    0.132494   -0.291919
     41          6           0        0.748789    0.974510   -0.280530
     42          6           0       -0.205931   -0.006985   -0.490185
     43          1           0       13.090926   -1.199244    1.844410
     44          1           0       12.856488   -2.889484    1.527830
     45          1           0      -14.463829   -0.817701    1.276894
     46          1           0      -14.060122   -0.288180   -0.303077
     47          1           0       12.909791   -2.362630   -1.062151
     48          1           0      -13.100996    1.264396    2.042637
     49          1           0       14.247644    0.223782   -0.244699
     50          1           0       13.515349   -0.408581   -1.968810
     51          1           0      -13.182358    2.056015   -1.100966
     52          1           0      -12.348425    2.858474    0.269717
     53          1           0       11.071073   -2.332711    2.780624
     54          1           0        9.629115   -1.092554    2.523739
     55          1           0       11.440046   -0.446357    2.858073
     56          1           0       10.467542   -2.913198   -0.636560
     57          1           0       10.234193   -3.446635    1.090381
     58          1           0        9.105248   -2.581995    0.360664
     59          1           0      -11.908497   -0.443135    2.562634
     60          1           0      -11.270549   -2.089893    2.202421
     61          1           0      -12.943389   -1.590534    2.775144
     62          1           0      -13.404409   -2.952088    0.338790
     63          1           0      -11.815542   -3.366895   -0.055657
     64          1           0      -12.720546   -2.428595   -1.154562
     65          1           0        8.972202   -0.400830    0.486653
     66          1           0      -10.169005   -2.098137   -0.475056
     67          1           0       10.799661    1.444858   -2.095836
     68          1           0       12.231253    2.468917   -1.422584
     69          1           0       12.562340    1.283681   -2.583700
     70          1           0      -11.099559    2.601534   -1.848203
     71          1           0       -9.956767    1.314844   -2.053420
     72          1           0       -9.952205    2.399589   -0.610296
     73          1           0       14.962246   -3.120344    0.036106
     74          1           0      -15.063721    1.615290    1.935178
     75          1           0       10.172273    2.331983    0.087398
     76          1           0       -8.645923    0.547983   -0.144430
     77          1           0        8.992942    4.130146    0.620289
     78          1           0        7.435950    4.406332    0.161987
     79          1           0        7.717612    3.718452    1.767191
     80          1           0       -8.076620   -3.235065   -0.257397
     81          1           0       -8.632552   -2.584586   -1.764080
     82          1           0       -6.741550   -3.029274   -1.478259
     83          1           0        7.131525    0.530344   -0.409131
     84          1           0       -6.386605    0.595593   -0.394902
     85          1           0        5.504194    3.054006    0.544332
     86          1           0       -5.040373   -2.049899   -0.924038
     87          1           0        4.701051    0.142095   -0.313066
     88          1           0       -4.126203    0.677131   -0.092558
     89          1           0        2.791526    3.137136    1.516991
     90          1           0        1.638997    3.264723    0.275256
     91          1           0        3.158204    4.087153   -0.115603
     92          1           0       -3.004078   -2.882671   -0.335304
     93          1           0       -2.499215   -2.452981   -1.966630
     94          1           0       -1.394522   -2.600709   -0.670623
     95          1           0        2.456978   -0.163591   -0.519252
     96          1           0       -1.938519    1.122077    0.045352
     97          1           0        0.321660    1.806913    0.282217
     98          1           0        0.064261   -1.036999   -0.961686
 ---------------------------------------------------------------------

 SCF Done:  E(RCAM-B3LYP) =  -1706.97881920     A.U. after   15 cycles

 Excitation energies and oscillator strengths:

 Excited State   1:      Singlet-A      2.0356 eV  609.09 nm  f=3.7437  <S**2>=0.000
     155 ->158         0.15908
     156 ->157         0.68980
 This state for optimization and/or second-order correction.
 Total Energy, E(TD-HF/TD-DFT) =  -1706.90401341
 Copying the excited state density for this state as the 1-particle RhoCI density.

 The electronic state is 1-A.
 Alpha  occ. eigenvalues --  -19.22683 -19.19999 -10.31859 -10.30447 -10.27890
 Alpha  occ. eigenvalues --  -10.27732 -10.27610 -10.27504 -10.27430 -10.27098
 Alpha  occ. eigenvalues --  -10.27046 -10.26972 -10.26818 -10.26764 -10.26492
 Alpha  occ. eigenvalues --  -10.26378 -10.26171 -10.26151 -10.26128 -10.26117
 Alpha  occ. eigenvalues --  -10.26034 -10.25942 -10.25911 -10.25847 -10.25771
 Alpha  occ. eigenvalues --  -10.25768 -10.25693 -10.25521 -10.25506 -10.25493
 Alpha  occ. eigenvalues --  -10.25251 -10.25169 -10.25034 -10.24984 -10.24932
 Alpha  occ. eigenvalues --  -10.24864 -10.24849 -10.24563 -10.24398 -10.24124
 Alpha  occ. eigenvalues --  -10.23808 -10.23451  -1.13875  -1.10076  -0.93129
 Alpha  occ. eigenvalues --   -0.92515  -0.92268  -0.91630  -0.90904  -0.90036
 Alpha  occ. eigenvalues --   -0.86939  -0.86839  -0.86443  -0.85255  -0.84416
 Alpha  occ. eigenvalues --   -0.83018  -0.81817  -0.80491  -0.79317  -0.78313
 Alpha  occ. eigenvalues --   -0.76928  -0.76876  -0.76579  -0.76212  -0.75804
 Alpha  occ. eigenvalues --   -0.75311  -0.74814  -0.74369  -0.73286  -0.70498
 Alpha  occ. eigenvalues --   -0.69193  -0.67231  -0.66068  -0.65214  -0.64614
 Alpha  occ. eigenvalues --   -0.62837  -0.62182  -0.61160  -0.60601  -0.60155
 Alpha  occ. eigenvalues --   -0.60124  -0.59627  -0.59220  -0.57719  -0.56139
 Alpha  occ. eigenvalues --   -0.56029  -0.55061  -0.54550  -0.54244  -0.53525
 Alpha  occ. eigenvalues --   -0.53019  -0.52868  -0.51801  -0.51684  -0.51577
 Alpha  occ. eigenvalues --   -0.51329  -0.51281  -0.50688  -0.50256  -0.49969
 Alpha  occ. eigenvalues --   -0.49350  -0.49283  -0.48961  -0.48310  -0.48035
 Alpha  occ. eigenvalues --   -0.47711  -0.47547  -0.47183  -0.46844  -0.46435
 Alpha  occ. eigenvalues --   -0.46107  -0.45374  -0.45358  -0.44906  -0.44292
 Alpha  occ. eigenvalues --   -0.44260  -0.44095  -0.44015  -0.43630  -0.43545
 Alpha  occ. eigenvalues --   -0.43350  -0.43177  -0.42798  -0.42148  -0.41670
 Alpha  occ. eigenvalues --   -0.41374  -0.40940  -0.40817  -0.40637  -0.40548
 Alpha  occ. eigenvalues --   -0.40373  -0.39823  -0.39819  -0.39609  -0.39440
 Alpha  occ. eigenvalues --   -0.39255  -0.39093  -0.38503  -0.38318  -0.38274
 Alpha  occ. eigenvalues --   -0.37125  -0.36798  -0.35997  -0.35763  -0.35477
 Alpha  occ. eigenvalues --   -0.35253  -0.34669  -0.33637  -0.32827  -0.32352
 Alpha  occ. eigenvalues --   -0.31176  -0.29792  -0.27202  -0.25654  -0.22431
 Alpha  occ. eigenvalues --   -0.18651
 Alpha virt. eigenvalues --   -0.06020  -0.01469   0.02842   0.05343   0.07721
 Alpha virt. eigenvalues --    0.09365   0.11076   0.12067   0.12278   0.12425
 Alpha virt. eigenvalues --    0.12924   0.13795   0.14119   0.14334   0.14418

 Mulliken charges:
               1
     1  O   -0.565528
     2  O   -0.512469
     3  C   -0.012847
     4  C   -0.006092
     5  C   -0.201174
     6  C   -0.187561
     7  C    0.201245
     8  C    0.170057
     9  C    0.035315
    10  C    0.091736
    11  C   -0.201925
    12  C   -0.231455
    13  C    0.012273
    14  C   -0.006848
    15  C   -0.275270
    16  C   -0.304160
    17  C   -0.297886
    18  C   -0.298489
    19  C   -0.096712
    20  C   -0.145203
    21  C   -0.359083
    22  C   -0.347735
    23  C   -0.091682
    24  C   -0.107146
    25  C    0.045850
    26  C    0.163454
    27  C   -0.383871
    28  C   -0.384881
    29  C   -0.083519
    30  C   -0.120573
    31  C   -0.079563
    32  C   -0.112878
    33  C   -0.145296
    34  C   -0.133636
    35  C    0.136570
    36  C    0.119354
    37  C   -0.394615
    38  C   -0.369427
    39  C   -0.114769
    40  C   -0.127187
    41  C   -0.093096
    42  C   -0.090777
    43  H    0.091002
    44  H    0.075238
    45  H    0.070224
    46  H    0.102015
    47  H    0.082301
    48  H    0.019546
    49  H    0.115701
    50  H    0.112803
    51  H    0.124794
    52  H    0.105014
    53  H    0.069520
    54  H    0.111058
    55  H    0.091995
    56  H    0.115969
    57  H    0.105994
    58  H    0.099200
    59  H    0.106548
    60  H    0.109886
    61  H    0.080692
    62  H    0.095295
    63  H    0.054605
    64  H    0.122219
    65  H    0.076577
    66  H    0.078380
    67  H    0.128467
    68  H    0.086859
    69  H    0.101933
    70  H    0.101852
    71  H    0.131973
    72  H    0.134866
    73  H    0.296434
    74  H    0.325556
    75  H    0.087839
    76  H    0.074971
    77  H    0.109526
    78  H    0.128055
    79  H    0.135568
    80  H    0.129021
    81  H    0.114611
    82  H    0.101245
    83  H    0.083136
    84  H    0.070481
    85  H    0.098293
    86  H    0.072688
    87  H    0.088381
    88  H    0.075500
    89  H    0.119352
    90  H    0.116505
    91  H    0.099098
    92  H    0.111944
    93  H    0.137585
    94  H    0.119446
    95  H    0.074246
    96  H    0.078284
    97  H    0.083621
    98  H    0.073585
 Sum of Mulliken charges =  -0.00000

 Dipole moment (field-independent basis, Debye):
    X=             -0.2073    Y=             -0.8821    Z=              1.4746  Tot=              1.7307
 Quadrupole moment (field-independent basis, Debye-Ang):
   XX=           -265.7448   YY=           -238.3518   ZZ=           -259.3301
   XY=             -7.1902   XZ=            -11.9791   YZ=              5.3483

 Normal termination of Gaussian 16 at Fri Jul 12 13:11:11 2019.
