 Gaussian 16, Revision A.03,
 Gaussian 16:  ES64L-G16RevA.03 25-Dec-2016

 -------------------------------------
 # td=(NStates=1) CAM-B3LYP/6-31G(d,p)
 -------------------------------------

 --
 TD
 --
 Symbolic Z-matrix:
 Charge =  0 Multiplicity = 1

                         Standard orientation:
 ---------------------------------------------------------------------
 Center     Atomic      Atomic             Coordinates (Angstroms)
 Number     Number       Type             X           Y           Z
 ---------------------------------------------------------------------
      1          8           0       14.638235   -2.274556   -0.280226
      2          8           0      -14.644555    2.042650    1.037123
      3          6           0       11.135639   -1.483413    0.970615
      4          6           0      -12.345985   -1.084176    0.508422
      5          6           0       12.659036   -1.907567    1.011110
      6          6           0      -13.711406   -0.262346    0.646531
      7          6           0       13.278356   -1.987378   -0.416561
      8          6           0      -13.423634    1.225705    0.922392
      9          6           0       10.951741   -0.323226   -0.029885
     10          6           0      -11.178937   -0.322852   -0.231576
     11          6           0       13.128068   -0.605451   -1.041023
     12          6           0      -12.673965    1.739968   -0.180116
     13          6           0       11.804310    0.094342   -0.907698
     14          6           0      -11.370938    0.972564   -0.625166
     15          6           0       10.763756   -1.186389    2.403664
     16          6           0       10.199643   -2.628328    0.427007
     17          6           0      -11.830803   -1.563546    1.987866
     18          6           0      -12.688570   -2.334559   -0.189603
     19          6           0        9.649193    0.373204    0.217782
     20          6           0       -9.989111   -1.020504   -0.426495
     21          6           0       11.626482    1.245544   -1.896760
     22          6           0      -10.486740    1.844868   -1.456839
     23          6           0        9.416230    1.697680    0.157564
     24          6           0       -8.793889   -0.500184   -0.356242
     25          6           0        8.052256    2.340437    0.233888
     26          6           0       -7.518698   -1.244764   -0.648049
     27          6           0        7.949818    3.680069    0.614530
     28          6           0       -7.716932   -2.731656   -0.921274
     29          6           0        6.920290    1.520041    0.034887
     30          6           0       -6.372768   -0.552136   -0.418892
     31          6           0        5.632104    2.046205    0.143000
     32          6           0       -5.083860   -1.045123   -0.546080
     33          6           0        4.401025    1.314626   -0.083378
     34          6           0       -3.847472   -0.361036   -0.343651
     35          6           0        3.127842    1.891091    0.069785
     36          6           0       -2.589289   -0.708948   -0.415375
     37          6           0        2.781564    3.328001    0.454255
     38          6           0       -2.218285   -2.180034   -0.782666
     39          6           0        2.089081    0.851436   -0.080850
     40          6           0       -1.527192    0.134356   -0.177368
     41          6           0        0.712299    1.058499   -0.017637
     42          6           0       -0.239012    0.002472   -0.170539
     43          1           0       13.127776   -1.257816    1.481613
     44          1           0       12.615334   -2.917948    1.536685
     45          1           0      -14.492240   -0.714266    1.409606
     46          1           0      -14.337167   -0.302368   -0.189260
     47          1           0       12.820904   -2.842013   -0.928322
     48          1           0      -12.760309    1.146876    1.882778
     49          1           0       13.817800    0.027730   -0.493668
     50          1           0       13.521871   -0.612085   -2.030965
     51          1           0      -13.211399    1.774202   -1.174493
     52          1           0      -12.490252    2.910468   -0.260565
     53          1           0       11.340611   -1.981586    3.063925
     54          1           0        9.675069   -1.186915    2.755825
     55          1           0       11.260712   -0.258482    2.764033
     56          1           0       10.311586   -2.868102   -0.688074
     57          1           0       10.299744   -3.423814    1.151146
     58          1           0        9.207217   -2.221862    0.612021
     59          1           0      -11.714047   -0.798277    2.543558
     60          1           0      -10.925155   -2.120177    1.766628
     61          1           0      -12.409394   -2.291962    2.345612
     62          1           0      -13.431926   -2.927724    0.282431
     63          1           0      -11.817221   -2.795921    0.001519
     64          1           0      -12.865566   -2.330692   -1.261403
     65          1           0        8.746415   -0.197158    0.352618
     66          1           0       -9.927114   -1.962989   -0.550281
     67          1           0       10.623000    1.447794   -2.027254
     68          1           0       12.087502    2.146757   -1.475347
     69          1           0       12.105053    1.011104   -2.914262
     70          1           0      -11.135761    2.758467   -1.964817
     71          1           0       -9.768889    1.420706   -2.177285
     72          1           0       -9.833304    2.409111   -0.717898
     73          1           0       14.832877   -3.184310   -0.043978
     74          1           0      -15.326579    1.770776    1.650513
     75          1           0       10.408530    2.388341    0.237228
     76          1           0       -8.754905    0.524990    0.032430
     77          1           0        8.948287    4.248741    0.776144
     78          1           0        7.467420    4.275745    0.091955
     79          1           0        7.496502    3.637893    1.424107
     80          1           0       -8.261545   -3.174921   -0.008203
     81          1           0       -8.328348   -2.772199   -1.930682
     82          1           0       -6.822461   -3.299878   -1.150117
     83          1           0        6.974559    0.511296   -0.204260
     84          1           0       -6.461869    0.548823   -0.470550
     85          1           0        5.589731    3.074042    0.417320
     86          1           0       -4.894401   -2.012336   -0.678078
     87          1           0        4.476692    0.274854   -0.296683
     88          1           0       -4.206029    0.599150    0.330235
     89          1           0        3.454774    3.584151    1.403094
     90          1           0        1.728093    3.275732    0.793223
     91          1           0        2.954443    4.114638   -0.505169
     92          1           0       -2.919538   -2.775753   -0.094979
     93          1           0       -2.585401   -2.393909   -1.797849
     94          1           0       -1.204054   -2.614678   -0.837037
     95          1           0        2.323747   -0.268109   -0.422518
     96          1           0       -1.876225    1.272532   -0.085426
     97          1           0        0.252426    2.083327   -0.012795
     98          1           0        0.315519   -0.839704   -0.406653
 ---------------------------------------------------------------------

 SCF Done:  E(RCAM-B3LYP) =  -1706.91859052     A.U. after   18 cycles

 Excitation energies and oscillator strengths:

 Excited State   1:      Singlet-A      1.7265 eV  718.14 nm  f=3.7051  <S**2>=0.000
     155 ->158         0.11639
     156 ->157         0.71062
     156 <-157        -0.15503
 This state for optimization and/or second-order correction.
 Total Energy, E(TD-HF/TD-DFT) =  -1706.85514446
 Copying the excited state density for this state as the 1-particle RhoCI density.

 The electronic state is 1-A.
 Alpha  occ. eigenvalues --  -19.20608 -19.20477 -10.30964 -10.30376 -10.28986
 Alpha  occ. eigenvalues --  -10.28734 -10.27987 -10.27670 -10.27660 -10.27397
 Alpha  occ. eigenvalues --  -10.27301 -10.27286 -10.27157 -10.27028 -10.26793
 Alpha  occ. eigenvalues --  -10.26643 -10.26441 -10.26371 -10.26269 -10.26017
 Alpha  occ. eigenvalues --  -10.26004 -10.25942 -10.25905 -10.25850 -10.25626
 Alpha  occ. eigenvalues --  -10.25611 -10.25501 -10.25378 -10.25212 -10.25131
 Alpha  occ. eigenvalues --  -10.25010 -10.24994 -10.24925 -10.24857 -10.24822
 Alpha  occ. eigenvalues --  -10.24769 -10.24600 -10.23409 -10.22755 -10.22674
 Alpha  occ. eigenvalues --  -10.22316 -10.22263  -1.09854  -1.07140  -0.93684
 Alpha  occ. eigenvalues --   -0.93490  -0.92368  -0.92176  -0.90625  -0.89849
 Alpha  occ. eigenvalues --   -0.87610  -0.87180  -0.86996  -0.86018  -0.85347
 Alpha  occ. eigenvalues --   -0.83517  -0.82332  -0.81179  -0.80292  -0.78341
 Alpha  occ. eigenvalues --   -0.77276  -0.77065  -0.76550  -0.76006  -0.75843
 Alpha  occ. eigenvalues --   -0.75568  -0.75034  -0.74951  -0.73194  -0.71226
 Alpha  occ. eigenvalues --   -0.68741  -0.67432  -0.66349  -0.65200  -0.64224
 Alpha  occ. eigenvalues --   -0.63656  -0.62735  -0.61751  -0.60958  -0.60027
 Alpha  occ. eigenvalues --   -0.59871  -0.59403  -0.59073  -0.57628  -0.56249
 Alpha  occ. eigenvalues --   -0.55470  -0.55345  -0.54403  -0.54254  -0.53720
 Alpha  occ. eigenvalues --   -0.53345  -0.53087  -0.52712  -0.52298  -0.52067
 Alpha  occ. eigenvalues --   -0.51165  -0.50688  -0.49857  -0.49559  -0.49191
 Alpha  occ. eigenvalues --   -0.48988  -0.48899  -0.48304  -0.48189  -0.48099
 Alpha  occ. eigenvalues --   -0.47821  -0.47530  -0.47281  -0.46866  -0.46575
 Alpha  occ. eigenvalues --   -0.46522  -0.46012  -0.45437  -0.45138  -0.44727
 Alpha  occ. eigenvalues --   -0.44488  -0.43999  -0.43794  -0.43697  -0.43595
 Alpha  occ. eigenvalues --   -0.43395  -0.43075  -0.42495  -0.42376  -0.42018
 Alpha  occ. eigenvalues --   -0.41954  -0.41455  -0.41414  -0.41162  -0.40796
 Alpha  occ. eigenvalues --   -0.40580  -0.40524  -0.40206  -0.39616  -0.39181
 Alpha  occ. eigenvalues --   -0.38780  -0.38648  -0.38601  -0.38186  -0.37990
 Alpha  occ. eigenvalues --   -0.37376  -0.37056  -0.36617  -0.36235  -0.36151
 Alpha  occ. eigenvalues --   -0.35415  -0.34756  -0.33855  -0.32525  -0.31426
 Alpha  occ. eigenvalues --   -0.31197  -0.30084  -0.28285  -0.25999  -0.23325
 Alpha  occ. eigenvalues --   -0.17329
 Alpha virt. eigenvalues --   -0.07381  -0.00593   0.03016   0.06169   0.08540
 Alpha virt. eigenvalues --    0.10464   0.11856   0.12039   0.12498   0.12535
 Alpha virt. eigenvalues --    0.12772   0.13119   0.13227   0.13579   0.13828

 Mulliken charges:
               1
     1  O   -0.560839
     2  O   -0.586171
     3  C   -0.023390
     4  C   -0.053210
     5  C   -0.161762
     6  C   -0.192167
     7  C    0.162304
     8  C    0.185004
     9  C    0.066778
    10  C    0.081285
    11  C   -0.229648
    12  C   -0.215871
    13  C    0.043954
    14  C    0.055878
    15  C   -0.309549
    16  C   -0.299498
    17  C   -0.296323
    18  C   -0.291014
    19  C   -0.097288
    20  C   -0.082997
    21  C   -0.357871
    22  C   -0.370081
    23  C   -0.129521
    24  C   -0.107438
    25  C    0.063047
    26  C    0.091588
    27  C   -0.363890
    28  C   -0.370355
    29  C   -0.091650
    30  C   -0.120328
    31  C   -0.109844
    32  C   -0.084410
    33  C   -0.107155
    34  C   -0.151074
    35  C    0.100737
    36  C    0.143487
    37  C   -0.351002
    38  C   -0.384520
    39  C   -0.141132
    40  C   -0.122610
    41  C   -0.089772
    42  C   -0.058679
    43  H    0.101548
    44  H    0.067453
    45  H    0.061422
    46  H    0.105450
    47  H    0.073185
    48  H    0.072202
    49  H    0.125582
    50  H    0.106049
    51  H    0.119366
    52  H    0.100530
    53  H    0.084085
    54  H    0.100233
    55  H    0.110233
    56  H    0.104446
    57  H    0.099529
    58  H    0.102537
    59  H    0.108712
    60  H    0.095895
    61  H    0.107394
    62  H    0.100411
    63  H    0.098922
    64  H    0.102538
    65  H    0.085552
    66  H    0.057170
    67  H    0.135559
    68  H    0.117376
    69  H    0.096512
    70  H    0.084363
    71  H    0.129426
    72  H    0.121611
    73  H    0.305791
    74  H    0.305248
    75  H    0.074015
    76  H    0.076213
    77  H    0.099785
    78  H    0.134967
    79  H    0.146994
    80  H    0.123174
    81  H    0.117151
    82  H    0.117056
    83  H    0.079080
    84  H    0.087658
    85  H    0.071522
    86  H    0.060288
    87  H    0.084526
    88  H    0.066445
    89  H    0.113317
    90  H    0.127114
    91  H    0.111128
    92  H    0.107959
    93  H    0.120723
    94  H    0.117413
    95  H    0.082274
    96  H    0.061644
    97  H    0.082956
    98  H    0.067262
 Sum of Mulliken charges =  -0.00000

 Dipole moment (field-independent basis, Debye):
    X=              1.8650    Y=             -1.6377    Z=              0.8167  Tot=              2.6130
 Quadrupole moment (field-independent basis, Debye-Ang):
   XX=           -256.5646   YY=           -239.6914   ZZ=           -260.8386
   XY=             12.7337   XZ=             -4.4832   YZ=              1.8331

 Normal termination of Gaussian 16 at Sat Jul 13 06:57:28 2019.
