 Gaussian 16, Revision A.03,
 Gaussian 16:  ES64L-G16RevA.03 25-Dec-2016

 -------------------------------------
 # td=(NStates=1) CAM-B3LYP/6-31G(d,p)
 -------------------------------------

 --
 TD
 --
 Symbolic Z-matrix:
 Charge =  0 Multiplicity = 1

                         Standard orientation:
 ---------------------------------------------------------------------
 Center     Atomic      Atomic             Coordinates (Angstroms)
 Number     Number       Type             X           Y           Z
 ---------------------------------------------------------------------
      1          8           0       14.867676   -2.190700   -0.342457
      2          8           0      -14.753722    1.919042    1.023180
      3          6           0       11.294997   -1.337004    1.133142
      4          6           0      -12.441545   -1.026401    0.473745
      5          6           0       12.860525   -1.729352    1.018699
      6          6           0      -13.691005   -0.152441    0.647350
      7          6           0       13.400553   -1.785558   -0.386088
      8          6           0      -13.555590    1.236445    1.006775
      9          6           0       11.021637   -0.250465    0.093946
     10          6           0      -11.293471   -0.302354   -0.219414
     11          6           0       13.202995   -0.514756   -1.096281
     12          6           0      -12.767349    1.816292   -0.150001
     13          6           0       11.907268    0.022986   -0.954253
     14          6           0      -11.463142    1.055794   -0.431662
     15          6           0       10.913554   -0.868468    2.505383
     16          6           0       10.476474   -2.571823    0.787643
     17          6           0      -11.902643   -1.345928    1.950408
     18          6           0      -12.766539   -2.252807   -0.308539
     19          6           0        9.619706    0.316986    0.263580
     20          6           0      -10.107506   -0.960827   -0.479476
     21          6           0       11.541034    1.093319   -2.152477
     22          6           0      -10.520509    1.824386   -1.406976
     23          6           0        9.372994    1.640126   -0.041136
     24          6           0       -8.823536   -0.523835   -0.342551
     25          6           0        8.079547    2.188853    0.183224
     26          6           0       -7.576894   -1.298516   -0.678641
     27          6           0        7.955974    3.687651    0.419983
     28          6           0       -7.631623   -2.639994   -1.159747
     29          6           0        6.881958    1.457969    0.082650
     30          6           0       -6.410708   -0.552095   -0.318797
     31          6           0        5.608438    1.949285    0.133636
     32          6           0       -5.062597   -1.073069   -0.496977
     33          6           0        4.454938    1.226672    0.033704
     34          6           0       -3.945198   -0.362035   -0.301312
     35          6           0        3.110338    1.551736    0.097834
     36          6           0       -2.615799   -0.846954   -0.352662
     37          6           0        2.777508    3.096623    0.367797
     38          6           0       -2.301304   -2.283065   -0.710933
     39          6           0        2.081899    0.638653   -0.086287
     40          6           0       -1.621821    0.114631   -0.111596
     41          6           0        0.622604    0.931696   -0.074894
     42          6           0       -0.241799   -0.114768   -0.194587
     43          1           0       13.252834   -0.870689    1.467922
     44          1           0       13.039456   -2.605864    1.756465
     45          1           0      -14.290091   -0.822463    1.238874
     46          1           0      -14.331212   -0.140589   -0.282108
     47          1           0       12.944527   -2.693785   -0.940801
     48          1           0      -12.924051    1.487731    1.923006
     49          1           0       13.943722    0.219711   -0.599318
     50          1           0       13.580490   -0.601409   -2.000528
     51          1           0      -13.498958    1.836231   -1.175492
     52          1           0      -12.774402    3.021580   -0.048316
     53          1           0       11.282965   -1.202639    3.436682
     54          1           0        9.935203   -0.484449    2.765567
     55          1           0       11.501620    0.050318    2.581720
     56          1           0       10.688499   -2.966501   -0.152085
     57          1           0       10.553559   -3.415363    1.631043
     58          1           0        9.482705   -2.028422    0.607259
     59          1           0      -11.862364   -0.399865    2.500281
     60          1           0      -10.952753   -2.119611    1.936274
     61          1           0      -12.612800   -2.067338    2.315697
     62          1           0      -13.813234   -2.820113    0.186287
     63          1           0      -12.056106   -2.996987   -0.189033
     64          1           0      -13.005590   -2.217243   -1.282870
     65          1           0        8.904248   -0.355621    0.529189
     66          1           0      -10.103140   -1.992350   -0.887166
     67          1           0       10.464317    1.169628   -2.247196
     68          1           0       12.049218    2.149293   -1.839595
     69          1           0       11.976754    0.691817   -3.229297
     70          1           0      -10.935498    2.366105   -2.096893
     71          1           0       -9.672971    1.139181   -1.857327
     72          1           0       -9.916603    2.630206   -0.966261
     73          1           0       14.892863   -2.980112    0.172674
     74          1           0      -15.148449    1.683739    1.773004
     75          1           0       10.293613    2.282166   -0.202858
     76          1           0       -8.746336    0.384480    0.459237
     77          1           0        9.054308    4.188031    0.418018
     78          1           0        7.417827    4.180759   -0.569081
     79          1           0        7.405245    4.004350    1.349986
     80          1           0       -8.203162   -3.169869   -0.215621
     81          1           0       -8.340982   -2.801523   -2.010757
     82          1           0       -6.673869   -3.043351   -1.241131
     83          1           0        6.793421    0.425927   -0.247204
     84          1           0       -6.681230    0.376017   -0.091382
     85          1           0        5.589791    3.016023    0.233053
     86          1           0       -5.039403   -1.972472   -0.760445
     87          1           0        4.613860    0.161194   -0.416365
     88          1           0       -3.852972    0.709543   -0.094179
     89          1           0        3.114133    3.256797    1.423347
     90          1           0        1.722139    3.385210    0.309413
     91          1           0        3.257524    3.836609   -0.340097
     92          1           0       -3.032655   -2.864794    0.049061
     93          1           0       -2.625330   -2.295156   -1.820009
     94          1           0       -1.298095   -2.480338   -0.745605
     95          1           0        2.462931   -0.286363   -0.201592
     96          1           0       -1.841512    1.098587    0.201774
     97          1           0        0.257723    1.927758   -0.029636
     98          1           0        0.180450   -1.155980   -0.396657
 ---------------------------------------------------------------------

 SCF Done:  E(RCAM-B3LYP) =  -1706.93885030     A.U. after   15 cycles

 Excitation energies and oscillator strengths:

 Excited State   1:      Singlet-A      2.2735 eV  545.34 nm  f=3.8014  <S**2>=0.000
     155 ->158        -0.17928
     156 ->157         0.68071
 This state for optimization and/or second-order correction.
 Total Energy, E(TD-HF/TD-DFT) =  -1706.85529943
 Copying the excited state density for this state as the 1-particle RhoCI density.

 The electronic state is 1-A.
 Alpha  occ. eigenvalues --  -19.21106 -19.20061 -10.31247 -10.30417 -10.28155
 Alpha  occ. eigenvalues --  -10.28143 -10.28018 -10.27854 -10.27756 -10.27645
 Alpha  occ. eigenvalues --  -10.27509 -10.27290 -10.27256 -10.27228 -10.27197
 Alpha  occ. eigenvalues --  -10.26998 -10.26956 -10.26914 -10.26848 -10.26796
 Alpha  occ. eigenvalues --  -10.26652 -10.26549 -10.26321 -10.26248 -10.25963
 Alpha  occ. eigenvalues --  -10.25922 -10.25878 -10.25635 -10.25589 -10.25582
 Alpha  occ. eigenvalues --  -10.25372 -10.25345 -10.25333 -10.25254 -10.25172
 Alpha  occ. eigenvalues --  -10.24978 -10.24904 -10.24867 -10.24705 -10.24358
 Alpha  occ. eigenvalues --  -10.23655 -10.23518  -1.13443  -1.06771  -0.94089
 Alpha  occ. eigenvalues --   -0.94070  -0.92388  -0.91701  -0.90750  -0.89755
 Alpha  occ. eigenvalues --   -0.88257  -0.87624  -0.86395  -0.85894  -0.85219
 Alpha  occ. eigenvalues --   -0.83297  -0.82144  -0.80314  -0.79394  -0.77783
 Alpha  occ. eigenvalues --   -0.77335  -0.77253  -0.76535  -0.75962  -0.75923
 Alpha  occ. eigenvalues --   -0.75380  -0.74568  -0.74505  -0.73640  -0.70815
 Alpha  occ. eigenvalues --   -0.69403  -0.67919  -0.65900  -0.65216  -0.64198
 Alpha  occ. eigenvalues --   -0.63891  -0.63314  -0.62679  -0.61109  -0.60288
 Alpha  occ. eigenvalues --   -0.60121  -0.59277  -0.58405  -0.57456  -0.56441
 Alpha  occ. eigenvalues --   -0.56286  -0.55685  -0.55248  -0.54632  -0.54293
 Alpha  occ. eigenvalues --   -0.53314  -0.52923  -0.52679  -0.52001  -0.51069
 Alpha  occ. eigenvalues --   -0.50530  -0.50394  -0.50186  -0.49506  -0.49194
 Alpha  occ. eigenvalues --   -0.48857  -0.48592  -0.48269  -0.47951  -0.47862
 Alpha  occ. eigenvalues --   -0.47654  -0.47115  -0.46967  -0.46574  -0.46143
 Alpha  occ. eigenvalues --   -0.46139  -0.45920  -0.45254  -0.45227  -0.44967
 Alpha  occ. eigenvalues --   -0.44801  -0.44564  -0.44160  -0.43632  -0.43465
 Alpha  occ. eigenvalues --   -0.43350  -0.43208  -0.42650  -0.42301  -0.41958
 Alpha  occ. eigenvalues --   -0.41596  -0.41376  -0.41204  -0.41001  -0.40886
 Alpha  occ. eigenvalues --   -0.40625  -0.40377  -0.39898  -0.39822  -0.39732
 Alpha  occ. eigenvalues --   -0.39557  -0.39067  -0.38764  -0.37969  -0.37952
 Alpha  occ. eigenvalues --   -0.37531  -0.37489  -0.37289  -0.36107  -0.34937
 Alpha  occ. eigenvalues --   -0.34687  -0.34228  -0.33767  -0.33424  -0.32309
 Alpha  occ. eigenvalues --   -0.31993  -0.29679  -0.27963  -0.25845  -0.22766
 Alpha  occ. eigenvalues --   -0.19465
 Alpha virt. eigenvalues --   -0.05333  -0.01504   0.02255   0.05003   0.07154
 Alpha virt. eigenvalues --    0.09046   0.11139   0.11907   0.12251   0.12561
 Alpha virt. eigenvalues --    0.12928   0.13140   0.13415   0.13630   0.13804

 Mulliken charges:
               1
     1  O   -0.579949
     2  O   -0.518854
     3  C   -0.035700
     4  C   -0.022508
     5  C   -0.202004
     6  C   -0.181182
     7  C    0.159132
     8  C    0.158471
     9  C    0.024111
    10  C    0.114497
    11  C   -0.203209
    12  C   -0.220989
    13  C    0.042237
    14  C    0.031163
    15  C   -0.330069
    16  C   -0.263733
    17  C   -0.296300
    18  C   -0.298325
    19  C   -0.082281
    20  C   -0.138613
    21  C   -0.345504
    22  C   -0.357139
    23  C   -0.124573
    24  C   -0.118460
    25  C    0.072234
    26  C    0.094358
    27  C   -0.367897
    28  C   -0.371424
    29  C   -0.095457
    30  C   -0.090404
    31  C   -0.062430
    32  C   -0.084079
    33  C   -0.147128
    34  C   -0.075222
    35  C    0.114101
    36  C    0.087762
    37  C   -0.371076
    38  C   -0.344576
    39  C   -0.124833
    40  C   -0.141957
    41  C   -0.093570
    42  C   -0.062858
    43  H    0.107571
    44  H    0.076057
    45  H    0.080736
    46  H    0.103917
    47  H    0.078521
    48  H    0.074813
    49  H    0.120792
    50  H    0.121998
    51  H    0.087223
    52  H    0.092936
    53  H    0.108934
    54  H    0.118585
    55  H    0.100240
    56  H    0.106064
    57  H    0.087179
    58  H    0.076693
    59  H    0.112175
    60  H    0.086388
    61  H    0.103938
    62  H    0.044646
    63  H    0.112010
    64  H    0.126918
    65  H    0.109137
    66  H    0.070259
    67  H    0.138049
    68  H    0.100776
    69  H    0.086868
    70  H    0.115353
    71  H    0.104111
    72  H    0.097132
    73  H    0.302039
    74  H    0.290956
    75  H    0.103204
    76  H    0.088981
    77  H    0.090789
    78  H    0.103760
    79  H    0.130936
    80  H    0.104493
    81  H    0.133142
    82  H    0.122405
    83  H    0.072056
    84  H    0.073405
    85  H    0.076832
    86  H    0.051658
    87  H    0.065006
    88  H    0.079858
    89  H    0.120361
    90  H    0.103081
    91  H    0.111645
    92  H    0.113007
    93  H    0.119714
    94  H    0.116645
    95  H    0.070446
    96  H    0.083100
    97  H    0.091804
    98  H    0.084896
 Sum of Mulliken charges =  -0.00000

 Dipole moment (field-independent basis, Debye):
    X=             -1.5018    Y=             -1.3936    Z=              1.2292  Tot=              2.3892
 Quadrupole moment (field-independent basis, Debye-Ang):
   XX=           -287.1594   YY=           -245.2190   ZZ=           -258.8931
   XY=             17.4036   XZ=             -4.5184   YZ=              2.4640

 Normal termination of Gaussian 16 at Thu Jul 18 10:25:02 2019.
