 Gaussian 16, Revision A.03,
 Gaussian 16:  ES64L-G16RevA.03 25-Dec-2016

 -------------------------------------
 # td=(NStates=1) CAM-B3LYP/6-31G(d,p)
 -------------------------------------

 --
 TD
 --
 Symbolic Z-matrix:
 Charge =  0 Multiplicity = 1

                         Standard orientation:
 ---------------------------------------------------------------------
 Center     Atomic      Atomic             Coordinates (Angstroms)
 Number     Number       Type             X           Y           Z
 ---------------------------------------------------------------------
      1          8           0       14.537740   -2.540660   -0.198260
      2          8           0      -14.809069    1.802147    1.218887
      3          6           0       11.054216   -1.455064    1.032091
      4          6           0      -12.256878   -1.008212    0.637043
      5          6           0       12.515501   -1.937444    1.151562
      6          6           0      -13.630247   -0.325847    0.750821
      7          6           0       13.239622   -2.060269   -0.216746
      8          6           0      -13.508801    1.233689    0.943327
      9          6           0       10.900835   -0.210482    0.178752
     10          6           0      -11.266858   -0.231926   -0.136196
     11          6           0       13.348501   -0.526431   -0.699683
     12          6           0      -12.802220    1.781828   -0.143406
     13          6           0       11.937202    0.138850   -0.665570
     14          6           0      -11.510234    1.019147   -0.514773
     15          6           0       10.501051   -1.174249    2.464333
     16          6           0       10.193323   -2.586222    0.350609
     17          6           0      -11.782088   -1.261009    2.107848
     18          6           0      -12.480839   -2.439794    0.044261
     19          6           0        9.693798    0.471824    0.105839
     20          6           0      -10.014193   -0.955691   -0.486085
     21          6           0       11.909293    1.403776   -1.507687
     22          6           0      -10.643448    1.884976   -1.365178
     23          6           0        9.347019    1.848748    0.017715
     24          6           0       -8.755878   -0.493577   -0.437656
     25          6           0        8.028181    2.387479    0.120716
     26          6           0       -7.494772   -1.138216   -0.688624
     27          6           0        7.960553    3.757434    0.458099
     28          6           0       -7.572653   -2.572915   -1.256683
     29          6           0        6.906355    1.562251   -0.111514
     30          6           0       -6.340663   -0.574491   -0.338365
     31          6           0        5.590676    2.060816    0.038768
     32          6           0       -5.096252   -1.073958   -0.650508
     33          6           0        4.427135    1.223512   -0.173797
     34          6           0       -3.957523   -0.362624   -0.317135
     35          6           0        3.127348    1.624608   -0.105556
     36          6           0       -2.611006   -0.778591   -0.588670
     37          6           0        2.978000    3.056253    0.426837
     38          6           0       -2.264209   -2.153576   -1.187386
     39          6           0        2.048717    0.772142   -0.306756
     40          6           0       -1.526172    0.118341   -0.230968
     41          6           0        0.717890    0.957754   -0.167341
     42          6           0       -0.156053    0.015862   -0.491151
     43          1           0       12.950057   -1.285707    1.584465
     44          1           0       12.661648   -2.878366    1.602654
     45          1           0      -14.333371   -0.701490    1.482977
     46          1           0      -14.099840   -0.688569   -0.329092
     47          1           0       12.561233   -2.566781   -1.071508
     48          1           0      -12.866313    1.398594    1.855883
     49          1           0       14.038062    0.159699   -0.214652
     50          1           0       13.824270   -0.787879   -1.713577
     51          1           0      -13.396223    1.788885   -0.988860
     52          1           0      -12.458705    2.827436    0.060537
     53          1           0       10.354494   -2.176357    3.074415
     54          1           0        9.589116   -0.643791    2.514945
     55          1           0       11.388876   -0.539512    3.018411
     56          1           0       10.591109   -2.924324   -0.595044
     57          1           0       10.232794   -3.197785    1.132887
     58          1           0        9.124392   -2.267487    0.303698
     59          1           0      -12.195011   -0.455613    2.858793
     60          1           0      -10.821836   -1.761519    2.189024
     61          1           0      -12.400029   -1.978678    2.635158
     62          1           0      -13.337970   -3.130219    0.376476
     63          1           0      -11.576021   -3.049554    0.367200
     64          1           0      -12.838314   -2.425560   -0.963905
     65          1           0        8.708415    0.141849    0.408109
     66          1           0      -10.123593   -2.074829   -0.475896
     67          1           0       10.807368    1.730109   -1.835134
     68          1           0       12.598251    2.170987   -0.914573
     69          1           0       12.386042    1.246904   -2.710194
     70          1           0      -11.061601    2.611518   -2.245083
     71          1           0       -9.936436    1.139058   -1.880503
     72          1           0       -9.756598    2.633685   -0.864025
     73          1           0       14.381543   -3.573662    0.018751
     74          1           0      -15.208227    1.559748    2.042843
     75          1           0       10.236379    2.550120    0.029704
     76          1           0       -8.577107    0.631147   -0.150781
     77          1           0        8.934796    4.263240    0.796905
     78          1           0        7.447952    4.443292   -0.327293
     79          1           0        7.354881    3.639390    1.420038
     80          1           0       -8.252458   -3.416160   -0.677032
     81          1           0       -8.136781   -2.466031   -2.269051
     82          1           0       -6.490319   -3.072437   -1.435681
     83          1           0        7.180068    0.507730   -0.549735
     84          1           0       -6.454585    0.452696    0.014733
     85          1           0        5.392029    3.041228    0.533970
     86          1           0       -4.891083   -1.927532   -1.200928
     87          1           0        4.617898    0.188108   -0.438739
     88          1           0       -4.073452    0.617257    0.336357
     89          1           0        2.962878    2.864023    1.580737
     90          1           0        2.019705    3.421988   -0.080474
     91          1           0        4.060554    3.668118    0.109197
     92          1           0       -2.664136   -2.807721   -0.429397
     93          1           0       -2.578154   -2.467869   -2.316452
     94          1           0       -1.104569   -2.403669   -1.213988
     95          1           0        2.450231   -0.251722   -0.740340
     96          1           0       -1.912823    1.104051    0.219775
     97          1           0        0.388421    1.915109    0.457279
     98          1           0       -0.052639   -0.879234   -0.806118
 ---------------------------------------------------------------------

 SCF Done:  E(RCAM-B3LYP) =  -1706.87158645     A.U. after   16 cycles

 Excitation energies and oscillator strengths:

 Excited State   1:      Singlet-A      1.8788 eV  659.91 nm  f=3.6435  <S**2>=0.000
     155 ->158        -0.14787
     156 ->157         0.69413
     156 <-157        -0.10281
 This state for optimization and/or second-order correction.
 Total Energy, E(TD-HF/TD-DFT) =  -1706.80254116
 Copying the excited state density for this state as the 1-particle RhoCI density.

 The electronic state is 1-A.
 Alpha  occ. eigenvalues --  -19.23605 -19.20089 -10.31879 -10.30142 -10.28525
 Alpha  occ. eigenvalues --  -10.28223 -10.28204 -10.28040 -10.27960 -10.27737
 Alpha  occ. eigenvalues --  -10.27730 -10.27575 -10.27390 -10.27304 -10.27293
 Alpha  occ. eigenvalues --  -10.27280 -10.26880 -10.26845 -10.26842 -10.26828
 Alpha  occ. eigenvalues --  -10.26772 -10.26752 -10.26712 -10.26622 -10.26534
 Alpha  occ. eigenvalues --  -10.26522 -10.26506 -10.26250 -10.26201 -10.26173
 Alpha  occ. eigenvalues --  -10.26022 -10.25994 -10.25856 -10.25796 -10.25549
 Alpha  occ. eigenvalues --  -10.25487 -10.25418 -10.24794 -10.24561 -10.23984
 Alpha  occ. eigenvalues --  -10.23822 -10.23155  -1.10446  -1.08006  -0.94132
 Alpha  occ. eigenvalues --   -0.94018  -0.92639  -0.92065  -0.91613  -0.89995
 Alpha  occ. eigenvalues --   -0.87950  -0.87036  -0.86791  -0.85686  -0.84789
 Alpha  occ. eigenvalues --   -0.83358  -0.81993  -0.80192  -0.79315  -0.77985
 Alpha  occ. eigenvalues --   -0.76800  -0.75794  -0.75678  -0.75609  -0.75157
 Alpha  occ. eigenvalues --   -0.74907  -0.74620  -0.74539  -0.73189  -0.70887
 Alpha  occ. eigenvalues --   -0.68604  -0.67392  -0.65702  -0.65072  -0.64608
 Alpha  occ. eigenvalues --   -0.63547  -0.63285  -0.62129  -0.60507  -0.59444
 Alpha  occ. eigenvalues --   -0.59000  -0.58821  -0.58264  -0.56809  -0.56275
 Alpha  occ. eigenvalues --   -0.55499  -0.55072  -0.54932  -0.54506  -0.53861
 Alpha  occ. eigenvalues --   -0.53258  -0.53109  -0.52101  -0.51890  -0.50856
 Alpha  occ. eigenvalues --   -0.50578  -0.50256  -0.50148  -0.49810  -0.49466
 Alpha  occ. eigenvalues --   -0.49286  -0.48894  -0.48693  -0.48348  -0.48296
 Alpha  occ. eigenvalues --   -0.47454  -0.47268  -0.46766  -0.46289  -0.46185
 Alpha  occ. eigenvalues --   -0.45706  -0.45641  -0.45082  -0.44781  -0.44665
 Alpha  occ. eigenvalues --   -0.44447  -0.43778  -0.43669  -0.43144  -0.42931
 Alpha  occ. eigenvalues --   -0.42721  -0.42362  -0.42146  -0.42128  -0.41550
 Alpha  occ. eigenvalues --   -0.41188  -0.40959  -0.40893  -0.40647  -0.40452
 Alpha  occ. eigenvalues --   -0.40228  -0.39749  -0.39589  -0.39515  -0.39372
 Alpha  occ. eigenvalues --   -0.39087  -0.38904  -0.38399  -0.38369  -0.37786
 Alpha  occ. eigenvalues --   -0.37174  -0.37133  -0.36768  -0.35809  -0.35550
 Alpha  occ. eigenvalues --   -0.35117  -0.34460  -0.33927  -0.32701  -0.31960
 Alpha  occ. eigenvalues --   -0.31136  -0.30345  -0.28318  -0.26271  -0.23055
 Alpha  occ. eigenvalues --   -0.18496
 Alpha virt. eigenvalues --   -0.06805  -0.01743   0.01913   0.05265   0.07852
 Alpha virt. eigenvalues --    0.09368   0.09612   0.11216   0.11580   0.12214
 Alpha virt. eigenvalues --    0.12436   0.12931   0.12996   0.13279   0.13435

 Mulliken charges:
               1
     1  O   -0.540862
     2  O   -0.584173
     3  C   -0.054741
     4  C   -0.025970
     5  C   -0.127643
     6  C   -0.191087
     7  C    0.147337
     8  C    0.185695
     9  C    0.126220
    10  C    0.145987
    11  C   -0.228894
    12  C   -0.198464
    13  C    0.028829
    14  C    0.037837
    15  C   -0.301301
    16  C   -0.288412
    17  C   -0.311609
    18  C   -0.311736
    19  C   -0.128583
    20  C   -0.151743
    21  C   -0.342003
    22  C   -0.373052
    23  C   -0.147497
    24  C   -0.102747
    25  C    0.116297
    26  C    0.135092
    27  C   -0.384021
    28  C   -0.360330
    29  C   -0.128115
    30  C   -0.113928
    31  C   -0.128940
    32  C   -0.078690
    33  C   -0.107249
    34  C   -0.115195
    35  C    0.105284
    36  C    0.085974
    37  C   -0.357781
    38  C   -0.379008
    39  C   -0.114665
    40  C   -0.151850
    41  C   -0.092111
    42  C    0.009440
    43  H    0.100884
    44  H    0.073324
    45  H    0.084139
    46  H    0.063219
    47  H    0.059930
    48  H    0.076102
    49  H    0.120440
    50  H    0.108170
    51  H    0.127989
    52  H    0.105963
    53  H    0.085483
    54  H    0.122703
    55  H    0.082442
    56  H    0.107457
    57  H    0.107458
    58  H    0.097250
    59  H    0.086536
    60  H    0.109787
    61  H    0.101389
    62  H    0.091630
    63  H    0.095159
    64  H    0.111857
    65  H    0.084066
    66  H    0.081106
    67  H    0.122800
    68  H    0.108757
    69  H    0.061889
    70  H    0.099590
    71  H    0.115985
    72  H    0.084263
    73  H    0.309338
    74  H    0.305762
    75  H    0.088046
    76  H    0.076877
    77  H    0.111936
    78  H    0.122923
    79  H    0.125363
    80  H    0.098050
    81  H    0.115463
    82  H    0.093465
    83  H    0.098998
    84  H    0.084810
    85  H    0.097942
    86  H    0.089665
    87  H    0.073197
    88  H    0.081795
    89  H    0.124974
    90  H    0.110672
    91  H    0.090810
    92  H    0.137045
    93  H    0.109590
    94  H    0.104200
    95  H    0.068049
    96  H    0.065305
    97  H    0.090925
    98  H    0.045441
 Sum of Mulliken charges =  -0.00000

 Dipole moment (field-independent basis, Debye):
    X=              1.9318    Y=             -2.3976    Z=              1.9745  Tot=              3.6577
 Quadrupole moment (field-independent basis, Debye-Ang):
   XX=           -279.2740   YY=           -244.4511   ZZ=           -260.8295
   XY=              9.0240   XZ=             -5.3373   YZ=              4.0069

 Normal termination of Gaussian 16 at Fri Jul 12 15:20:24 2019.
