 Gaussian 16, Revision A.03,
 Gaussian 16:  ES64L-G16RevA.03 25-Dec-2016

 -------------------------------------
 # td=(NStates=1) CAM-B3LYP/6-31G(d,p)
 -------------------------------------

 --
 TD
 --
 Symbolic Z-matrix:
 Charge =  0 Multiplicity = 1

                         Standard orientation:
 ---------------------------------------------------------------------
 Center     Atomic      Atomic             Coordinates (Angstroms)
 Number     Number       Type             X           Y           Z
 ---------------------------------------------------------------------
      1          8           0       14.892289   -2.050102   -0.067084
      2          8           0      -14.614957    2.058030    0.873647
      3          6           0       11.221545   -1.471885    1.014533
      4          6           0      -12.342494   -1.039050    0.737113
      5          6           0       12.715827   -1.901304    1.020679
      6          6           0      -13.655039   -0.215102    0.724441
      7          6           0       13.404029   -1.793185   -0.243457
      8          6           0      -13.423402    1.250509    0.963516
      9          6           0       10.955608   -0.340038   -0.004435
     10          6           0      -11.244004   -0.263781   -0.129970
     11          6           0       13.351824   -0.395464   -0.889465
     12          6           0      -12.541618    1.854581   -0.072257
     13          6           0       11.930208    0.169872   -0.817193
     14          6           0      -11.413985    1.004316   -0.557958
     15          6           0       10.720314   -1.226533    2.395345
     16          6           0       10.498728   -2.732309    0.423183
     17          6           0      -11.983493   -1.245049    2.167885
     18          6           0      -12.796535   -2.299009    0.148070
     19          6           0        9.617933    0.374462    0.099125
     20          6           0      -10.083392   -1.057216   -0.453747
     21          6           0       11.665472    1.243572   -1.892772
     22          6           0      -10.525839    1.689704   -1.459188
     23          6           0        9.306507    1.612662    0.173586
     24          6           0       -8.769523   -0.626089   -0.395282
     25          6           0        8.056076    2.208326    0.325684
     26          6           0       -7.560182   -1.350663   -0.726632
     27          6           0        7.899446    3.755009    0.644851
     28          6           0       -7.626008   -2.792579   -0.987350
     29          6           0        6.872264    1.493807    0.094818
     30          6           0       -6.412023   -0.655184   -0.500501
     31          6           0        5.537892    1.928375    0.188638
     32          6           0       -5.095936   -1.153529   -0.579765
     33          6           0        4.403168    1.229415   -0.106639
     34          6           0       -3.970440   -0.329562   -0.532724
     35          6           0        3.086362    1.746630   -0.008995
     36          6           0       -2.635185   -0.770030   -0.669114
     37          6           0        2.747253    3.097098    0.520069
     38          6           0       -2.330505   -2.206532   -1.013369
     39          6           0        2.056531    0.872498   -0.307271
     40          6           0       -1.615751    0.247576   -0.402077
     41          6           0        0.639422    1.062087   -0.255636
     42          6           0       -0.251408   -0.010241   -0.393550
     43          1           0       13.193289   -1.261672    1.844370
     44          1           0       12.986458   -2.871037    1.416180
     45          1           0      -14.449815   -0.429717    1.578238
     46          1           0      -14.114262   -0.261749   -0.219474
     47          1           0       12.988249   -2.697605   -0.928112
     48          1           0      -12.932819    1.197948    1.993277
     49          1           0       13.951834    0.172022   -0.421482
     50          1           0       13.775062   -0.322223   -1.952150
     51          1           0      -13.114911    2.204499   -1.020098
     52          1           0      -12.166579    2.824851    0.308033
     53          1           0       10.892283   -2.045787    3.161818
     54          1           0        9.661282   -0.984954    2.364735
     55          1           0       11.281471   -0.165699    2.647909
     56          1           0       10.736196   -3.118683   -0.592323
     57          1           0       10.614156   -3.649352    1.010638
     58          1           0        9.464876   -2.467530    0.112351
     59          1           0      -12.072960   -0.302237    2.845672
     60          1           0      -10.988742   -1.692779    2.102432
     61          1           0      -12.808050   -1.957633    2.639570
     62          1           0      -13.943625   -2.621662    0.444400
     63          1           0      -12.171676   -3.222114    0.341356
     64          1           0      -13.044394   -2.209249   -0.963895
     65          1           0        8.848847   -0.349500    0.454584
     66          1           0      -10.089121   -2.068581   -0.575628
     67          1           0       10.620611    1.595321   -1.994422
     68          1           0       12.114097    2.019596   -1.428096
     69          1           0       11.924376    0.971312   -2.897909
     70          1           0      -11.072791    1.959106   -2.262371
     71          1           0       -9.829231    1.002145   -1.923907
     72          1           0       -9.868821    2.542613   -0.912296
     73          1           0       14.960669   -2.945330    0.453883
     74          1           0      -15.371314    1.580922    1.401745
     75          1           0       10.249717    2.444778    0.160906
     76          1           0       -8.804318    0.451635   -0.058066
     77          1           0        8.816551    4.113893    0.887541
     78          1           0        7.295679    4.365188   -0.122200
     79          1           0        7.060747    3.968448    1.514826
     80          1           0       -8.130999   -3.302466   -0.155381
     81          1           0       -8.278423   -2.897695   -1.896122
     82          1           0       -6.589361   -3.202263   -0.910272
     83          1           0        6.852536    0.450328   -0.171467
     84          1           0       -6.402564    0.633292   -0.348427
     85          1           0        5.464035    3.138871    0.280741
     86          1           0       -5.160304   -2.414422   -0.732939
     87          1           0        4.699060    0.176928   -0.344820
     88          1           0       -4.174354    0.705053   -0.448656
     89          1           0        3.326265    3.270928    1.614962
     90          1           0        1.719758    3.203978    0.431998
     91          1           0        3.196903    4.086285   -0.073100
     92          1           0       -2.958434   -2.861893   -0.499866
     93          1           0       -2.368279   -2.389918   -2.169961
     94          1           0       -1.185636   -2.375531   -0.646408
     95          1           0        2.256271   -0.058237   -0.737533
     96          1           0       -1.722502    1.106250   -0.000727
     97          1           0        0.108825    2.005904    0.123026
     98          1           0        0.077628   -0.904985   -0.632736
 ---------------------------------------------------------------------

 SCF Done:  E(RCAM-B3LYP) =  -1706.94073256     A.U. after   15 cycles

 Excitation energies and oscillator strengths:

 Excited State   1:      Singlet-A      2.0876 eV  593.90 nm  f=3.7669  <S**2>=0.000
     155 ->158         0.15201
     156 ->157         0.69137
 This state for optimization and/or second-order correction.
 Total Energy, E(TD-HF/TD-DFT) =  -1706.86401333
 Copying the excited state density for this state as the 1-particle RhoCI density.

 The electronic state is 1-A.
 Alpha  occ. eigenvalues --  -19.21633 -19.20969 -10.31384 -10.29754 -10.28600
 Alpha  occ. eigenvalues --  -10.28230 -10.28087 -10.27869 -10.27784 -10.27735
 Alpha  occ. eigenvalues --  -10.27731 -10.27538 -10.27488 -10.27376 -10.27311
 Alpha  occ. eigenvalues --  -10.27197 -10.26959 -10.26791 -10.26701 -10.26652
 Alpha  occ. eigenvalues --  -10.26639 -10.26631 -10.26569 -10.26272 -10.26235
 Alpha  occ. eigenvalues --  -10.26232 -10.26174 -10.26024 -10.26020 -10.25906
 Alpha  occ. eigenvalues --  -10.25832 -10.25714 -10.25564 -10.25441 -10.25273
 Alpha  occ. eigenvalues --  -10.25072 -10.24853 -10.24760 -10.24728 -10.24722
 Alpha  occ. eigenvalues --  -10.24193 -10.23913  -1.07578  -1.05245  -0.94118
 Alpha  occ. eigenvalues --   -0.93560  -0.92523  -0.91943  -0.91157  -0.90339
 Alpha  occ. eigenvalues --   -0.88737  -0.87810  -0.87076  -0.85809  -0.85021
 Alpha  occ. eigenvalues --   -0.83402  -0.82314  -0.80731  -0.80386  -0.78520
 Alpha  occ. eigenvalues --   -0.77046  -0.76918  -0.76273  -0.76172  -0.75949
 Alpha  occ. eigenvalues --   -0.75802  -0.75705  -0.75178  -0.73132  -0.70895
 Alpha  occ. eigenvalues --   -0.69015  -0.66754  -0.65504  -0.65126  -0.64351
 Alpha  occ. eigenvalues --   -0.64048  -0.63408  -0.61967  -0.60127  -0.59692
 Alpha  occ. eigenvalues --   -0.58937  -0.58515  -0.57944  -0.57411  -0.56738
 Alpha  occ. eigenvalues --   -0.55970  -0.54952  -0.54321  -0.54083  -0.53566
 Alpha  occ. eigenvalues --   -0.53217  -0.52998  -0.52563  -0.51973  -0.51197
 Alpha  occ. eigenvalues --   -0.50646  -0.50377  -0.50292  -0.50080  -0.49894
 Alpha  occ. eigenvalues --   -0.49324  -0.48652  -0.48544  -0.48042  -0.47762
 Alpha  occ. eigenvalues --   -0.47505  -0.47283  -0.46921  -0.46527  -0.46170
 Alpha  occ. eigenvalues --   -0.45905  -0.45730  -0.45601  -0.45471  -0.45024
 Alpha  occ. eigenvalues --   -0.44727  -0.44701  -0.43942  -0.43892  -0.43683
 Alpha  occ. eigenvalues --   -0.43452  -0.42968  -0.42269  -0.42022  -0.41943
 Alpha  occ. eigenvalues --   -0.41365  -0.41202  -0.41131  -0.40684  -0.40542
 Alpha  occ. eigenvalues --   -0.40331  -0.39930  -0.39717  -0.39648  -0.39036
 Alpha  occ. eigenvalues --   -0.38907  -0.38555  -0.38347  -0.38283  -0.37964
 Alpha  occ. eigenvalues --   -0.37889  -0.37461  -0.36879  -0.36522  -0.36182
 Alpha  occ. eigenvalues --   -0.35677  -0.35003  -0.34609  -0.32553  -0.31997
 Alpha  occ. eigenvalues --   -0.31514  -0.30255  -0.28615  -0.26231  -0.23356
 Alpha  occ. eigenvalues --   -0.19297
 Alpha virt. eigenvalues --   -0.06413  -0.01490   0.02267   0.05836   0.07837
 Alpha virt. eigenvalues --    0.09460   0.10059   0.10930   0.11004   0.11565
 Alpha virt. eigenvalues --    0.11964   0.12423   0.12687   0.12983   0.13217

 Mulliken charges:
               1
     1  O   -0.580439
     2  O   -0.569793
     3  C   -0.003561
     4  C    0.009588
     5  C   -0.176788
     6  C   -0.187998
     7  C    0.159932
     8  C    0.178431
     9  C    0.059524
    10  C    0.061163
    11  C   -0.191585
    12  C   -0.213936
    13  C   -0.006399
    14  C    0.062441
    15  C   -0.288406
    16  C   -0.316624
    17  C   -0.283205
    18  C   -0.302159
    19  C   -0.125402
    20  C   -0.148908
    21  C   -0.358799
    22  C   -0.362976
    23  C   -0.076991
    24  C   -0.089924
    25  C    0.090711
    26  C    0.082521
    27  C   -0.360154
    28  C   -0.364793
    29  C   -0.117979
    30  C   -0.091545
    31  C   -0.071427
    32  C   -0.087693
    33  C   -0.119601
    34  C   -0.108269
    35  C    0.126818
    36  C    0.077976
    37  C   -0.346224
    38  C   -0.354025
    39  C   -0.120786
    40  C   -0.080362
    41  C   -0.114854
    42  C   -0.058106
    43  H    0.088587
    44  H    0.081702
    45  H    0.056427
    46  H    0.100418
    47  H    0.072331
    48  H    0.064452
    49  H    0.137402
    50  H    0.103832
    51  H    0.108059
    52  H    0.114321
    53  H    0.104924
    54  H    0.111644
    55  H    0.085159
    56  H    0.101376
    57  H    0.099113
    58  H    0.092224
    59  H    0.096128
    60  H    0.106264
    61  H    0.088822
    62  H    0.082261
    63  H    0.091468
    64  H    0.103418
    65  H    0.082426
    66  H    0.065317
    67  H    0.116637
    68  H    0.130649
    69  H    0.115954
    70  H    0.118734
    71  H    0.122163
    72  H    0.098218
    73  H    0.297210
    74  H    0.299825
    75  H    0.060647
    76  H    0.083425
    77  H    0.114478
    78  H    0.123316
    79  H    0.099082
    80  H    0.129372
    81  H    0.131677
    82  H    0.102587
    83  H    0.072226
    84  H    0.062411
    85  H    0.053024
    86  H    0.061654
    87  H    0.084067
    88  H    0.092172
    89  H    0.103700
    90  H    0.118221
    91  H    0.091830
    92  H    0.134937
    93  H    0.122808
    94  H    0.091795
    95  H    0.086124
    96  H    0.063834
    97  H    0.082996
    98  H    0.066752
 Sum of Mulliken charges =  -0.00000

 Dipole moment (field-independent basis, Debye):
    X=             -1.3123    Y=             -2.2512    Z=              0.7876  Tot=              2.7221
 Quadrupole moment (field-independent basis, Debye-Ang):
   XX=           -291.3185   YY=           -245.5546   ZZ=           -263.3192
   XY=             13.3887   XZ=              2.4323   YZ=             -0.4683

 Normal termination of Gaussian 16 at Mon Jul 15 04:49:18 2019.
