 Gaussian 16, Revision A.03,
 Gaussian 16:  ES64L-G16RevA.03 25-Dec-2016

 -------------------------------------
 # td=(NStates=1) CAM-B3LYP/6-31G(d,p)
 -------------------------------------

 --
 TD
 --
 Symbolic Z-matrix:
 Charge =  0 Multiplicity = 1

                         Standard orientation:
 ---------------------------------------------------------------------
 Center     Atomic      Atomic             Coordinates (Angstroms)
 Number     Number       Type             X           Y           Z
 ---------------------------------------------------------------------
      1          8           0       14.519274   -2.526562   -0.353442
      2          8           0      -14.694245    1.969007    0.991920
      3          6           0       11.156760   -1.535014    0.950091
      4          6           0      -12.368772   -1.131239    0.482831
      5          6           0       12.603368   -2.096341    0.968222
      6          6           0      -13.714023   -0.279485    0.617075
      7          6           0       13.158214   -2.039327   -0.379543
      8          6           0      -13.428567    1.182784    0.879150
      9          6           0       10.924945   -0.335334   -0.025258
     10          6           0      -11.292243   -0.280819   -0.332037
     11          6           0       13.206038   -0.634774   -0.976651
     12          6           0      -12.723936    1.831852   -0.268661
     13          6           0       11.925010    0.038743   -0.956540
     14          6           0      -11.456827    1.037385   -0.617010
     15          6           0       10.840911   -1.164260    2.416949
     16          6           0       10.101626   -2.684581    0.468405
     17          6           0      -11.890608   -1.493056    1.933357
     18          6           0      -12.733839   -2.476577   -0.259661
     19          6           0        9.577865    0.366491    0.227228
     20          6           0      -10.070713   -1.032318   -0.478315
     21          6           0       11.664227    1.062894   -1.973353
     22          6           0      -10.387038    1.814683   -1.447183
     23          6           0        9.328505    1.655254    0.169351
     24          6           0       -8.792139   -0.533531   -0.353432
     25          6           0        8.042432    2.423885    0.122353
     26          6           0       -7.573358   -1.417648   -0.603182
     27          6           0        7.996956    3.839767    0.250816
     28          6           0       -7.604501   -2.740453   -1.080270
     29          6           0        6.881670    1.708500    0.023813
     30          6           0       -6.395240   -0.755712   -0.329251
     31          6           0        5.654363    2.339702    0.234712
     32          6           0       -5.059994   -1.189008   -0.417046
     33          6           0        4.512620    1.536145    0.007805
     34          6           0       -3.924745   -0.386811   -0.211318
     35          6           0        3.135380    1.907870    0.170113
     36          6           0       -2.542585   -0.672372   -0.336339
     37          6           0        2.860422    3.343191    0.536362
     38          6           0       -2.243140   -2.137840   -0.614071
     39          6           0        2.144861    0.978564    0.009924
     40          6           0       -1.543378    0.319323   -0.126608
     41          6           0        0.740744    1.231773    0.013097
     42          6           0       -0.141624    0.180386   -0.183984
     43          1           0       13.136999   -1.500775    1.648610
     44          1           0       12.661846   -3.124054    1.286730
     45          1           0      -14.316325   -0.601518    1.409989
     46          1           0      -14.263172   -0.222632   -0.291409
     47          1           0       12.491103   -2.692430   -1.007442
     48          1           0      -12.974388    1.163045    1.899769
     49          1           0       14.087801   -0.406440   -0.095113
     50          1           0       13.775060   -0.496455   -2.001113
     51          1           0      -13.418330    2.021899   -0.981808
     52          1           0      -12.323254    2.914878    0.076961
     53          1           0       10.925238   -2.050071    3.053378
     54          1           0        9.818374   -0.709455    2.410305
     55          1           0       11.742125   -0.566405    2.807597
     56          1           0       10.376993   -2.729951   -0.559708
     57          1           0       10.521531   -3.657416    0.997878
     58          1           0        9.064869   -2.378298    0.602424
     59          1           0      -11.630853   -0.509792    2.638737
     60          1           0      -10.966284   -2.031674    1.999229
     61          1           0      -12.681887   -2.099524    2.338542
     62          1           0      -13.491580   -2.942361    0.213164
     63          1           0      -11.836405   -3.186866   -0.527047
     64          1           0      -13.253227   -2.239658   -1.223820
     65          1           0        8.724544   -0.461803    0.343385
     66          1           0      -10.278864   -2.086642   -0.750608
     67          1           0       10.530335    1.585087   -1.879465
     68          1           0       12.278755    2.058492   -1.757551
     69          1           0       12.050957    0.641461   -2.986258
     70          1           0      -10.925858    2.273360   -2.239692
     71          1           0       -9.581942    1.194295   -2.005313
     72          1           0       -9.674913    2.347409   -0.807879
     73          1           0       14.716776   -3.133020    0.279612
     74          1           0      -15.347530    1.686621    1.765486
     75          1           0       10.262556    2.222838    0.158408
     76          1           0       -8.660256    0.346844    0.047488
     77          1           0        9.070213    4.223321    0.423061
     78          1           0        7.378470    4.366533   -0.616325
     79          1           0        7.431630    4.150556    1.147790
     80          1           0       -7.837650   -3.351554   -0.381023
     81          1           0       -8.179945   -3.007577   -1.914661
     82          1           0       -6.640139   -3.252773   -1.209357
     83          1           0        7.033113    0.439543    0.174083
     84          1           0       -6.629474    0.295904    0.021798
     85          1           0        5.758030    3.368167    0.498555
     86          1           0       -4.778613   -1.985120   -0.705292
     87          1           0        4.721441    0.457329   -0.204597
     88          1           0       -3.987861    0.822737   -0.140206
     89          1           0        3.630702    3.650294    1.440199
     90          1           0        1.680827    3.385727    0.796545
     91          1           0        3.100063    4.135520   -0.419011
     92          1           0       -2.964439   -2.782158   -0.070830
     93          1           0       -2.292956   -2.372305   -1.801326
     94          1           0       -1.214194   -2.155202   -0.109000
     95          1           0        2.478095    0.075440    0.036547
     96          1           0       -1.863356    1.256173    0.262606
     97          1           0        0.294075    2.137405    0.369917
     98          1           0        0.253056   -0.722662   -0.642393
 ---------------------------------------------------------------------

 SCF Done:  E(RCAM-B3LYP) =  -1706.91737981     A.U. after   15 cycles

 Excitation energies and oscillator strengths:

 Excited State   1:      Singlet-A      2.2141 eV  559.97 nm  f=3.6707  <S**2>=0.000
     155 ->158        -0.16173
     156 ->157         0.68697
 This state for optimization and/or second-order correction.
 Total Energy, E(TD-HF/TD-DFT) =  -1706.83601273
 Copying the excited state density for this state as the 1-particle RhoCI density.

 The electronic state is 1-A.
 Alpha  occ. eigenvalues --  -19.20700 -19.20020 -10.30495 -10.30287 -10.29094
 Alpha  occ. eigenvalues --  -10.28782 -10.27898 -10.27496 -10.27484 -10.27268
 Alpha  occ. eigenvalues --  -10.27239 -10.27226 -10.27171 -10.27169 -10.27150
 Alpha  occ. eigenvalues --  -10.27130 -10.27114 -10.26999 -10.26943 -10.26930
 Alpha  occ. eigenvalues --  -10.26921 -10.26734 -10.26728 -10.26566 -10.26471
 Alpha  occ. eigenvalues --  -10.26387 -10.26238 -10.26047 -10.25965 -10.25919
 Alpha  occ. eigenvalues --  -10.25833 -10.25809 -10.25788 -10.25456 -10.25338
 Alpha  occ. eigenvalues --  -10.25320 -10.25243 -10.25086 -10.24827 -10.24497
 Alpha  occ. eigenvalues --  -10.24205 -10.23587  -1.09708  -1.05192  -0.93240
 Alpha  occ. eigenvalues --   -0.92757  -0.92466  -0.91881  -0.91273  -0.90170
 Alpha  occ. eigenvalues --   -0.87460  -0.86777  -0.86159  -0.85874  -0.85290
 Alpha  occ. eigenvalues --   -0.83773  -0.82372  -0.80968  -0.80657  -0.78297
 Alpha  occ. eigenvalues --   -0.77268  -0.76133  -0.76011  -0.75796  -0.75207
 Alpha  occ. eigenvalues --   -0.75090  -0.74797  -0.74327  -0.73483  -0.70891
 Alpha  occ. eigenvalues --   -0.68817  -0.67367  -0.66242  -0.64842  -0.64041
 Alpha  occ. eigenvalues --   -0.63269  -0.62894  -0.62285  -0.62170  -0.60271
 Alpha  occ. eigenvalues --   -0.59102  -0.58866  -0.58479  -0.57519  -0.56491
 Alpha  occ. eigenvalues --   -0.55918  -0.55321  -0.54925  -0.54238  -0.53598
 Alpha  occ. eigenvalues --   -0.52999  -0.52502  -0.51848  -0.51471  -0.50914
 Alpha  occ. eigenvalues --   -0.50702  -0.50147  -0.50086  -0.49532  -0.49010
 Alpha  occ. eigenvalues --   -0.48842  -0.48683  -0.48335  -0.48049  -0.47911
 Alpha  occ. eigenvalues --   -0.47499  -0.47115  -0.46914  -0.46508  -0.46359
 Alpha  occ. eigenvalues --   -0.46140  -0.45795  -0.45705  -0.45644  -0.45386
 Alpha  occ. eigenvalues --   -0.45034  -0.44491  -0.44186  -0.43904  -0.43657
 Alpha  occ. eigenvalues --   -0.43174  -0.42713  -0.42529  -0.42419  -0.41945
 Alpha  occ. eigenvalues --   -0.41673  -0.41476  -0.41091  -0.40962  -0.40744
 Alpha  occ. eigenvalues --   -0.40684  -0.39837  -0.39622  -0.39499  -0.39126
 Alpha  occ. eigenvalues --   -0.38925  -0.38304  -0.38244  -0.38008  -0.37550
 Alpha  occ. eigenvalues --   -0.37332  -0.37047  -0.36492  -0.36304  -0.36030
 Alpha  occ. eigenvalues --   -0.35319  -0.34615  -0.33837  -0.32448  -0.32328
 Alpha  occ. eigenvalues --   -0.31416  -0.29778  -0.27560  -0.26028  -0.23399
 Alpha  occ. eigenvalues --   -0.19814
 Alpha virt. eigenvalues --   -0.06121  -0.01364   0.02173   0.04380   0.06904
 Alpha virt. eigenvalues --    0.09119   0.10740   0.11046   0.11633   0.12169
 Alpha virt. eigenvalues --    0.12432   0.12794   0.13043   0.13426   0.13643

 Mulliken charges:
               1
     1  O   -0.567785
     2  O   -0.598359
     3  C   -0.039917
     4  C   -0.020927
     5  C   -0.190026
     6  C   -0.180031
     7  C    0.172452
     8  C    0.159829
     9  C    0.026189
    10  C    0.077535
    11  C   -0.220749
    12  C   -0.201332
    13  C    0.122818
    14  C    0.009576
    15  C   -0.289103
    16  C   -0.300032
    17  C   -0.292081
    18  C   -0.310361
    19  C   -0.091403
    20  C   -0.119999
    21  C   -0.371454
    22  C   -0.368092
    23  C   -0.130883
    24  C   -0.089786
    25  C    0.116050
    26  C    0.130240
    27  C   -0.406788
    28  C   -0.397507
    29  C   -0.091481
    30  C   -0.129891
    31  C   -0.093074
    32  C   -0.033868
    33  C   -0.121802
    34  C   -0.117227
    35  C    0.120747
    36  C    0.092071
    37  C   -0.342754
    38  C   -0.364776
    39  C   -0.095201
    40  C   -0.124971
    41  C   -0.092993
    42  C   -0.083309
    43  H    0.100359
    44  H    0.091218
    45  H    0.082493
    46  H    0.101887
    47  H    0.077583
    48  H    0.082680
    49  H    0.094758
    50  H    0.099630
    51  H    0.135980
    52  H    0.097546
    53  H    0.096466
    54  H    0.103948
    55  H    0.089473
    56  H    0.117325
    57  H    0.084457
    58  H    0.107790
    59  H    0.077020
    60  H    0.114452
    61  H    0.104850
    62  H    0.113132
    63  H    0.091704
    64  H    0.103489
    65  H    0.068147
    66  H    0.077707
    67  H    0.107942
    68  H    0.099495
    69  H    0.103745
    70  H    0.116993
    71  H    0.111573
    72  H    0.119894
    73  H    0.293058
    74  H    0.301236
    75  H    0.090550
    76  H    0.080357
    77  H    0.105406
    78  H    0.121601
    79  H    0.130650
    80  H    0.141351
    81  H    0.128412
    82  H    0.107425
    83  H    0.061752
    84  H    0.073173
    85  H    0.093061
    86  H    0.034657
    87  H    0.084919
    88  H    0.055035
    89  H    0.104125
    90  H    0.092806
    91  H    0.095080
    92  H    0.121823
    93  H    0.111913
    94  H    0.109256
    95  H    0.074075
    96  H    0.082146
    97  H    0.091184
    98  H    0.091671
 Sum of Mulliken charges =  -0.00000

 Dipole moment (field-independent basis, Debye):
    X=             -1.7608    Y=             -2.0922    Z=              2.0739  Tot=              3.4321
 Quadrupole moment (field-independent basis, Debye-Ang):
   XX=           -271.4351   YY=           -246.1367   ZZ=           -262.7467
   XY=             21.4671   XZ=              6.4599   YZ=             -0.6768

 Normal termination of Gaussian 16 at Thu Jul 18 04:20:11 2019.
