 Gaussian 16, Revision A.03,
 Gaussian 16:  ES64L-G16RevA.03 25-Dec-2016

 -------------------------------------
 # td=(NStates=1) CAM-B3LYP/6-31G(d,p)
 -------------------------------------

 --
 TD
 --
 Symbolic Z-matrix:
 Charge =  0 Multiplicity = 1

                         Standard orientation:
 ---------------------------------------------------------------------
 Center     Atomic      Atomic             Coordinates (Angstroms)
 Number     Number       Type             X           Y           Z
 ---------------------------------------------------------------------
      1          8           0       14.973865   -1.932426   -0.397067
      2          8           0      -14.734289    2.098636    0.570210
      3          6           0       11.379346   -1.364513    0.890546
      4          6           0      -12.458029   -0.933517    0.590719
      5          6           0       12.958920   -1.574445    0.998746
      6          6           0      -13.721607   -0.103030    0.539908
      7          6           0       13.510387   -1.616036   -0.371140
      8          6           0      -13.577078    1.397438    0.675082
      9          6           0       11.024931   -0.250855   -0.052376
     10          6           0      -11.384664   -0.163238   -0.141768
     11          6           0       13.361131   -0.363636   -1.112116
     12          6           0      -12.639250    1.921135   -0.384491
     13          6           0       11.910274    0.137219   -0.954395
     14          6           0      -11.361166    1.120854   -0.577787
     15          6           0       10.813838   -1.017525    2.369399
     16          6           0       10.629808   -2.704304    0.421641
     17          6           0      -12.062831   -1.264948    2.051043
     18          6           0      -12.786430   -2.347038    0.030910
     19          6           0        9.767912    0.401604    0.025725
     20          6           0      -10.014836   -0.924638   -0.313257
     21          6           0       11.585349    1.192670   -2.032721
     22          6           0      -10.469773    1.827048   -1.555638
     23          6           0        9.389559    1.737222    0.054488
     24          6           0       -8.770268   -0.503518   -0.124441
     25          6           0        7.992782    2.226978    0.354969
     26          6           0       -7.628620   -1.340261   -0.537695
     27          6           0        7.840782    3.663476    0.663955
     28          6           0       -7.759112   -2.696096   -0.867501
     29          6           0        6.940787    1.466386    0.147657
     30          6           0       -6.424880   -0.727877   -0.316713
     31          6           0        5.536742    1.965342    0.319687
     32          6           0       -5.112167   -1.296989   -0.508962
     33          6           0        4.415565    1.177098    0.056216
     34          6           0       -3.964120   -0.444248   -0.408863
     35          6           0        3.023323    1.597503    0.124456
     36          6           0       -2.667790   -1.027961   -0.523798
     37          6           0        2.512687    2.922681    0.389840
     38          6           0       -2.446272   -2.413341   -0.747735
     39          6           0        2.145875    0.606716   -0.026928
     40          6           0       -1.630663   -0.102228   -0.203530
     41          6           0        0.665873    0.730763    0.122668
     42          6           0       -0.198213   -0.274270   -0.101525
     43          1           0       13.435270   -0.725372    1.690717
     44          1           0       13.241085   -2.451768    1.450504
     45          1           0      -14.518837   -0.278207    1.328044
     46          1           0      -14.341550   -0.098736   -0.283448
     47          1           0       13.010880   -2.445798   -0.923022
     48          1           0      -13.259136    1.729002    1.749536
     49          1           0       14.099064    0.210861   -0.569409
     50          1           0       13.681844   -0.692675   -1.966939
     51          1           0      -13.017751    1.919437   -1.591933
     52          1           0      -12.243208    2.884952   -0.360403
     53          1           0       10.911458   -1.828020    3.073927
     54          1           0        9.848154   -0.772062    2.214303
     55          1           0       11.402640   -0.070943    2.871497
     56          1           0       10.991936   -2.857843   -0.635900
     57          1           0       11.022428   -3.629754    0.994030
     58          1           0        9.506719   -2.523669    0.495806
     59          1           0      -12.049586   -0.251958    2.560028
     60          1           0      -11.022702   -1.625410    2.434306
     61          1           0      -12.797331   -1.711485    2.750782
     62          1           0      -13.692026   -2.789013    0.578326
     63          1           0      -11.904346   -2.982176   -0.078693
     64          1           0      -13.095546   -2.124404   -0.971986
     65          1           0        8.716305   -0.093763    0.135623
     66          1           0      -10.083043   -1.898658   -0.645641
     67          1           0       10.443359    1.224507   -2.153290
     68          1           0       11.894503    2.202739   -1.796444
     69          1           0       11.947893    0.811303   -2.928360
     70          1           0      -11.046185    2.210515   -2.332183
     71          1           0       -9.661251    1.172324   -1.930684
     72          1           0       -9.789767    2.654800   -1.009457
     73          1           0       14.915649   -2.741479    0.424093
     74          1           0      -15.372919    1.533194    1.124847
     75          1           0       10.121293    2.378788    0.378763
     76          1           0       -8.607690    0.602500    0.297354
     77          1           0        8.828856    4.250163    0.713971
     78          1           0        7.475936    4.387386   -0.125448
     79          1           0        7.162846    3.982497    1.464841
     80          1           0       -8.006055   -3.249061    0.005675
     81          1           0       -8.448246   -3.023961   -1.584141
     82          1           0       -6.908106   -3.163466   -1.187689
     83          1           0        7.060729    0.476834   -0.079486
     84          1           0       -6.249740    0.275502    0.106736
     85          1           0        5.458935    2.984520    0.601093
     86          1           0       -4.878516   -2.350130   -0.674985
     87          1           0        4.425141    0.049266   -0.035458
     88          1           0       -3.981508    0.536296   -0.112567
     89          1           0        2.307631    2.962664    1.698719
     90          1           0        1.533653    3.462099    0.045060
     91          1           0        3.490179    3.681606    0.071774
     92          1           0       -2.548662   -3.242155    0.127142
     93          1           0       -3.036369   -2.763020   -1.538451
     94          1           0       -1.358027   -2.369339   -1.265314
     95          1           0        2.639497   -0.354934   -0.146649
     96          1           0       -1.856630    0.955808    0.125384
     97          1           0        0.255478    1.792697    0.451829
     98          1           0        0.060149   -1.378404   -0.207503
 ---------------------------------------------------------------------

 SCF Done:  E(RCAM-B3LYP) =  -1706.92640232     A.U. after   14 cycles

 Excitation energies and oscillator strengths:

 Excited State   1:      Singlet-A      2.5871 eV  479.23 nm  f=3.4228  <S**2>=0.000
     155 ->158        -0.16858
     156 ->157         0.68071
 This state for optimization and/or second-order correction.
 Total Energy, E(TD-HF/TD-DFT) =  -1706.83132632
 Copying the excited state density for this state as the 1-particle RhoCI density.

 The electronic state is 1-A.
 Alpha  occ. eigenvalues --  -19.22141 -19.21725 -10.30671 -10.29680 -10.29454
 Alpha  occ. eigenvalues --  -10.28808 -10.28745 -10.27895 -10.27544 -10.27455
 Alpha  occ. eigenvalues --  -10.27194 -10.27033 -10.26993 -10.26939 -10.26883
 Alpha  occ. eigenvalues --  -10.26866 -10.26863 -10.26834 -10.26791 -10.26770
 Alpha  occ. eigenvalues --  -10.26663 -10.26511 -10.26476 -10.26147 -10.26138
 Alpha  occ. eigenvalues --  -10.26077 -10.26059 -10.25916 -10.25823 -10.25779
 Alpha  occ. eigenvalues --  -10.25770 -10.25719 -10.25512 -10.25332 -10.25290
 Alpha  occ. eigenvalues --  -10.25094 -10.25002 -10.24971 -10.24653 -10.23916
 Alpha  occ. eigenvalues --  -10.23791 -10.23563  -1.11691  -1.05319  -0.94087
 Alpha  occ. eigenvalues --   -0.93569  -0.92405  -0.92050  -0.91137  -0.90732
 Alpha  occ. eigenvalues --   -0.87614  -0.86793  -0.86134  -0.86072  -0.84479
 Alpha  occ. eigenvalues --   -0.82886  -0.82171  -0.80745  -0.80076  -0.77586
 Alpha  occ. eigenvalues --   -0.77248  -0.77170  -0.76535  -0.76236  -0.76024
 Alpha  occ. eigenvalues --   -0.75791  -0.75523  -0.75230  -0.73857  -0.70568
 Alpha  occ. eigenvalues --   -0.68430  -0.66978  -0.65651  -0.65164  -0.64536
 Alpha  occ. eigenvalues --   -0.63818  -0.62707  -0.61201  -0.60862  -0.60477
 Alpha  occ. eigenvalues --   -0.59843  -0.58521  -0.57829  -0.57508  -0.56410
 Alpha  occ. eigenvalues --   -0.56266  -0.56137  -0.55275  -0.54538  -0.54014
 Alpha  occ. eigenvalues --   -0.53426  -0.52711  -0.51706  -0.51257  -0.50733
 Alpha  occ. eigenvalues --   -0.50596  -0.50363  -0.49787  -0.49639  -0.49366
 Alpha  occ. eigenvalues --   -0.48834  -0.48645  -0.48571  -0.48217  -0.47872
 Alpha  occ. eigenvalues --   -0.47728  -0.47621  -0.47132  -0.46369  -0.46245
 Alpha  occ. eigenvalues --   -0.46196  -0.46122  -0.45903  -0.45523  -0.45349
 Alpha  occ. eigenvalues --   -0.45020  -0.44343  -0.44206  -0.43944  -0.43083
 Alpha  occ. eigenvalues --   -0.43076  -0.42696  -0.42510  -0.42410  -0.42262
 Alpha  occ. eigenvalues --   -0.42127  -0.41545  -0.41308  -0.41221  -0.41129
 Alpha  occ. eigenvalues --   -0.40471  -0.40455  -0.40273  -0.39953  -0.39728
 Alpha  occ. eigenvalues --   -0.39408  -0.39140  -0.37967  -0.37728  -0.37430
 Alpha  occ. eigenvalues --   -0.37392  -0.36926  -0.36570  -0.36184  -0.35669
 Alpha  occ. eigenvalues --   -0.35477  -0.34840  -0.34050  -0.32182  -0.31805
 Alpha  occ. eigenvalues --   -0.31301  -0.29949  -0.28267  -0.26717  -0.23795
 Alpha  occ. eigenvalues --   -0.20367
 Alpha virt. eigenvalues --   -0.04641  -0.00799   0.02681   0.05419   0.07260
 Alpha virt. eigenvalues --    0.08369   0.09223   0.10370   0.10385   0.11396
 Alpha virt. eigenvalues --    0.11778   0.12542   0.12859   0.13007   0.13326

 Mulliken charges:
               1
     1  O   -0.573242
     2  O   -0.539457
     3  C   -0.049383
     4  C    0.005334
     5  C   -0.175635
     6  C   -0.213506
     7  C    0.129393
     8  C    0.175252
     9  C    0.153319
    10  C    0.047244
    11  C   -0.176886
    12  C   -0.203680
    13  C   -0.012029
    14  C    0.053897
    15  C   -0.296801
    16  C   -0.300994
    17  C   -0.313794
    18  C   -0.293700
    19  C   -0.148489
    20  C   -0.144898
    21  C   -0.353401
    22  C   -0.357460
    23  C   -0.095433
    24  C   -0.084337
    25  C    0.098007
    26  C    0.114780
    27  C   -0.403515
    28  C   -0.394425
    29  C   -0.093585
    30  C   -0.124000
    31  C   -0.112053
    32  C   -0.114585
    33  C   -0.119559
    34  C   -0.090522
    35  C    0.187079
    36  C    0.124529
    37  C   -0.360827
    38  C   -0.382297
    39  C   -0.137646
    40  C   -0.141851
    41  C   -0.110585
    42  C   -0.064194
    43  H    0.089582
    44  H    0.079178
    45  H    0.062047
    46  H    0.120320
    47  H    0.082712
    48  H    0.063569
    49  H    0.128489
    50  H    0.121446
    51  H    0.075456
    52  H    0.116570
    53  H    0.102313
    54  H    0.117111
    55  H    0.076313
    56  H    0.104761
    57  H    0.095636
    58  H    0.108414
    59  H    0.087291
    60  H    0.109842
    61  H    0.101641
    62  H    0.101941
    63  H    0.107500
    64  H    0.101483
    65  H    0.070915
    66  H    0.066792
    67  H    0.108251
    68  H    0.119997
    69  H    0.109462
    70  H    0.122726
    71  H    0.126719
    72  H    0.097019
    73  H    0.287058
    74  H    0.298282
    75  H    0.084632
    76  H    0.079090
    77  H    0.100276
    78  H    0.119130
    79  H    0.127329
    80  H    0.135139
    81  H    0.123456
    82  H    0.117425
    83  H    0.077163
    84  H    0.084451
    85  H    0.087503
    86  H    0.083781
    87  H    0.086884
    88  H    0.080665
    89  H    0.079181
    90  H    0.131165
    91  H    0.074698
    92  H    0.118692
    93  H    0.129914
    94  H    0.096696
    95  H    0.074083
    96  H    0.070640
    97  H    0.085921
    98  H    0.085181
 Sum of Mulliken charges =  -0.00000

 Dipole moment (field-independent basis, Debye):
    X=             -1.9607    Y=             -2.1181    Z=              1.7530  Tot=              3.3769
 Quadrupole moment (field-independent basis, Debye-Ang):
   XX=           -292.4885   YY=           -244.5904   ZZ=           -263.6418
   XY=             17.7004   XZ=              7.2187   YZ=              0.2629

 Normal termination of Gaussian 16 at Wed Jul 10 02:31:31 2019.
