 Gaussian 16, Revision A.03,
 Gaussian 16:  ES64L-G16RevA.03 25-Dec-2016

 -------------------------------------
 # td=(NStates=1) CAM-B3LYP/6-31G(d,p)
 -------------------------------------

 --
 TD
 --
 Symbolic Z-matrix:
 Charge =  0 Multiplicity = 1

                         Standard orientation:
 ---------------------------------------------------------------------
 Center     Atomic      Atomic             Coordinates (Angstroms)
 Number     Number       Type             X           Y           Z
 ---------------------------------------------------------------------
      1          8           0       14.587633   -2.410563   -0.087523
      2          8           0      -14.720215    1.873147    1.079347
      3          6           0       10.994259   -1.494348    0.951889
      4          6           0      -12.291937   -1.047263    0.665137
      5          6           0       12.477972   -2.069615    1.100652
      6          6           0      -13.579949   -0.231313    0.677271
      7          6           0       13.224811   -2.042686   -0.226708
      8          6           0      -13.476404    1.214289    0.924518
      9          6           0       10.899447   -0.319099    0.048364
     10          6           0      -11.308202   -0.327320   -0.141989
     11          6           0       13.225990   -0.610751   -0.746130
     12          6           0      -12.664067    1.899589   -0.176535
     13          6           0       11.893644    0.176311   -0.677757
     14          6           0      -11.465777    0.953377   -0.528125
     15          6           0       10.408376   -1.198829    2.375907
     16          6           0       10.079827   -2.731169    0.312784
     17          6           0      -11.805140   -1.273676    2.134722
     18          6           0      -12.533457   -2.484726    0.024971
     19          6           0        9.614174    0.437936    0.123949
     20          6           0      -10.020865   -1.065086   -0.497205
     21          6           0       11.942669    1.330487   -1.664393
     22          6           0      -10.554588    1.716468   -1.406150
     23          6           0        9.305231    1.700884    0.247694
     24          6           0       -8.705731   -0.469710   -0.278134
     25          6           0        8.048322    2.333958    0.232918
     26          6           0       -7.513870   -1.208526   -0.538438
     27          6           0        8.030191    3.828441    0.528238
     28          6           0       -7.694570   -2.648291   -1.076762
     29          6           0        6.882124    1.606571   -0.052250
     30          6           0       -6.292684   -0.624414   -0.410772
     31          6           0        5.591349    2.195880    0.073380
     32          6           0       -5.006356   -1.107741   -0.614991
     33          6           0        4.454321    1.376772   -0.171711
     34          6           0       -3.903718   -0.292969   -0.399778
     35          6           0        3.116388    1.780557    0.025795
     36          6           0       -2.520619   -0.698496   -0.622861
     37          6           0        2.815868    3.201021    0.328909
     38          6           0       -2.234922   -2.161369   -1.071979
     39          6           0        2.159679    0.906411   -0.315173
     40          6           0       -1.428269    0.158156   -0.265143
     41          6           0        0.764075    0.908631   -0.188812
     42          6           0       -0.110062    0.016733   -0.319710
     43          1           0       13.136562   -1.464048    1.877510
     44          1           0       12.493597   -2.983969    1.456207
     45          1           0      -14.344016   -0.922489    1.307331
     46          1           0      -13.984885   -0.242195   -0.442928
     47          1           0       12.756352   -2.782915   -0.743568
     48          1           0      -13.065765    1.432369    1.888260
     49          1           0       13.952213   -0.026018   -0.111509
     50          1           0       13.646090   -0.844722   -1.788816
     51          1           0      -13.317308    1.807215   -0.949224
     52          1           0      -12.560123    2.932137    0.020241
     53          1           0       10.625060   -1.975591    3.102333
     54          1           0        9.356244   -1.037027    2.194681
     55          1           0       10.780219   -0.166519    2.779506
     56          1           0       10.253453   -2.998319   -0.799586
     57          1           0        9.960459   -3.492718    0.828692
     58          1           0        8.911890   -2.322036    0.062717
     59          1           0      -11.622220   -0.277869    2.716103
     60          1           0      -10.853942   -1.621033    2.147593
     61          1           0      -12.460577   -1.827561    2.626602
     62          1           0      -13.339970   -3.115484    0.391345
     63          1           0      -11.595836   -3.076056    0.004238
     64          1           0      -12.776834   -2.555469   -1.037438
     65          1           0        8.738933   -0.543948    0.051141
     66          1           0       -9.979078   -2.075684   -0.785819
     67          1           0       10.931070    1.661610   -2.065229
     68          1           0       12.464465    2.330866   -1.381676
     69          1           0       12.372721    0.994944   -2.649283
     70          1           0      -11.180513    2.270593   -2.148075
     71          1           0       -9.729771    1.096117   -1.913518
     72          1           0      -10.099055    2.514778   -0.687892
     73          1           0       14.573331   -3.264086    0.238359
     74          1           0      -15.108077    1.596474    1.929672
     75          1           0       10.226160    2.466910    0.170767
     76          1           0       -8.746040    0.646705    0.248910
     77          1           0        9.073646    4.336232    0.670727
     78          1           0        7.473872    4.451004   -0.036785
     79          1           0        7.617786    4.105781    1.462589
     80          1           0       -8.235628   -3.311031   -0.431597
     81          1           0       -8.231417   -2.521583   -2.015513
     82          1           0       -6.768226   -3.025289   -1.408088
     83          1           0        6.940254    0.700723   -0.472293
     84          1           0       -6.299288    0.467466   -0.370356
     85          1           0        5.492210    3.097062    0.529952
     86          1           0       -5.062053   -2.208454   -0.983060
     87          1           0        4.587272    0.456714   -0.396712
     88          1           0       -3.999391    0.631184   -0.143017
     89          1           0        2.920476    3.367616    1.440362
     90          1           0        1.809294    3.413572    0.212720
     91          1           0        3.373381    3.930276   -0.422168
     92          1           0       -2.353290   -2.820916   -0.037576
     93          1           0       -2.979985   -2.264798   -2.001751
     94          1           0       -1.239609   -2.332361   -1.343813
     95          1           0        2.651564   -0.140165   -0.605687
     96          1           0       -1.764652    1.040054    0.021802
     97          1           0        0.423772    1.962122    0.053881
     98          1           0        0.310677   -0.981294   -0.509410
 ---------------------------------------------------------------------

 SCF Done:  E(RCAM-B3LYP) =  -1706.93334108     A.U. after   15 cycles

 Excitation energies and oscillator strengths:

 Excited State   1:      Singlet-A      2.2840 eV  542.84 nm  f=3.9042  <S**2>=0.000
     155 ->158         0.17408
     156 ->157         0.68345
 This state for optimization and/or second-order correction.
 Total Energy, E(TD-HF/TD-DFT) =  -1706.84940572
 Copying the excited state density for this state as the 1-particle RhoCI density.

 The electronic state is 1-A.
 Alpha  occ. eigenvalues --  -19.20461 -19.20259 -10.29287 -10.29190 -10.28943
 Alpha  occ. eigenvalues --  -10.28028 -10.27966 -10.27501 -10.27391 -10.27303
 Alpha  occ. eigenvalues --  -10.27176 -10.27153 -10.27084 -10.27023 -10.26732
 Alpha  occ. eigenvalues --  -10.26532 -10.26528 -10.26374 -10.26228 -10.26154
 Alpha  occ. eigenvalues --  -10.26095 -10.26079 -10.26031 -10.26007 -10.25894
 Alpha  occ. eigenvalues --  -10.25733 -10.25693 -10.25500 -10.25491 -10.25387
 Alpha  occ. eigenvalues --  -10.25352 -10.25336 -10.25163 -10.24956 -10.24922
 Alpha  occ. eigenvalues --  -10.24832 -10.24821 -10.24659 -10.24525 -10.24468
 Alpha  occ. eigenvalues --  -10.24463 -10.23234  -1.10656  -1.08996  -0.93718
 Alpha  occ. eigenvalues --   -0.93303  -0.93152  -0.91771  -0.91063  -0.90068
 Alpha  occ. eigenvalues --   -0.87994  -0.86734  -0.85798  -0.85344  -0.84607
 Alpha  occ. eigenvalues --   -0.83427  -0.82487  -0.80290  -0.79159  -0.78469
 Alpha  occ. eigenvalues --   -0.77160  -0.76926  -0.76584  -0.76476  -0.76111
 Alpha  occ. eigenvalues --   -0.75916  -0.75268  -0.74860  -0.73885  -0.71401
 Alpha  occ. eigenvalues --   -0.69630  -0.67379  -0.66494  -0.65364  -0.65031
 Alpha  occ. eigenvalues --   -0.64462  -0.63478  -0.62197  -0.61225  -0.60811
 Alpha  occ. eigenvalues --   -0.59570  -0.58817  -0.58519  -0.57928  -0.56264
 Alpha  occ. eigenvalues --   -0.55773  -0.55624  -0.55140  -0.54534  -0.54078
 Alpha  occ. eigenvalues --   -0.53453  -0.52685  -0.52091  -0.51554  -0.50768
 Alpha  occ. eigenvalues --   -0.50069  -0.49897  -0.49656  -0.49434  -0.49263
 Alpha  occ. eigenvalues --   -0.49042  -0.48774  -0.48291  -0.48142  -0.48013
 Alpha  occ. eigenvalues --   -0.47776  -0.47656  -0.47519  -0.47186  -0.46776
 Alpha  occ. eigenvalues --   -0.46414  -0.45842  -0.45397  -0.45060  -0.45026
 Alpha  occ. eigenvalues --   -0.44801  -0.44257  -0.44040  -0.43907  -0.43857
 Alpha  occ. eigenvalues --   -0.43319  -0.43086  -0.42633  -0.42316  -0.42120
 Alpha  occ. eigenvalues --   -0.41771  -0.41288  -0.41083  -0.41001  -0.40492
 Alpha  occ. eigenvalues --   -0.40421  -0.40219  -0.39815  -0.39770  -0.39402
 Alpha  occ. eigenvalues --   -0.39203  -0.38808  -0.38565  -0.38494  -0.37847
 Alpha  occ. eigenvalues --   -0.37718  -0.37593  -0.36845  -0.36355  -0.35770
 Alpha  occ. eigenvalues --   -0.35331  -0.34460  -0.34162  -0.32271  -0.31687
 Alpha  occ. eigenvalues --   -0.31472  -0.29808  -0.28736  -0.26564  -0.23084
 Alpha  occ. eigenvalues --   -0.19638
 Alpha virt. eigenvalues --   -0.05616  -0.01463   0.02744   0.06024   0.08008
 Alpha virt. eigenvalues --    0.09368   0.10317   0.11629   0.12579   0.12710
 Alpha virt. eigenvalues --    0.13319   0.13426   0.13508   0.13765   0.13847

 Mulliken charges:
               1
     1  O   -0.543816
     2  O   -0.574572
     3  C   -0.022886
     4  C   -0.009584
     5  C   -0.186255
     6  C   -0.186880
     7  C    0.152543
     8  C    0.177448
     9  C    0.087767
    10  C    0.089045
    11  C   -0.216079
    12  C   -0.225483
    13  C    0.052705
    14  C    0.036236
    15  C   -0.297336
    16  C   -0.304003
    17  C   -0.289884
    18  C   -0.330561
    19  C   -0.100675
    20  C   -0.158069
    21  C   -0.371482
    22  C   -0.351329
    23  C   -0.113814
    24  C   -0.104736
    25  C    0.096272
    26  C    0.086500
    27  C   -0.392028
    28  C   -0.376633
    29  C   -0.096303
    30  C   -0.118973
    31  C   -0.081806
    32  C   -0.080763
    33  C   -0.094508
    34  C   -0.085044
    35  C    0.139119
    36  C    0.054222
    37  C   -0.376012
    38  C   -0.342376
    39  C   -0.143365
    40  C   -0.112680
    41  C   -0.076257
    42  C   -0.033303
    43  H    0.080942
    44  H    0.079474
    45  H    0.064553
    46  H    0.080147
    47  H    0.086724
    48  H    0.071179
    49  H    0.121516
    50  H    0.102351
    51  H    0.134635
    52  H    0.120019
    53  H    0.104418
    54  H    0.115623
    55  H    0.099872
    56  H    0.103023
    57  H    0.116556
    58  H    0.058166
    59  H    0.081825
    60  H    0.116208
    61  H    0.108984
    62  H    0.101125
    63  H    0.098328
    64  H    0.106820
    65  H    0.047071
    66  H    0.088286
    67  H    0.114172
    68  H    0.112132
    69  H    0.112050
    70  H    0.104550
    71  H    0.115507
    72  H    0.098951
    73  H    0.293608
    74  H    0.304664
    75  H    0.078959
    76  H    0.090891
    77  H    0.098747
    78  H    0.131256
    79  H    0.127304
    80  H    0.128353
    81  H    0.131214
    82  H    0.106410
    83  H    0.080630
    84  H    0.077726
    85  H    0.084121
    86  H    0.086994
    87  H    0.060252
    88  H    0.073488
    89  H    0.118240
    90  H    0.117695
    91  H    0.112516
    92  H    0.106128
    93  H    0.106910
    94  H    0.118629
    95  H    0.053275
    96  H    0.057941
    97  H    0.063799
    98  H    0.070675
 Sum of Mulliken charges =  -0.00000

 Dipole moment (field-independent basis, Debye):
    X=             -0.0211    Y=             -1.6082    Z=              1.1638  Tot=              1.9853
 Quadrupole moment (field-independent basis, Debye-Ang):
   XX=           -296.7808   YY=           -237.8715   ZZ=           -258.6913
   XY=              6.5859   XZ=             -7.5096   YZ=              3.3580

 Normal termination of Gaussian 16 at Tue Jul  9 21:53:56 2019.
