 Gaussian 16, Revision A.03,
 Gaussian 16:  ES64L-G16RevA.03 25-Dec-2016

 -------------------------------------
 # td=(NStates=1) CAM-B3LYP/6-31G(d,p)
 -------------------------------------

 --
 TD
 --
 Symbolic Z-matrix:
 Charge =  0 Multiplicity = 1

                         Standard orientation:
 ---------------------------------------------------------------------
 Center     Atomic      Atomic             Coordinates (Angstroms)
 Number     Number       Type             X           Y           Z
 ---------------------------------------------------------------------
      1          8           0       14.833045   -1.959838    0.198106
      2          8           0      -14.713683    1.937553    1.149241
      3          6           0       11.149392   -1.469901    1.035896
      4          6           0      -12.401803   -1.023302    0.574192
      5          6           0       12.653599   -1.653979    1.186927
      6          6           0      -13.680139   -0.169833    0.707370
      7          6           0       13.468370   -1.764769   -0.055220
      8          6           0      -13.550148    1.278677    1.147098
      9          6           0       10.931519   -0.302984    0.009152
     10          6           0      -11.252295   -0.229963   -0.081943
     11          6           0       13.315809   -0.491251   -0.819160
     12          6           0      -12.683641    1.859715   -0.108657
     13          6           0       11.846728   -0.010335   -0.937421
     14          6           0      -11.488656    1.079962   -0.448380
     15          6           0       10.481155   -1.062659    2.374782
     16          6           0       10.464807   -2.697161    0.497197
     17          6           0      -11.816091   -1.374573    2.113503
     18          6           0      -12.730337   -2.257641   -0.139815
     19          6           0        9.607437    0.338586    0.108721
     20          6           0      -10.043964   -0.999865   -0.251611
     21          6           0       11.637807    1.075488   -1.996599
     22          6           0      -10.561033    1.795169   -1.335041
     23          6           0        9.433882    1.661073   -0.024148
     24          6           0       -8.811063   -0.511340   -0.321294
     25          6           0        8.079975    2.347375    0.153202
     26          6           0       -7.599246   -1.220692   -0.606649
     27          6           0        8.055387    3.794824    0.506561
     28          6           0       -7.746773   -2.666638   -1.036971
     29          6           0        6.923947    1.642042   -0.015670
     30          6           0       -6.457296   -0.533868   -0.488786
     31          6           0        5.571082    2.018240    0.188376
     32          6           0       -5.110603   -1.078695   -0.744593
     33          6           0        4.478103    1.238032   -0.144523
     34          6           0       -3.985087   -0.266694   -0.551551
     35          6           0        3.087739    1.616970   -0.065978
     36          6           0       -2.642301   -0.781025   -0.687113
     37          6           0        2.853969    2.948812    0.627505
     38          6           0       -2.275634   -2.271826   -1.072482
     39          6           0        2.111167    0.744958   -0.396190
     40          6           0       -1.569826    0.100509   -0.499264
     41          6           0        0.668416    0.834852   -0.240596
     42          6           0       -0.174304   -0.251973   -0.561646
     43          1           0       13.195350   -0.778910    1.826531
     44          1           0       12.842738   -2.556064    1.835662
     45          1           0      -14.197644   -0.610386    1.659903
     46          1           0      -14.375554   -0.316596   -0.134922
     47          1           0       12.983425   -2.684479   -0.632878
     48          1           0      -13.037886    1.446328    2.035910
     49          1           0       14.067892    0.147012   -0.276670
     50          1           0       13.886509   -0.797825   -1.888157
     51          1           0      -13.344760    1.839967   -0.974797
     52          1           0      -12.232696    2.831101    0.354155
     53          1           0       10.474622   -1.993745    3.138468
     54          1           0        9.429793   -0.826857    2.204197
     55          1           0       11.099990   -0.300277    2.839338
     56          1           0       10.827976   -3.197050   -0.521984
     57          1           0       10.476387   -3.592366    1.361766
     58          1           0        9.512492   -2.722435    0.186212
     59          1           0      -11.842451   -0.492674    2.819133
     60          1           0      -11.088862   -1.834849    2.100756
     61          1           0      -12.663295   -2.151097    2.591286
     62          1           0      -13.354237   -2.889133    0.477034
     63          1           0      -11.868115   -2.732800   -0.348888
     64          1           0      -13.046329   -1.949553   -1.162057
     65          1           0        8.972173   -0.378513    0.265260
     66          1           0      -10.132994   -2.088877   -0.406084
     67          1           0       10.538327    0.955622   -2.513533
     68          1           0       12.250535    2.004644   -1.693530
     69          1           0       12.132408    0.806071   -2.915468
     70          1           0      -10.951685    2.303313   -2.137262
     71          1           0       -9.748318    1.035733   -2.028391
     72          1           0      -10.098190    2.747478   -0.865069
     73          1           0       15.105726   -2.794172    0.838679
     74          1           0      -15.339032    1.505090    1.596842
     75          1           0       10.390183    2.181272   -0.171759
     76          1           0       -8.664541    0.513850   -0.290964
     77          1           0        9.132656    4.313290    0.491981
     78          1           0        7.419526    4.303610   -0.180488
     79          1           0        7.564924    4.046770    1.399313
     80          1           0       -8.248863   -3.190982   -0.216831
     81          1           0       -8.416140   -2.731776   -2.007207
     82          1           0       -6.695273   -3.341170   -1.029903
     83          1           0        7.127998    0.584076   -0.012072
     84          1           0       -6.179683    0.538708   -0.309679
     85          1           0        5.477063    3.097282    0.550213
     86          1           0       -4.829998   -2.128648   -0.844741
     87          1           0        4.609746    0.226617   -0.302083
     88          1           0       -4.179145    0.695178   -0.218545
     89          1           0        3.398450    2.965315    1.763494
     90          1           0        1.740646    3.101452    0.866108
     91          1           0        3.232546    3.723787    0.037591
     92          1           0       -2.777733   -3.077051   -0.253989
     93          1           0       -2.887836   -2.513283   -2.094506
     94          1           0       -1.207064   -2.405261   -1.221992
     95          1           0        2.341612   -0.121538   -0.829648
     96          1           0       -1.814161    1.103065   -0.174758
     97          1           0        0.185561    1.808658    0.032737
     98          1           0        0.410045   -1.154553   -0.987576
 ---------------------------------------------------------------------

 SCF Done:  E(RCAM-B3LYP) =  -1706.90209276     A.U. after   14 cycles

 Excitation energies and oscillator strengths:

 Excited State   1:      Singlet-A      2.5291 eV  490.23 nm  f=3.6515  <S**2>=0.000
     155 ->158         0.17532
     156 ->157         0.67846
 This state for optimization and/or second-order correction.
 Total Energy, E(TD-HF/TD-DFT) =  -1706.80915069
 Copying the excited state density for this state as the 1-particle RhoCI density.

 The electronic state is 1-A.
 Alpha  occ. eigenvalues --  -19.21934 -19.20691 -10.30221 -10.29730 -10.28631
 Alpha  occ. eigenvalues --  -10.28011 -10.27955 -10.27934 -10.27925 -10.27640
 Alpha  occ. eigenvalues --  -10.27244 -10.27203 -10.27109 -10.26912 -10.26910
 Alpha  occ. eigenvalues --  -10.26762 -10.26725 -10.26675 -10.26496 -10.26478
 Alpha  occ. eigenvalues --  -10.26403 -10.26195 -10.26155 -10.26110 -10.26086
 Alpha  occ. eigenvalues --  -10.26023 -10.25852 -10.25827 -10.25725 -10.25600
 Alpha  occ. eigenvalues --  -10.25557 -10.25479 -10.25462 -10.25374 -10.25360
 Alpha  occ. eigenvalues --  -10.25146 -10.25051 -10.24870 -10.24532 -10.24265
 Alpha  occ. eigenvalues --  -10.24153 -10.23383  -1.13838  -1.08009  -0.93524
 Alpha  occ. eigenvalues --   -0.93398  -0.91760  -0.91263  -0.90303  -0.89518
 Alpha  occ. eigenvalues --   -0.87163  -0.86945  -0.86235  -0.85465  -0.84565
 Alpha  occ. eigenvalues --   -0.82838  -0.81412  -0.80235  -0.79787  -0.77368
 Alpha  occ. eigenvalues --   -0.77127  -0.76114  -0.75911  -0.75790  -0.75231
 Alpha  occ. eigenvalues --   -0.75077  -0.74771  -0.74746  -0.73381  -0.70802
 Alpha  occ. eigenvalues --   -0.69637  -0.68196  -0.66234  -0.64277  -0.63969
 Alpha  occ. eigenvalues --   -0.63276  -0.62744  -0.62304  -0.61376  -0.60378
 Alpha  occ. eigenvalues --   -0.59951  -0.59267  -0.58056  -0.57888  -0.56931
 Alpha  occ. eigenvalues --   -0.55962  -0.55710  -0.54875  -0.54239  -0.53340
 Alpha  occ. eigenvalues --   -0.52687  -0.52167  -0.51832  -0.51667  -0.51134
 Alpha  occ. eigenvalues --   -0.50728  -0.50033  -0.49728  -0.49569  -0.49357
 Alpha  occ. eigenvalues --   -0.48784  -0.48553  -0.48267  -0.48011  -0.47682
 Alpha  occ. eigenvalues --   -0.47290  -0.47106  -0.46710  -0.46045  -0.45908
 Alpha  occ. eigenvalues --   -0.45767  -0.45569  -0.45076  -0.44741  -0.44511
 Alpha  occ. eigenvalues --   -0.44369  -0.44124  -0.43666  -0.43389  -0.43256
 Alpha  occ. eigenvalues --   -0.43227  -0.42953  -0.42603  -0.42477  -0.41965
 Alpha  occ. eigenvalues --   -0.41845  -0.41772  -0.41240  -0.40424  -0.40215
 Alpha  occ. eigenvalues --   -0.40140  -0.39718  -0.39433  -0.39372  -0.39236
 Alpha  occ. eigenvalues --   -0.39082  -0.38496  -0.38442  -0.38046  -0.37777
 Alpha  occ. eigenvalues --   -0.37048  -0.36840  -0.36793  -0.36245  -0.35641
 Alpha  occ. eigenvalues --   -0.34784  -0.33759  -0.33094  -0.32543  -0.31661
 Alpha  occ. eigenvalues --   -0.31530  -0.29917  -0.28059  -0.25720  -0.23400
 Alpha  occ. eigenvalues --   -0.20226
 Alpha virt. eigenvalues --   -0.04750  -0.00723   0.02476   0.05515   0.07783
 Alpha virt. eigenvalues --    0.09827   0.10213   0.11322   0.12119   0.12310
 Alpha virt. eigenvalues --    0.12571   0.12800   0.13443   0.13716   0.13728

 Mulliken charges:
               1
     1  O   -0.579711
     2  O   -0.513418
     3  C   -0.002969
     4  C   -0.015562
     5  C   -0.180453
     6  C   -0.216639
     7  C    0.202965
     8  C    0.187981
     9  C    0.045048
    10  C    0.081730
    11  C   -0.203905
    12  C   -0.237815
    13  C    0.028413
    14  C    0.063384
    15  C   -0.288685
    16  C   -0.291024
    17  C   -0.268463
    18  C   -0.293964
    19  C   -0.065978
    20  C   -0.139059
    21  C   -0.372195
    22  C   -0.362895
    23  C   -0.107649
    24  C   -0.081393
    25  C    0.078067
    26  C    0.110480
    27  C   -0.388618
    28  C   -0.365800
    29  C   -0.106058
    30  C   -0.132531
    31  C   -0.094251
    32  C   -0.086535
    33  C   -0.105022
    34  C   -0.115178
    35  C    0.121102
    36  C    0.097630
    37  C   -0.358032
    38  C   -0.347701
    39  C   -0.129033
    40  C   -0.133095
    41  C   -0.086354
    42  C   -0.089273
    43  H    0.072396
    44  H    0.065986
    45  H    0.056158
    46  H    0.100277
    47  H    0.057296
    48  H    0.079274
    49  H    0.119575
    50  H    0.076644
    51  H    0.123956
    52  H    0.097012
    53  H    0.074154
    54  H    0.111428
    55  H    0.114885
    56  H    0.088939
    57  H    0.068187
    58  H    0.120343
    59  H    0.100690
    60  H    0.103467
    61  H    0.046122
    62  H    0.108176
    63  H    0.104886
    64  H    0.099579
    65  H    0.080767
    66  H    0.077776
    67  H    0.113247
    68  H    0.118259
    69  H    0.111242
    70  H    0.120593
    71  H    0.083991
    72  H    0.094107
    73  H    0.314026
    74  H    0.288567
    75  H    0.100417
    76  H    0.091891
    77  H    0.096548
    78  H    0.130052
    79  H    0.132202
    80  H    0.128415
    81  H    0.120661
    82  H    0.088676
    83  H    0.072047
    84  H    0.088869
    85  H    0.077403
    86  H    0.076520
    87  H    0.080557
    88  H    0.079919
    89  H    0.092672
    90  H    0.097422
    91  H    0.133403
    92  H    0.095905
    93  H    0.103137
    94  H    0.118403
    95  H    0.066715
    96  H    0.089579
    97  H    0.085454
    98  H    0.103588
 Sum of Mulliken charges =  -0.00000

 Dipole moment (field-independent basis, Debye):
    X=             -0.9080    Y=             -1.7087    Z=              1.1632  Tot=              2.2577
 Quadrupole moment (field-independent basis, Debye-Ang):
   XX=           -265.3757   YY=           -246.2276   ZZ=           -262.0660
   XY=              6.5301   XZ=              4.7654   YZ=              1.1615

 Normal termination of Gaussian 16 at Fri Jul 19 23:01:44 2019.
