 Gaussian 16, Revision A.03,
 Gaussian 16:  ES64L-G16RevA.03 25-Dec-2016

 -------------------------------------
 # td=(NStates=1) CAM-B3LYP/6-31G(d,p)
 -------------------------------------

 --
 TD
 --
 Symbolic Z-matrix:
 Charge =  0 Multiplicity = 1

                         Standard orientation:
 ---------------------------------------------------------------------
 Center     Atomic      Atomic             Coordinates (Angstroms)
 Number     Number       Type             X           Y           Z
 ---------------------------------------------------------------------
      1          8           0       14.471189   -2.508533   -0.251809
      2          8           0      -14.671029    2.052493    1.084205
      3          6           0       11.014804   -1.508069    1.054925
      4          6           0      -12.205091   -1.023854    0.675360
      5          6           0       12.509312   -1.890536    1.059027
      6          6           0      -13.572428   -0.280184    0.743694
      7          6           0       13.120315   -2.096556   -0.272893
      8          6           0      -13.450069    1.201907    1.004674
      9          6           0       10.887679   -0.336375    0.149128
     10          6           0      -11.219628   -0.324803   -0.238868
     11          6           0       13.144131   -0.772818   -0.975467
     12          6           0      -12.722415    1.745806   -0.185236
     13          6           0       11.818897    0.009870   -0.835421
     14          6           0      -11.552933    0.983358   -0.579113
     15          6           0       10.666889   -1.147682    2.520753
     16          6           0       10.105603   -2.666651    0.725854
     17          6           0      -11.707986   -1.167293    2.108876
     18          6           0      -12.616439   -2.520549    0.192925
     19          6           0        9.658384    0.450926    0.267593
     20          6           0      -10.056513   -0.974262   -0.465105
     21          6           0       11.692014    1.052129   -1.744262
     22          6           0      -10.442849    1.648286   -1.431862
     23          6           0        9.427296    1.799050    0.158923
     24          6           0       -8.751303   -0.519179   -0.344041
     25          6           0        8.115250    2.475976    0.267097
     26          6           0       -7.498334   -1.351524   -0.608279
     27          6           0        8.064689    3.936493    0.612800
     28          6           0       -7.640194   -2.854960   -0.939229
     29          6           0        6.968771    1.730186    0.022546
     30          6           0       -6.324485   -0.595158   -0.438997
     31          6           0        5.615154    2.244007    0.157696
     32          6           0       -5.055122   -1.093399   -0.669242
     33          6           0        4.486658    1.461733   -0.199660
     34          6           0       -3.924556   -0.402145   -0.296371
     35          6           0        3.131060    1.834148   -0.069969
     36          6           0       -2.591504   -0.813354   -0.555426
     37          6           0        2.806440    3.293884    0.304422
     38          6           0       -2.270281   -2.169401   -1.076377
     39          6           0        2.133276    0.963833   -0.356194
     40          6           0       -1.538611    0.235652   -0.341128
     41          6           0        0.729394    1.104477   -0.271110
     42          6           0       -0.138835    0.050864   -0.561563
     43          1           0       13.120938   -1.218499    1.670262
     44          1           0       12.741127   -2.724794    1.597503
     45          1           0      -14.210976   -0.746588    1.469789
     46          1           0      -13.942405   -0.350288   -0.287843
     47          1           0       12.500157   -2.751615   -0.989172
     48          1           0      -12.758883    1.304380    1.942963
     49          1           0       13.949004   -0.328886   -0.582642
     50          1           0       13.347204   -0.946796   -2.069518
     51          1           0      -13.324209    1.666843   -1.011958
     52          1           0      -12.371503    2.804255   -0.150891
     53          1           0       10.609334   -2.024740    3.359624
     54          1           0        9.570069   -0.952207    2.588001
     55          1           0       11.382672   -0.360508    2.869222
     56          1           0       10.187021   -3.003164   -0.446849
     57          1           0       10.187706   -3.692736    1.309612
     58          1           0        9.092431   -2.337580    0.758022
     59          1           0      -11.759599   -0.168380    2.563365
     60          1           0      -10.764007   -1.726925    2.098271
     61          1           0      -12.526964   -1.913584    2.621422
     62          1           0      -13.234417   -3.032537    1.014368
     63          1           0      -11.748493   -3.120649    0.006309
     64          1           0      -13.207150   -2.559165   -0.786557
     65          1           0        8.763495   -0.223313    0.411037
     66          1           0       -9.846904   -2.084911   -0.699880
     67          1           0       10.762953    1.418096   -1.994242
     68          1           0       12.084366    2.137075   -1.174477
     69          1           0       12.213234    0.926388   -2.724026
     70          1           0      -10.844792    2.107559   -2.404277
     71          1           0       -9.747296    1.097753   -1.906320
     72          1           0       -9.992654    2.530507   -0.904610
     73          1           0       14.505152   -3.598422   -0.163245
     74          1           0      -15.232085    1.883258    1.826649
     75          1           0       10.352454    2.380172    0.079767
     76          1           0       -8.420898    0.526741   -0.374685
     77          1           0        9.033592    4.532934    0.625565
     78          1           0        7.263876    4.416567   -0.046862
     79          1           0        7.775434    4.194575    1.546175
     80          1           0       -7.884690   -3.350996    0.017783
     81          1           0       -8.355115   -2.893598   -1.738941
     82          1           0       -6.594322   -3.125180   -1.406595
     83          1           0        6.984583    0.679319   -0.194585
     84          1           0       -6.573253    0.426657   -0.207408
     85          1           0        5.408803    3.230401    0.345112
     86          1           0       -5.055828   -2.143992   -1.046510
     87          1           0        4.741067    0.456850   -0.668579
     88          1           0       -4.157163    0.644859   -0.030135
     89          1           0        3.398312    3.628374    1.260053
     90          1           0        1.800729    3.278851    0.507183
     91          1           0        2.938240    3.885224   -0.726998
     92          1           0       -2.749294   -3.062553   -0.710143
     93          1           0       -2.874776   -2.191506   -2.079893
     94          1           0       -1.177929   -2.523074   -1.139226
     95          1           0        2.448284    0.040888   -0.877095
     96          1           0       -1.664551    1.346379   -0.147499
     97          1           0        0.397400    1.986521    0.103762
     98          1           0        0.160602   -1.008922   -0.982181
 ---------------------------------------------------------------------

 SCF Done:  E(RCAM-B3LYP) =  -1707.01760133     A.U. after   15 cycles

 Excitation energies and oscillator strengths:

 Excited State   1:      Singlet-A      2.1049 eV  589.03 nm  f=3.7364  <S**2>=0.000
     155 ->158         0.16016
     156 ->157         0.68840
 This state for optimization and/or second-order correction.
 Total Energy, E(TD-HF/TD-DFT) =  -1706.94024786
 Copying the excited state density for this state as the 1-particle RhoCI density.

 The electronic state is 1-A.
 Alpha  occ. eigenvalues --  -19.22148 -19.21224 -10.31588 -10.29513 -10.29200
 Alpha  occ. eigenvalues --  -10.27879 -10.27674 -10.27661 -10.27522 -10.27396
 Alpha  occ. eigenvalues --  -10.27365 -10.27321 -10.27316 -10.27262 -10.26760
 Alpha  occ. eigenvalues --  -10.26675 -10.26609 -10.26369 -10.26297 -10.26293
 Alpha  occ. eigenvalues --  -10.26250 -10.26208 -10.26040 -10.26016 -10.25999
 Alpha  occ. eigenvalues --  -10.25952 -10.25949 -10.25746 -10.25720 -10.25707
 Alpha  occ. eigenvalues --  -10.25625 -10.25477 -10.25473 -10.25446 -10.25409
 Alpha  occ. eigenvalues --  -10.25385 -10.25353 -10.24775 -10.24713 -10.24572
 Alpha  occ. eigenvalues --  -10.23614 -10.23165  -1.07979  -1.07684  -0.94435
 Alpha  occ. eigenvalues --   -0.93868  -0.91716  -0.91257  -0.89846  -0.89222
 Alpha  occ. eigenvalues --   -0.87692  -0.87249  -0.86905  -0.86047  -0.84873
 Alpha  occ. eigenvalues --   -0.83081  -0.81990  -0.80380  -0.79620  -0.77930
 Alpha  occ. eigenvalues --   -0.77112  -0.76515  -0.76262  -0.76195  -0.75596
 Alpha  occ. eigenvalues --   -0.75351  -0.74897  -0.74492  -0.72945  -0.70908
 Alpha  occ. eigenvalues --   -0.68625  -0.67539  -0.65421  -0.64372  -0.64124
 Alpha  occ. eigenvalues --   -0.63659  -0.62778  -0.61746  -0.60910  -0.60583
 Alpha  occ. eigenvalues --   -0.59098  -0.58855  -0.58479  -0.57338  -0.56300
 Alpha  occ. eigenvalues --   -0.55974  -0.55103  -0.54797  -0.54574  -0.53885
 Alpha  occ. eigenvalues --   -0.53426  -0.52461  -0.51948  -0.51504  -0.51159
 Alpha  occ. eigenvalues --   -0.50876  -0.50338  -0.49920  -0.49606  -0.49131
 Alpha  occ. eigenvalues --   -0.48771  -0.48379  -0.48179  -0.48054  -0.47855
 Alpha  occ. eigenvalues --   -0.47506  -0.47226  -0.46655  -0.46522  -0.46233
 Alpha  occ. eigenvalues --   -0.45903  -0.45433  -0.45385  -0.44713  -0.44522
 Alpha  occ. eigenvalues --   -0.44154  -0.43948  -0.43566  -0.43523  -0.43279
 Alpha  occ. eigenvalues --   -0.42955  -0.42707  -0.42541  -0.42334  -0.42248
 Alpha  occ. eigenvalues --   -0.41628  -0.41492  -0.41375  -0.41103  -0.41016
 Alpha  occ. eigenvalues --   -0.40668  -0.40440  -0.40104  -0.39937  -0.39823
 Alpha  occ. eigenvalues --   -0.38927  -0.38344  -0.38318  -0.38224  -0.37911
 Alpha  occ. eigenvalues --   -0.37801  -0.37165  -0.37039  -0.36055  -0.35998
 Alpha  occ. eigenvalues --   -0.35322  -0.34663  -0.33873  -0.32660  -0.32100
 Alpha  occ. eigenvalues --   -0.31750  -0.29499  -0.27468  -0.25398  -0.22732
 Alpha  occ. eigenvalues --   -0.18839
 Alpha virt. eigenvalues --   -0.05807  -0.01094   0.02027   0.04678   0.07067
 Alpha virt. eigenvalues --    0.09205   0.09800   0.11239   0.11760   0.12371
 Alpha virt. eigenvalues --    0.12737   0.12994   0.13137   0.13391   0.13707

 Mulliken charges:
               1
     1  O   -0.570322
     2  O   -0.574692
     3  C   -0.014740
     4  C   -0.044479
     5  C   -0.163543
     6  C   -0.185564
     7  C    0.152086
     8  C    0.172640
     9  C    0.064305
    10  C    0.118552
    11  C   -0.203575
    12  C   -0.212015
    13  C    0.092425
    14  C    0.041192
    15  C   -0.291821
    16  C   -0.294621
    17  C   -0.268261
    18  C   -0.308606
    19  C   -0.101426
    20  C   -0.176850
    21  C   -0.378384
    22  C   -0.368062
    23  C   -0.125883
    24  C   -0.084400
    25  C    0.090042
    26  C    0.048189
    27  C   -0.382603
    28  C   -0.364485
    29  C   -0.113516
    30  C   -0.101221
    31  C   -0.089078
    32  C   -0.089133
    33  C   -0.118842
    34  C   -0.107483
    35  C    0.092203
    36  C    0.095442
    37  C   -0.354563
    38  C   -0.382790
    39  C   -0.117483
    40  C   -0.137363
    41  C   -0.095723
    42  C   -0.064493
    43  H    0.094386
    44  H    0.078130
    45  H    0.084967
    46  H    0.101042
    47  H    0.068878
    48  H    0.069330
    49  H    0.130369
    50  H    0.090513
    51  H    0.142392
    52  H    0.112667
    53  H    0.077196
    54  H    0.102852
    55  H    0.105152
    56  H    0.071804
    57  H    0.098741
    58  H    0.110068
    59  H    0.100762
    60  H    0.111229
    61  H    0.068343
    62  H    0.091180
    63  H    0.104666
    64  H    0.094832
    65  H    0.073154
    66  H    0.075909
    67  H    0.140441
    68  H    0.078661
    69  H    0.105825
    70  H    0.080891
    71  H    0.136029
    72  H    0.105304
    73  H    0.307657
    74  H    0.303002
    75  H    0.078517
    76  H    0.077683
    77  H    0.105659
    78  H    0.114272
    79  H    0.140215
    80  H    0.142683
    81  H    0.137129
    82  H    0.098878
    83  H    0.084244
    84  H    0.081515
    85  H    0.077756
    86  H    0.071783
    87  H    0.074006
    88  H    0.089188
    89  H    0.110860
    90  H    0.113273
    91  H    0.117942
    92  H    0.131310
    93  H    0.115701
    94  H    0.114373
    95  H    0.073675
    96  H    0.089129
    97  H    0.081604
    98  H    0.081176
 Sum of Mulliken charges =  -0.00000

 Dipole moment (field-independent basis, Debye):
    X=             -1.0664    Y=             -1.9338    Z=              0.2547  Tot=              2.2230
 Quadrupole moment (field-independent basis, Debye-Ang):
   XX=           -278.1316   YY=           -239.7609   ZZ=           -260.6527
   XY=              3.7550   XZ=             -8.7150   YZ=              5.0538

 Normal termination of Gaussian 16 at Sat Jul 20 08:23:02 2019.
