 Gaussian 16, Revision A.03,
 Gaussian 16:  ES64L-G16RevA.03 25-Dec-2016

 -------------------------------------
 # td=(NStates=1) CAM-B3LYP/6-31G(d,p)
 -------------------------------------

 --
 TD
 --
 Symbolic Z-matrix:
 Charge =  0 Multiplicity = 1

                         Standard orientation:
 ---------------------------------------------------------------------
 Center     Atomic      Atomic             Coordinates (Angstroms)
 Number     Number       Type             X           Y           Z
 ---------------------------------------------------------------------
      1          8           0       14.665616   -2.351680   -0.229939
      2          8           0      -14.849316    1.763845    1.048130
      3          6           0       11.173356   -1.519416    1.013545
      4          6           0      -12.463564   -1.092795    0.535565
      5          6           0       12.627125   -1.954787    1.128203
      6          6           0      -13.667807   -0.289722    0.518142
      7          6           0       13.285027   -2.094477   -0.272897
      8          6           0      -13.598712    1.185925    0.937056
      9          6           0       10.941039   -0.331492    0.076469
     10          6           0      -11.308107   -0.312032   -0.140094
     11          6           0       13.206029   -0.680788   -0.854176
     12          6           0      -12.601922    1.880791   -0.132334
     13          6           0       11.856222    0.075513   -0.826998
     14          6           0      -11.392729    1.021461   -0.410142
     15          6           0       10.713551   -1.080598    2.401914
     16          6           0       10.204628   -2.679755    0.531875
     17          6           0      -11.894332   -1.316729    2.002163
     18          6           0      -12.638494   -2.502114   -0.071002
     19          6           0        9.653134    0.305938    0.275692
     20          6           0      -10.083609   -0.999676   -0.463842
     21          6           0       11.693128    1.235543   -1.859063
     22          6           0      -10.368059    1.940106   -1.115252
     23          6           0        9.394583    1.711257    0.225013
     24          6           0       -8.873991   -0.502875   -0.331676
     25          6           0        8.084320    2.332684    0.216050
     26          6           0       -7.610369   -1.208192   -0.502861
     27          6           0        7.991153    3.796443    0.682291
     28          6           0       -7.578615   -2.643546   -1.037594
     29          6           0        6.971529    1.616266   -0.060582
     30          6           0       -6.411560   -0.624488   -0.256353
     31          6           0        5.647799    2.062782    0.045711
     32          6           0       -5.074102   -1.165020   -0.419224
     33          6           0        4.512597    1.314568   -0.252368
     34          6           0       -3.947438   -0.259075   -0.390133
     35          6           0        3.157273    1.800416   -0.046047
     36          6           0       -2.632440   -0.708718   -0.611574
     37          6           0        2.945467    3.244327    0.300831
     38          6           0       -2.270108   -2.217280   -1.103837
     39          6           0        2.180069    0.877827   -0.442706
     40          6           0       -1.495497    0.147420   -0.205769
     41          6           0        0.759488    1.097551   -0.259383
     42          6           0       -0.169315    0.027520   -0.442748
     43          1           0       13.175979   -1.265015    1.656262
     44          1           0       12.460447   -2.993798    1.723728
     45          1           0      -14.424610   -0.510279    1.129973
     46          1           0      -14.221311   -0.155876   -0.477527
     47          1           0       12.798448   -2.737572   -0.951992
     48          1           0      -13.127960    1.348061    2.064356
     49          1           0       14.088824   -0.228303   -0.217913
     50          1           0       13.718848   -0.574649   -1.821760
     51          1           0      -13.206508    2.097856   -1.094273
     52          1           0      -12.153088    2.906537    0.148268
     53          1           0       10.729793   -1.950455    3.175286
     54          1           0        9.706383   -0.594390    2.539620
     55          1           0       11.517512   -0.278935    2.981449
     56          1           0       10.462226   -2.721108   -0.598278
     57          1           0       10.113306   -3.482616    1.241538
     58          1           0        9.193521   -2.425177    0.602477
     59          1           0      -11.816426   -0.343214    2.577516
     60          1           0      -11.070641   -1.846039    2.166834
     61          1           0      -12.641618   -1.885960    2.439165
     62          1           0      -13.547752   -2.932157    0.262524
     63          1           0      -11.808966   -3.257733   -0.021877
     64          1           0      -12.852863   -2.721610   -1.344503
     65          1           0        8.845762   -0.337145    0.454039
     66          1           0      -10.279682   -2.041966   -0.592131
     67          1           0       10.604622    1.250787   -2.321854
     68          1           0       11.986040    2.294178   -1.190705
     69          1           0       12.297976    1.079645   -2.856849
     70          1           0      -11.024641    2.572845   -1.940024
     71          1           0       -9.554932    1.454433   -1.496572
     72          1           0      -10.013283    2.715236   -0.362825
     73          1           0       14.541197   -3.153853    0.354662
     74          1           0      -15.512386    1.026808    1.444471
     75          1           0       10.159853    2.329730    0.277387
     76          1           0       -8.818733    0.572283    0.115091
     77          1           0        9.038686    4.368271    0.631360
     78          1           0        7.269462    4.537118   -0.025488
     79          1           0        7.541294    3.909742    1.659512
     80          1           0       -8.326391   -3.240689   -0.454259
     81          1           0       -8.060377   -2.640913   -2.096111
     82          1           0       -6.653269   -3.065059   -0.987601
     83          1           0        6.854374    0.724142   -0.576340
     84          1           0       -6.569870    0.349743   -0.028293
     85          1           0        5.342162    3.004489    0.461635
     86          1           0       -4.861069   -2.284367   -0.765191
     87          1           0        4.598861    0.271445   -0.520972
     88          1           0       -3.915525    0.810628   -0.104820
     89          1           0        3.259805    3.470425    1.269016
     90          1           0        1.919206    3.435223    0.235914
     91          1           0        3.527127    4.059544   -0.251617
     92          1           0       -2.590678   -3.022213   -0.295390
     93          1           0       -2.899709   -2.240728   -1.958666
     94          1           0       -1.276309   -2.277332   -1.386946
     95          1           0        2.525489   -0.099433   -0.852342
     96          1           0       -1.879080    1.284949   -0.098752
     97          1           0        0.540227    2.090157    0.056427
     98          1           0        0.259351   -0.897590   -0.813363
 ---------------------------------------------------------------------

 SCF Done:  E(RCAM-B3LYP) =  -1706.95820631     A.U. after   16 cycles

 Excitation energies and oscillator strengths:

 Excited State   1:      Singlet-A      2.0099 eV  616.87 nm  f=3.6880  <S**2>=0.000
     155 ->158        -0.15021
     156 ->157         0.69279
 This state for optimization and/or second-order correction.
 Total Energy, E(TD-HF/TD-DFT) =  -1706.88434465
 Copying the excited state density for this state as the 1-particle RhoCI density.

 The electronic state is 1-A.
 Alpha  occ. eigenvalues --  -19.22599 -19.22061 -10.32092 -10.30115 -10.29044
 Alpha  occ. eigenvalues --  -10.28774 -10.28706 -10.28533 -10.27809 -10.27788
 Alpha  occ. eigenvalues --  -10.27723 -10.27395 -10.27328 -10.27281 -10.27249
 Alpha  occ. eigenvalues --  -10.27167 -10.27031 -10.26945 -10.26926 -10.26757
 Alpha  occ. eigenvalues --  -10.26709 -10.26591 -10.26470 -10.26281 -10.26243
 Alpha  occ. eigenvalues --  -10.26029 -10.25989 -10.25903 -10.25885 -10.25762
 Alpha  occ. eigenvalues --  -10.25529 -10.25515 -10.25367 -10.25349 -10.25326
 Alpha  occ. eigenvalues --  -10.25261 -10.25226 -10.25190 -10.25133 -10.25039
 Alpha  occ. eigenvalues --  -10.24629 -10.23967  -1.10814  -1.09831  -0.94157
 Alpha  occ. eigenvalues --   -0.93526  -0.91687  -0.91058  -0.90170  -0.89249
 Alpha  occ. eigenvalues --   -0.87512  -0.86452  -0.85790  -0.85095  -0.84539
 Alpha  occ. eigenvalues --   -0.82670  -0.81294  -0.79916  -0.78739  -0.78556
 Alpha  occ. eigenvalues --   -0.76844  -0.76584  -0.76394  -0.76287  -0.76048
 Alpha  occ. eigenvalues --   -0.75220  -0.74758  -0.74102  -0.73030  -0.70833
 Alpha  occ. eigenvalues --   -0.68939  -0.67374  -0.65463  -0.65368  -0.64955
 Alpha  occ. eigenvalues --   -0.63852  -0.63250  -0.62216  -0.61176  -0.60003
 Alpha  occ. eigenvalues --   -0.59447  -0.58963  -0.57811  -0.56843  -0.56109
 Alpha  occ. eigenvalues --   -0.55963  -0.55485  -0.54602  -0.54384  -0.54002
 Alpha  occ. eigenvalues --   -0.53170  -0.52588  -0.51764  -0.51164  -0.50564
 Alpha  occ. eigenvalues --   -0.50375  -0.50020  -0.49624  -0.49555  -0.49288
 Alpha  occ. eigenvalues --   -0.49034  -0.47993  -0.47863  -0.47724  -0.47653
 Alpha  occ. eigenvalues --   -0.47166  -0.46857  -0.46711  -0.46476  -0.46436
 Alpha  occ. eigenvalues --   -0.46021  -0.45807  -0.45724  -0.45602  -0.45043
 Alpha  occ. eigenvalues --   -0.44750  -0.44512  -0.44329  -0.44032  -0.43727
 Alpha  occ. eigenvalues --   -0.43381  -0.42873  -0.42774  -0.42526  -0.42046
 Alpha  occ. eigenvalues --   -0.41932  -0.41835  -0.41728  -0.41100  -0.40856
 Alpha  occ. eigenvalues --   -0.40426  -0.40343  -0.39796  -0.39605  -0.39458
 Alpha  occ. eigenvalues --   -0.39143  -0.39090  -0.38418  -0.38063  -0.37821
 Alpha  occ. eigenvalues --   -0.37378  -0.37286  -0.37103  -0.37051  -0.36010
 Alpha  occ. eigenvalues --   -0.35582  -0.34540  -0.33990  -0.32980  -0.32160
 Alpha  occ. eigenvalues --   -0.31468  -0.30022  -0.28154  -0.25734  -0.22998
 Alpha  occ. eigenvalues --   -0.18710
 Alpha virt. eigenvalues --   -0.06330  -0.01354   0.02228   0.05320   0.07886
 Alpha virt. eigenvalues --    0.09653   0.09925   0.11663   0.11918   0.11946
 Alpha virt. eigenvalues --    0.12407   0.12796   0.12827   0.13351   0.13622

 Mulliken charges:
               1
     1  O   -0.537568
     2  O   -0.558337
     3  C   -0.021276
     4  C    0.002828
     5  C   -0.177721
     6  C   -0.196232
     7  C    0.141434
     8  C    0.192747
     9  C    0.084202
    10  C    0.072427
    11  C   -0.244193
    12  C   -0.228848
    13  C    0.051595
    14  C    0.045732
    15  C   -0.296447
    16  C   -0.308577
    17  C   -0.301619
    18  C   -0.314827
    19  C   -0.120521
    20  C   -0.104061
    21  C   -0.339405
    22  C   -0.352965
    23  C   -0.084967
    24  C   -0.120400
    25  C    0.091177
    26  C    0.101259
    27  C   -0.364482
    28  C   -0.354162
    29  C   -0.100600
    30  C   -0.102837
    31  C   -0.086960
    32  C   -0.126158
    33  C   -0.122824
    34  C   -0.091803
    35  C    0.106241
    36  C    0.056889
    37  C   -0.381451
    38  C   -0.353979
    39  C   -0.127403
    40  C   -0.129647
    41  C   -0.089135
    42  C   -0.076960
    43  H    0.118126
    44  H    0.066405
    45  H    0.065729
    46  H    0.110356
    47  H    0.092156
    48  H    0.044405
    49  H    0.105695
    50  H    0.101523
    51  H    0.106806
    52  H    0.096689
    53  H    0.080645
    54  H    0.117377
    55  H    0.064493
    56  H    0.107701
    57  H    0.104737
    58  H    0.112818
    59  H    0.106340
    60  H    0.122662
    61  H    0.100216
    62  H    0.114978
    63  H    0.114239
    64  H    0.059802
    65  H    0.089104
    66  H    0.072177
    67  H    0.119764
    68  H    0.096365
    69  H    0.101194
    70  H    0.088398
    71  H    0.127742
    72  H    0.111237
    73  H    0.307446
    74  H    0.310315
    75  H    0.062693
    76  H    0.095575
    77  H    0.097824
    78  H    0.086649
    79  H    0.136019
    80  H    0.104109
    81  H    0.111137
    82  H    0.110077
    83  H    0.081012
    84  H    0.069896
    85  H    0.063729
    86  H    0.098297
    87  H    0.073522
    88  H    0.093998
    89  H    0.135015
    90  H    0.111277
    91  H    0.124609
    92  H    0.111584
    93  H    0.129597
    94  H    0.116994
    95  H    0.085225
    96  H    0.061323
    97  H    0.085508
    98  H    0.086524
 Sum of Mulliken charges =  -0.00000

 Dipole moment (field-independent basis, Debye):
    X=             -2.0804    Y=             -2.3744    Z=              1.0838  Tot=              3.3378
 Quadrupole moment (field-independent basis, Debye-Ang):
   XX=           -277.3765   YY=           -244.5956   ZZ=           -263.8160
   XY=             21.3096   XZ=              1.9224   YZ=              0.2913

 Normal termination of Gaussian 16 at Sat Jul 20 05:11:39 2019.
