 Gaussian 16, Revision A.03,
 Gaussian 16:  ES64L-G16RevA.03 25-Dec-2016

 -------------------------------------
 # td=(NStates=1) CAM-B3LYP/6-31G(d,p)
 -------------------------------------

 --
 TD
 --
 Symbolic Z-matrix:
 Charge =  0 Multiplicity = 1

                         Standard orientation:
 ---------------------------------------------------------------------
 Center     Atomic      Atomic             Coordinates (Angstroms)
 Number     Number       Type             X           Y           Z
 ---------------------------------------------------------------------
      1          8           0       14.618897   -2.440635   -0.369437
      2          8           0      -14.775870    2.073775    0.467142
      3          6           0       11.192710   -1.505546    0.839907
      4          6           0      -12.418126   -0.989395    0.532862
      5          6           0       12.654690   -1.870126    0.909512
      6          6           0      -13.789948   -0.244461    0.547557
      7          6           0       13.249482   -1.967793   -0.463776
      8          6           0      -13.613967    1.251310    0.646528
      9          6           0       10.999266   -0.309994   -0.024647
     10          6           0      -11.310078   -0.227122   -0.309103
     11          6           0       13.272321   -0.594745   -1.008977
     12          6           0      -12.677994    1.824922   -0.415156
     13          6           0       11.959133    0.171469   -0.845168
     14          6           0      -11.403131    0.993972   -0.694327
     15          6           0       10.769817   -1.024044    2.268648
     16          6           0       10.331401   -2.720243    0.455102
     17          6           0      -12.076472   -1.279377    2.008322
     18          6           0      -12.635666   -2.334854   -0.158506
     19          6           0        9.649898    0.342051   -0.034073
     20          6           0       -9.990530   -0.975871   -0.351336
     21          6           0       11.747835    1.323862   -1.808822
     22          6           0      -10.453697    1.676478   -1.617931
     23          6           0        9.433204    1.728744    0.071784
     24          6           0       -8.720372   -0.523418   -0.153121
     25          6           0        8.062170    2.339862    0.180792
     26          6           0       -7.554513   -1.294959   -0.295790
     27          6           0        8.084952    3.816538    0.305193
     28          6           0       -7.657248   -2.672287   -0.758865
     29          6           0        6.820923    1.718949    0.022498
     30          6           0       -6.208309   -0.669793   -0.134671
     31          6           0        5.453525    2.211737    0.243084
     32          6           0       -5.046712   -1.250347   -0.287171
     33          6           0        4.448063    1.261847    0.098152
     34          6           0       -3.943790   -0.395497   -0.102306
     35          6           0        3.172738    1.782237    0.347203
     36          6           0       -2.616796   -0.903527   -0.362643
     37          6           0        2.893062    3.135102    0.793920
     38          6           0       -2.311075   -2.235723   -0.955673
     39          6           0        2.109934    0.807808    0.038014
     40          6           0       -1.578975    0.095378   -0.089804
     41          6           0        0.777751    1.031757    0.052583
     42          6           0       -0.171796    0.004988   -0.210457
     43          1           0       13.240071   -1.278159    1.626332
     44          1           0       12.792707   -2.858167    1.284383
     45          1           0      -14.531069   -0.484418    1.409983
     46          1           0      -14.270888   -0.269023   -0.429833
     47          1           0       12.556946   -2.773897   -1.197122
     48          1           0      -13.278437    1.228876    1.632675
     49          1           0       14.016058   -0.136122   -0.567433
     50          1           0       13.627977   -0.380677   -2.128613
     51          1           0      -13.362862    1.691992   -1.282632
     52          1           0      -12.722326    2.909841   -0.286164
     53          1           0       11.020717   -1.700534    3.134197
     54          1           0        9.687171   -0.982171    2.420382
     55          1           0       11.248158   -0.113491    2.496613
     56          1           0       10.528573   -3.070918   -0.644797
     57          1           0       10.618283   -3.578613    1.043965
     58          1           0        9.231685   -2.428695    0.198798
     59          1           0      -11.859422   -0.465906    2.772534
     60          1           0      -11.040164   -1.810460    2.229586
     61          1           0      -13.028188   -1.962977    2.369903
     62          1           0      -13.567877   -2.749887    0.230138
     63          1           0      -11.918833   -3.136723    0.192549
     64          1           0      -12.666541   -2.176730   -1.247469
     65          1           0        8.696159   -0.231331    0.141899
     66          1           0      -10.081648   -2.013985   -0.640615
     67          1           0       10.729295    1.554977   -2.086260
     68          1           0       12.163675    2.343423   -1.425295
     69          1           0       11.974075    0.985516   -2.695537
     70          1           0      -10.871991    2.126937   -2.554860
     71          1           0       -9.585532    1.158977   -1.931043
     72          1           0       -9.876306    2.486816   -0.945769
     73          1           0       14.678817   -3.343059    0.151724
     74          1           0      -15.315870    1.808783    1.258318
     75          1           0       10.327961    2.358272    0.082211
     76          1           0       -8.595853    0.474466    0.612646
     77          1           0        9.070987    4.198706    0.489143
     78          1           0        7.674832    4.419916   -0.441480
     79          1           0        7.566024    4.095343    1.140284
     80          1           0       -8.084595   -3.545905   -0.003671
     81          1           0       -8.323433   -2.773928   -1.667501
     82          1           0       -6.700927   -3.365829   -0.955380
     83          1           0        7.011914    0.726279   -0.089711
     84          1           0       -6.251527    0.402385    0.304680
     85          1           0        5.180000    3.191697    0.735068
     86          1           0       -4.748229   -2.261756   -0.797705
     87          1           0        4.766729    0.104270   -0.102934
     88          1           0       -4.019521    0.573586    0.170484
     89          1           0        3.416367    3.265656    1.875612
     90          1           0        1.806371    3.499227    1.385359
     91          1           0        3.132262    3.914927   -0.211892
     92          1           0       -2.948341   -2.982594   -0.217270
     93          1           0       -2.935252   -2.411906   -1.907778
     94          1           0       -1.302518   -2.391580   -1.061268
     95          1           0        2.337140   -0.214665   -0.336250
     96          1           0       -1.945334    1.061766    0.307597
     97          1           0        0.388017    1.810703    0.410268
     98          1           0        0.178194   -0.743687   -0.708700
 ---------------------------------------------------------------------

 SCF Done:  E(RCAM-B3LYP) =  -1706.86697130     A.U. after   16 cycles

 Excitation energies and oscillator strengths:

 Excited State   1:      Singlet-A      1.7585 eV  705.04 nm  f=3.6790  <S**2>=0.000
     155 ->158         0.12773
     156 ->157         0.70435
     156 <-157        -0.13378
 This state for optimization and/or second-order correction.
 Total Energy, E(TD-HF/TD-DFT) =  -1706.80234607
 Copying the excited state density for this state as the 1-particle RhoCI density.

 The electronic state is 1-A.
 Alpha  occ. eigenvalues --  -19.21668 -19.21657 -10.31886 -10.30888 -10.28648
 Alpha  occ. eigenvalues --  -10.28370 -10.28237 -10.28195 -10.27480 -10.27472
 Alpha  occ. eigenvalues --  -10.27463 -10.27436 -10.27337 -10.27116 -10.27031
 Alpha  occ. eigenvalues --  -10.27014 -10.27013 -10.26954 -10.26933 -10.26914
 Alpha  occ. eigenvalues --  -10.26787 -10.26696 -10.26464 -10.26302 -10.26260
 Alpha  occ. eigenvalues --  -10.25992 -10.25939 -10.25937 -10.25708 -10.25423
 Alpha  occ. eigenvalues --  -10.25252 -10.25123 -10.25032 -10.24847 -10.24777
 Alpha  occ. eigenvalues --  -10.24761 -10.24709 -10.24636 -10.24517 -10.24195
 Alpha  occ. eigenvalues --  -10.24072 -10.22815  -1.09064  -1.07318  -0.94304
 Alpha  occ. eigenvalues --   -0.93017  -0.92336  -0.91850  -0.89957  -0.89296
 Alpha  occ. eigenvalues --   -0.87907  -0.87094  -0.86745  -0.85374  -0.84869
 Alpha  occ. eigenvalues --   -0.83278  -0.81904  -0.80096  -0.79087  -0.78693
 Alpha  occ. eigenvalues --   -0.77123  -0.76184  -0.76093  -0.76022  -0.75622
 Alpha  occ. eigenvalues --   -0.75261  -0.75121  -0.74561  -0.72376  -0.70513
 Alpha  occ. eigenvalues --   -0.68261  -0.66959  -0.65105  -0.64891  -0.64841
 Alpha  occ. eigenvalues --   -0.64066  -0.63769  -0.61764  -0.60864  -0.59643
 Alpha  occ. eigenvalues --   -0.59112  -0.58332  -0.58027  -0.57606  -0.55646
 Alpha  occ. eigenvalues --   -0.55399  -0.55141  -0.54790  -0.53956  -0.53671
 Alpha  occ. eigenvalues --   -0.53083  -0.52355  -0.51863  -0.51643  -0.51068
 Alpha  occ. eigenvalues --   -0.50450  -0.50352  -0.49779  -0.49608  -0.49128
 Alpha  occ. eigenvalues --   -0.48925  -0.48411  -0.48247  -0.47988  -0.47794
 Alpha  occ. eigenvalues --   -0.47726  -0.47214  -0.46556  -0.46450  -0.46247
 Alpha  occ. eigenvalues --   -0.45886  -0.45610  -0.45426  -0.45202  -0.44412
 Alpha  occ. eigenvalues --   -0.44157  -0.44051  -0.43714  -0.43329  -0.43152
 Alpha  occ. eigenvalues --   -0.43007  -0.42736  -0.42397  -0.41814  -0.41583
 Alpha  occ. eigenvalues --   -0.41322  -0.41224  -0.40999  -0.40626  -0.40475
 Alpha  occ. eigenvalues --   -0.40292  -0.39968  -0.39425  -0.39241  -0.39122
 Alpha  occ. eigenvalues --   -0.38941  -0.38449  -0.38130  -0.38060  -0.37925
 Alpha  occ. eigenvalues --   -0.37395  -0.37219  -0.37015  -0.36745  -0.36003
 Alpha  occ. eigenvalues --   -0.35779  -0.34668  -0.33639  -0.32044  -0.31728
 Alpha  occ. eigenvalues --   -0.31359  -0.29594  -0.28504  -0.25946  -0.22679
 Alpha  occ. eigenvalues --   -0.17698
 Alpha virt. eigenvalues --   -0.07202  -0.01184   0.01996   0.06040   0.07745
 Alpha virt. eigenvalues --    0.09280   0.10292   0.10614   0.11126   0.11229
 Alpha virt. eigenvalues --    0.11747   0.11788   0.12397   0.12661   0.13062

 Mulliken charges:
               1
     1  O   -0.582461
     2  O   -0.551164
     3  C   -0.005685
     4  C    0.009900
     5  C   -0.189747
     6  C   -0.188901
     7  C    0.185197
     8  C    0.136253
     9  C    0.078553
    10  C    0.048545
    11  C   -0.194072
    12  C   -0.235956
    13  C    0.025071
    14  C    0.065734
    15  C   -0.308782
    16  C   -0.308991
    17  C   -0.294331
    18  C   -0.303420
    19  C   -0.130535
    20  C   -0.138194
    21  C   -0.363649
    22  C   -0.357272
    23  C   -0.095290
    24  C   -0.100893
    25  C    0.054204
    26  C    0.115360
    27  C   -0.380964
    28  C   -0.384175
    29  C   -0.104751
    30  C   -0.125480
    31  C   -0.109870
    32  C   -0.064242
    33  C   -0.075445
    34  C   -0.085907
    35  C    0.108377
    36  C    0.104220
    37  C   -0.374895
    38  C   -0.368238
    39  C   -0.123317
    40  C   -0.140432
    41  C   -0.024294
    42  C   -0.088512
    43  H    0.110300
    44  H    0.074847
    45  H    0.069256
    46  H    0.096513
    47  H    0.048343
    48  H    0.081247
    49  H    0.133492
    50  H    0.084614
    51  H    0.116908
    52  H    0.121755
    53  H    0.083287
    54  H    0.104822
    55  H    0.114856
    56  H    0.088210
    57  H    0.114282
    58  H    0.100858
    59  H    0.102595
    60  H    0.093335
    61  H    0.076672
    62  H    0.100459
    63  H    0.101206
    64  H    0.112138
    65  H    0.085466
    66  H    0.087086
    67  H    0.125310
    68  H    0.106432
    69  H    0.117610
    70  H    0.109109
    71  H    0.126318
    72  H    0.087007
    73  H    0.307969
    74  H    0.301980
    75  H    0.092693
    76  H    0.070969
    77  H    0.098425
    78  H    0.127350
    79  H    0.122627
    80  H    0.091316
    81  H    0.120878
    82  H    0.094270
    83  H    0.053010
    84  H    0.081651
    85  H    0.107504
    86  H    0.090213
    87  H    0.103272
    88  H    0.083914
    89  H    0.119628
    90  H    0.096411
    91  H    0.116577
    92  H    0.105017
    93  H    0.127046
    94  H    0.123343
    95  H    0.075691
    96  H    0.073891
    97  H    0.049129
    98  H    0.059342
 Sum of Mulliken charges =  -0.00000

 Dipole moment (field-independent basis, Debye):
    X=              1.0561    Y=             -1.4235    Z=              2.0563  Tot=              2.7148
 Quadrupole moment (field-independent basis, Debye-Ang):
   XX=           -291.0395   YY=           -244.0374   ZZ=           -260.2631
   XY=              9.3120   XZ=             -3.1271   YZ=              4.0951

 Normal termination of Gaussian 16 at Wed Jul 17 00:54:31 2019.
