 Gaussian 16, Revision A.03,
 Gaussian 16:  ES64L-G16RevA.03 25-Dec-2016

 -------------------------------------
 # td=(NStates=1) CAM-B3LYP/6-31G(d,p)
 -------------------------------------

 --
 TD
 --
 Symbolic Z-matrix:
 Charge =  0 Multiplicity = 1

                         Standard orientation:
 ---------------------------------------------------------------------
 Center     Atomic      Atomic             Coordinates (Angstroms)
 Number     Number       Type             X           Y           Z
 ---------------------------------------------------------------------
      1          8           0       14.665401   -2.311154   -0.518724
      2          8           0      -14.968262    1.670972    0.581962
      3          6           0       11.118313   -1.544049    0.879033
      4          6           0      -12.287082   -1.030758    0.637070
      5          6           0       12.672856   -1.951390    0.754909
      6          6           0      -13.676156   -0.404010    0.608175
      7          6           0       13.250182   -2.002658   -0.572942
      8          6           0      -13.701578    1.111428    0.743840
      9          6           0       10.883814   -0.280780   -0.013223
     10          6           0      -11.183442   -0.210059   -0.186909
     11          6           0       13.178748   -0.453898   -1.097977
     12          6           0      -12.912762    1.747890   -0.427848
     13          6           0       11.912760    0.212297   -0.778941
     14          6           0      -11.556902    1.047348   -0.629248
     15          6           0       10.778108   -1.272755    2.355632
     16          6           0       10.318407   -2.698430    0.443883
     17          6           0      -11.787445   -1.154385    2.151607
     18          6           0      -12.498260   -2.505841    0.148475
     19          6           0        9.611814    0.398147    0.212462
     20          6           0       -9.966497   -0.934912   -0.474888
     21          6           0       11.726745    1.425829   -1.651223
     22          6           0      -10.598842    1.829393   -1.512580
     23          6           0        9.293981    1.747234    0.165892
     24          6           0       -8.683429   -0.402025   -0.440718
     25          6           0        8.023080    2.312749    0.206909
     26          6           0       -7.457290   -1.091484   -0.584170
     27          6           0        7.967438    3.794949    0.447150
     28          6           0       -7.518803   -2.567696   -1.089495
     29          6           0        6.863963    1.664718    0.218789
     30          6           0       -6.238665   -0.536610   -0.308356
     31          6           0        5.532656    2.115621    0.302120
     32          6           0       -5.019323   -1.167685   -0.500497
     33          6           0        4.471944    1.252501    0.165736
     34          6           0       -3.821696   -0.354349   -0.317606
     35          6           0        3.150443    1.673607    0.268480
     36          6           0       -2.540233   -0.785091   -0.411704
     37          6           0        2.841375    3.141823    0.643624
     38          6           0       -2.369530   -2.224507   -0.739850
     39          6           0        2.093598    0.805587    0.039289
     40          6           0       -1.563034    0.128102   -0.221345
     41          6           0        0.748822    1.057667    0.044722
     42          6           0       -0.196362   -0.009588   -0.186639
     43          1           0       13.485211   -1.252731    1.377531
     44          1           0       12.698301   -3.049809    1.349153
     45          1           0      -14.128385   -0.874094    1.523911
     46          1           0      -14.081464   -0.817816   -0.402239
     47          1           0       12.852862   -2.623506   -1.428288
     48          1           0      -13.074285    1.355986    1.654754
     49          1           0       13.908270    0.217372   -0.669800
     50          1           0       13.441831   -0.427710   -2.202711
     51          1           0      -13.418796    1.716184   -1.461110
     52          1           0      -12.754711    2.858020   -0.300505
     53          1           0       10.992035   -2.094113    3.045212
     54          1           0        9.768576   -1.169130    2.413747
     55          1           0       11.070422   -0.398810    2.735735
     56          1           0       10.747758   -3.465841   -0.455058
     57          1           0       10.117893   -3.613435    1.222606
     58          1           0        9.145501   -2.441653    0.219274
     59          1           0      -11.638490   -0.024320    2.610733
     60          1           0      -10.543674   -1.759154    2.212957
     61          1           0      -12.708508   -1.562877    2.943518
     62          1           0      -13.738802   -2.732379    0.711977
     63          1           0      -11.459449   -3.228395    0.508186
     64          1           0      -12.315985   -2.531117   -1.007795
     65          1           0        8.851369   -0.386366    0.627338
     66          1           0       -9.987194   -1.932138   -0.886448
     67          1           0       10.592688    1.616594   -1.692624
     68          1           0       11.813408    2.292513   -1.094362
     69          1           0       12.210853    1.204662   -2.533773
     70          1           0      -11.276525    2.299846   -2.133698
     71          1           0       -9.865897    1.471663   -2.016051
     72          1           0      -10.250694    2.529188   -0.794489
     73          1           0       14.764424   -3.238504   -0.338479
     74          1           0      -15.547176    1.356833    1.386345
     75          1           0       10.165144    2.448776   -0.029587
     76          1           0       -8.511425    0.602645   -0.118881
     77          1           0        8.864685    4.352073    0.348565
     78          1           0        7.507402    4.194560   -0.502258
     79          1           0        7.447338    4.186616    1.377710
     80          1           0       -7.438770   -3.217203   -0.045906
     81          1           0       -8.510536   -2.751504   -1.860246
     82          1           0       -6.462074   -2.842270   -1.504636
     83          1           0        6.941006    0.632624    0.184866
     84          1           0       -6.189504    0.586943   -0.029890
     85          1           0        5.358820    3.154693    0.634345
     86          1           0       -4.778343   -2.148267   -0.881593
     87          1           0        4.671277    0.147087   -0.229492
     88          1           0       -4.071795    0.720216   -0.280477
     89          1           0        3.488914    3.399970    1.558629
     90          1           0        1.699988    3.158550    1.114218
     91          1           0        3.004397    3.885872   -0.072838
     92          1           0       -3.012992   -2.873954   -0.121513
     93          1           0       -2.292383   -2.215973   -2.155235
     94          1           0       -1.423075   -2.815217   -0.308335
     95          1           0        2.314452   -0.315476   -0.170698
     96          1           0       -1.752900    1.271546   -0.059704
     97          1           0        0.318973    1.938393    0.246829
     98          1           0        0.242607   -0.977778   -0.475149
 ---------------------------------------------------------------------

 SCF Done:  E(RCAM-B3LYP) =  -1706.82033553     A.U. after   16 cycles

 Excitation energies and oscillator strengths:

 Excited State   1:      Singlet-A      1.8478 eV  670.97 nm  f=3.9281  <S**2>=0.000
     155 ->158        -0.14174
     156 ->157         0.69722
     156 <-157        -0.11000
 This state for optimization and/or second-order correction.
 Total Energy, E(TD-HF/TD-DFT) =  -1706.75242896
 Copying the excited state density for this state as the 1-particle RhoCI density.

 The electronic state is 1-A.
 Alpha  occ. eigenvalues --  -19.22757 -19.20667 -10.31387 -10.31348 -10.29686
 Alpha  occ. eigenvalues --  -10.29622 -10.29609 -10.28866 -10.28343 -10.28142
 Alpha  occ. eigenvalues --  -10.27965 -10.27700 -10.27299 -10.27279 -10.27128
 Alpha  occ. eigenvalues --  -10.27024 -10.26886 -10.26850 -10.26845 -10.26793
 Alpha  occ. eigenvalues --  -10.26748 -10.26482 -10.26458 -10.26446 -10.26366
 Alpha  occ. eigenvalues --  -10.26352 -10.26339 -10.26287 -10.26267 -10.26085
 Alpha  occ. eigenvalues --  -10.26082 -10.26001 -10.25951 -10.25951 -10.25897
 Alpha  occ. eigenvalues --  -10.25860 -10.25570 -10.25111 -10.23925 -10.23893
 Alpha  occ. eigenvalues --  -10.22679 -10.22402  -1.09919  -1.08760  -0.93528
 Alpha  occ. eigenvalues --   -0.92913  -0.92452  -0.92131  -0.90866  -0.90222
 Alpha  occ. eigenvalues --   -0.87838  -0.87411  -0.86699  -0.85370  -0.84632
 Alpha  occ. eigenvalues --   -0.82969  -0.81647  -0.80452  -0.79384  -0.78193
 Alpha  occ. eigenvalues --   -0.76813  -0.76184  -0.76011  -0.75789  -0.74867
 Alpha  occ. eigenvalues --   -0.74482  -0.73794  -0.73071  -0.71822  -0.71162
 Alpha  occ. eigenvalues --   -0.69222  -0.67769  -0.65904  -0.65146  -0.63915
 Alpha  occ. eigenvalues --   -0.63012  -0.62511  -0.61237  -0.60462  -0.59978
 Alpha  occ. eigenvalues --   -0.59176  -0.58648  -0.57962  -0.57381  -0.56415
 Alpha  occ. eigenvalues --   -0.55868  -0.55273  -0.54700  -0.54373  -0.53477
 Alpha  occ. eigenvalues --   -0.53211  -0.52711  -0.52137  -0.51784  -0.51290
 Alpha  occ. eigenvalues --   -0.50471  -0.50027  -0.49829  -0.49413  -0.49005
 Alpha  occ. eigenvalues --   -0.48848  -0.48643  -0.48423  -0.48182  -0.48009
 Alpha  occ. eigenvalues --   -0.47222  -0.46692  -0.46474  -0.46095  -0.46023
 Alpha  occ. eigenvalues --   -0.45223  -0.45152  -0.44634  -0.44397  -0.44114
 Alpha  occ. eigenvalues --   -0.44027  -0.43775  -0.43139  -0.42706  -0.42564
 Alpha  occ. eigenvalues --   -0.42363  -0.42263  -0.42132  -0.41744  -0.41536
 Alpha  occ. eigenvalues --   -0.41224  -0.41124  -0.40913  -0.40765  -0.40462
 Alpha  occ. eigenvalues --   -0.40094  -0.39688  -0.39420  -0.39280  -0.39009
 Alpha  occ. eigenvalues --   -0.38758  -0.38333  -0.38160  -0.37977  -0.37426
 Alpha  occ. eigenvalues --   -0.37405  -0.37278  -0.36375  -0.36056  -0.35681
 Alpha  occ. eigenvalues --   -0.35192  -0.34463  -0.33521  -0.32935  -0.32811
 Alpha  occ. eigenvalues --   -0.32382  -0.30343  -0.28307  -0.25953  -0.22837
 Alpha  occ. eigenvalues --   -0.18257
 Alpha virt. eigenvalues --   -0.07004  -0.01400   0.02097   0.05782   0.07778
 Alpha virt. eigenvalues --    0.08446   0.08994   0.10162   0.10740   0.11406
 Alpha virt. eigenvalues --    0.11854   0.12090   0.12605   0.12807   0.13172

 Mulliken charges:
               1
     1  O   -0.560430
     2  O   -0.551836
     3  C   -0.005661
     4  C   -0.000201
     5  C   -0.173161
     6  C   -0.194974
     7  C    0.169001
     8  C    0.185891
     9  C    0.079756
    10  C    0.063625
    11  C   -0.246369
    12  C   -0.223647
    13  C    0.046398
    14  C    0.006784
    15  C   -0.293564
    16  C   -0.288764
    17  C   -0.249461
    18  C   -0.263121
    19  C   -0.108560
    20  C   -0.134459
    21  C   -0.375242
    22  C   -0.330227
    23  C   -0.143135
    24  C   -0.091724
    25  C    0.121233
    26  C    0.108331
    27  C   -0.386257
    28  C   -0.354465
    29  C   -0.114532
    30  C   -0.126895
    31  C   -0.084821
    32  C   -0.098028
    33  C   -0.104417
    34  C   -0.123369
    35  C    0.104855
    36  C    0.144474
    37  C   -0.368185
    38  C   -0.358094
    39  C   -0.121717
    40  C   -0.126618
    41  C   -0.061398
    42  C   -0.094407
    43  H    0.096180
    44  H    0.047713
    45  H    0.078846
    46  H    0.104926
    47  H    0.090324
    48  H    0.081450
    49  H    0.133859
    50  H    0.104769
    51  H    0.120438
    52  H    0.110808
    53  H    0.100873
    54  H    0.104291
    55  H    0.115191
    56  H    0.078972
    57  H    0.082564
    58  H    0.087016
    59  H    0.076011
    60  H    0.070281
    61  H    0.066053
    62  H    0.070016
    63  H    0.068608
    64  H    0.103624
    65  H    0.082131
    66  H    0.084024
    67  H    0.117660
    68  H    0.136131
    69  H    0.111811
    70  H    0.103792
    71  H    0.120893
    72  H    0.120189
    73  H    0.300616
    74  H    0.305789
    75  H    0.075774
    76  H    0.073720
    77  H    0.106067
    78  H    0.113576
    79  H    0.118939
    80  H    0.106358
    81  H    0.099664
    82  H    0.107782
    83  H    0.064829
    84  H    0.081840
    85  H    0.086550
    86  H    0.100564
    87  H    0.084156
    88  H    0.081803
    89  H    0.111340
    90  H    0.088584
    91  H    0.138070
    92  H    0.132811
    93  H    0.086592
    94  H    0.094741
    95  H    0.075350
    96  H    0.073618
    97  H    0.073847
    98  H    0.074970
 Sum of Mulliken charges =  -0.00000

 Dipole moment (field-independent basis, Debye):
    X=             -0.3274    Y=             -0.5225    Z=              0.7003  Tot=              0.9331
 Quadrupole moment (field-independent basis, Debye-Ang):
   XX=           -273.4544   YY=           -244.5119   ZZ=           -263.0855
   XY=             -5.3886   XZ=            -10.8698   YZ=              3.2617

 Normal termination of Gaussian 16 at Tue Jul 16 04:00:42 2019.
