 Gaussian 16, Revision A.03,
 Gaussian 16:  ES64L-G16RevA.03 25-Dec-2016

 -------------------------------------
 # td=(NStates=1) CAM-B3LYP/6-31G(d,p)
 -------------------------------------

 --
 TD
 --
 Symbolic Z-matrix:
 Charge =  0 Multiplicity = 1

                         Standard orientation:
 ---------------------------------------------------------------------
 Center     Atomic      Atomic             Coordinates (Angstroms)
 Number     Number       Type             X           Y           Z
 ---------------------------------------------------------------------
      1          8           0       14.741803   -2.251029   -0.208379
      2          8           0      -14.550078    2.176770    0.877138
      3          6           0       11.211326   -1.495819    1.048873
      4          6           0      -12.355674   -0.949190    0.674549
      5          6           0       12.744110   -1.732099    1.007869
      6          6           0      -13.675994   -0.061111    0.553020
      7          6           0       13.255288   -1.834372   -0.384910
      8          6           0      -13.332691    1.350027    0.859548
      9          6           0       10.957670   -0.253825    0.054554
     10          6           0      -11.321827   -0.279015   -0.195428
     11          6           0       13.235130   -0.391063   -0.941584
     12          6           0      -12.508939    1.853183   -0.262271
     13          6           0       11.889121    0.222617   -0.841079
     14          6           0      -11.414212    1.013416   -0.688032
     15          6           0       10.727804   -1.089419    2.409092
     16          6           0       10.382442   -2.636490    0.400085
     17          6           0      -11.830215   -1.063830    2.056879
     18          6           0      -12.696840   -2.323172   -0.023851
     19          6           0        9.763565    0.425635    0.115158
     20          6           0      -10.045453   -1.044768   -0.376716
     21          6           0       11.646551    1.321527   -1.860129
     22          6           0      -10.394267    1.658575   -1.605588
     23          6           0        9.249482    1.737884    0.070668
     24          6           0       -8.809046   -0.522730   -0.313211
     25          6           0        8.028903    2.344368    0.213629
     26          6           0       -7.583504   -1.351461   -0.585088
     27          6           0        7.852546    3.856353    0.459854
     28          6           0       -7.747772   -2.745749   -0.922139
     29          6           0        6.886469    1.593466    0.115787
     30          6           0       -6.308889   -0.716335   -0.378692
     31          6           0        5.531479    2.078739    0.126712
     32          6           0       -5.051764   -1.350060   -0.382713
     33          6           0        4.433116    1.195174   -0.140605
     34          6           0       -4.022246   -0.511638   -0.186178
     35          6           0        3.119111    1.636302    0.043004
     36          6           0       -2.658101   -1.023718   -0.282613
     37          6           0        2.743055    3.030059    0.592085
     38          6           0       -2.397819   -2.366815   -0.674408
     39          6           0        2.071063    0.738810   -0.311919
     40          6           0       -1.645002   -0.034109   -0.185374
     41          6           0        0.747320    0.893551   -0.191029
     42          6           0       -0.278605   -0.121428   -0.391229
     43          1           0       13.364365   -1.173688    1.691985
     44          1           0       12.868114   -2.706470    1.615275
     45          1           0      -14.454900   -0.526304    1.288733
     46          1           0      -14.127394   -0.275906   -0.374086
     47          1           0       12.909280   -2.461590   -1.200375
     48          1           0      -12.912500    1.700636    1.763260
     49          1           0       14.128386    0.293601   -0.468977
     50          1           0       13.667523   -0.509727   -2.033546
     51          1           0      -13.189616    2.026870   -1.172909
     52          1           0      -12.210222    2.951533   -0.068687
     53          1           0       10.996501   -1.958321    3.128885
     54          1           0        9.786911   -0.945344    2.516570
     55          1           0       11.303155   -0.322828    2.819427
     56          1           0       10.800044   -2.832143   -0.593970
     57          1           0       10.670487   -3.637314    0.938908
     58          1           0        9.278813   -2.557432    0.553943
     59          1           0      -11.686926    0.048260    2.663077
     60          1           0      -10.885307   -1.850951    2.079554
     61          1           0      -12.753848   -1.481606    2.406296
     62          1           0      -13.715145   -2.601992    0.288868
     63          1           0      -11.875640   -2.842460    0.146336
     64          1           0      -12.780015   -2.438391   -1.108389
     65          1           0        8.870374   -0.249311    0.217007
     66          1           0      -10.022777   -2.135572   -0.629373
     67          1           0       10.679315    1.565160   -2.068386
     68          1           0       12.151921    2.098931   -1.449634
     69          1           0       12.335796    1.009199   -2.646796
     70          1           0      -11.130187    2.265268   -2.145208
     71          1           0      -10.045962    1.098483   -2.067032
     72          1           0       -9.771409    2.379782   -0.830790
     73          1           0       14.700973   -3.240482   -0.055185
     74          1           0      -15.247903    1.812264    1.564504
     75          1           0       10.120725    2.407350   -0.117050
     76          1           0       -8.649895    0.595111   -0.108263
     77          1           0        8.823384    4.281927    0.366854
     78          1           0        7.272035    4.257602   -0.378875
     79          1           0        7.254984    4.138722    1.424432
     80          1           0       -8.429406   -3.286740   -0.261290
     81          1           0       -8.281229   -2.947032   -2.027027
     82          1           0       -6.830955   -3.280042   -1.165932
     83          1           0        7.222767    0.568310   -0.152127
     84          1           0       -6.273866    0.251048   -0.103470
     85          1           0        5.386422    3.028004    0.331965
     86          1           0       -5.037369   -2.258517   -0.728943
     87          1           0        4.561970    0.159171   -0.522476
     88          1           0       -4.039151    0.535497    0.298081
     89          1           0        2.724114    3.210053    1.737125
     90          1           0        1.679991    3.143434    0.373677
     91          1           0        3.484771    3.792503    0.059973
     92          1           0       -2.852460   -2.998424    0.117428
     93          1           0       -2.926566   -2.471541   -1.795008
     94          1           0       -1.282574   -2.710203   -0.851190
     95          1           0        2.115371   -0.402394   -0.635819
     96          1           0       -2.016663    0.852071    0.442568
     97          1           0        0.096094    1.792123    0.469576
     98          1           0        0.261359   -0.874929   -0.953059
 ---------------------------------------------------------------------

 SCF Done:  E(RCAM-B3LYP) =  -1706.80843945     A.U. after   16 cycles

 Excitation energies and oscillator strengths:

 Excited State   1:      Singlet-A      1.8072 eV  686.07 nm  f=3.6378  <S**2>=0.000
     155 ->158         0.13321
     156 ->157         0.70002
     156 <-157        -0.11858
 This state for optimization and/or second-order correction.
 Total Energy, E(TD-HF/TD-DFT) =  -1706.74202738
 Copying the excited state density for this state as the 1-particle RhoCI density.

 The electronic state is 1-A.
 Alpha  occ. eigenvalues --  -19.20555 -19.20170 -10.31415 -10.29613 -10.28353
 Alpha  occ. eigenvalues --  -10.28213 -10.27833 -10.27718 -10.27688 -10.27526
 Alpha  occ. eigenvalues --  -10.27232 -10.27215 -10.27214 -10.27180 -10.27083
 Alpha  occ. eigenvalues --  -10.27047 -10.26947 -10.26920 -10.26906 -10.26827
 Alpha  occ. eigenvalues --  -10.26795 -10.26482 -10.26202 -10.26169 -10.26151
 Alpha  occ. eigenvalues --  -10.25997 -10.25994 -10.25941 -10.25930 -10.25715
 Alpha  occ. eigenvalues --  -10.25695 -10.25681 -10.25600 -10.25372 -10.25325
 Alpha  occ. eigenvalues --  -10.25167 -10.25144 -10.24969 -10.24099 -10.23622
 Alpha  occ. eigenvalues --  -10.23431 -10.23193  -1.05991  -1.05112  -0.93909
 Alpha  occ. eigenvalues --   -0.93890  -0.92678  -0.91666  -0.90645  -0.89827
 Alpha  occ. eigenvalues --   -0.88028  -0.87756  -0.87237  -0.85826  -0.85029
 Alpha  occ. eigenvalues --   -0.83729  -0.82058  -0.80703  -0.80405  -0.78506
 Alpha  occ. eigenvalues --   -0.77374  -0.77026  -0.76953  -0.76738  -0.75906
 Alpha  occ. eigenvalues --   -0.75847  -0.75386  -0.74994  -0.72894  -0.71126
 Alpha  occ. eigenvalues --   -0.69047  -0.68049  -0.66232  -0.64953  -0.63821
 Alpha  occ. eigenvalues --   -0.63663  -0.63026  -0.62005  -0.60269  -0.59595
 Alpha  occ. eigenvalues --   -0.59334  -0.58236  -0.57894  -0.57044  -0.55885
 Alpha  occ. eigenvalues --   -0.55481  -0.55182  -0.55014  -0.54245  -0.53809
 Alpha  occ. eigenvalues --   -0.53189  -0.52942  -0.52496  -0.51708  -0.51269
 Alpha  occ. eigenvalues --   -0.51054  -0.50817  -0.50330  -0.50001  -0.49612
 Alpha  occ. eigenvalues --   -0.49198  -0.48841  -0.48808  -0.48601  -0.47750
 Alpha  occ. eigenvalues --   -0.47622  -0.47525  -0.47087  -0.46841  -0.46744
 Alpha  occ. eigenvalues --   -0.46270  -0.46059  -0.45464  -0.45086  -0.44822
 Alpha  occ. eigenvalues --   -0.44363  -0.44225  -0.44079  -0.43608  -0.43522
 Alpha  occ. eigenvalues --   -0.43258  -0.43061  -0.42833  -0.42726  -0.42233
 Alpha  occ. eigenvalues --   -0.41972  -0.41761  -0.41362  -0.41244  -0.40687
 Alpha  occ. eigenvalues --   -0.40611  -0.40464  -0.39743  -0.39598  -0.39544
 Alpha  occ. eigenvalues --   -0.39237  -0.38918  -0.38608  -0.38317  -0.37963
 Alpha  occ. eigenvalues --   -0.36935  -0.36704  -0.36406  -0.35430  -0.35292
 Alpha  occ. eigenvalues --   -0.34903  -0.34121  -0.33621  -0.32454  -0.31941
 Alpha  occ. eigenvalues --   -0.31583  -0.29498  -0.27470  -0.25218  -0.22853
 Alpha  occ. eigenvalues --   -0.18138
 Alpha virt. eigenvalues --   -0.07097  -0.01133   0.01997   0.05764   0.07613
 Alpha virt. eigenvalues --    0.09644   0.10839   0.11168   0.11634   0.11747
 Alpha virt. eigenvalues --    0.11952   0.12215   0.12443   0.12660   0.13524

 Mulliken charges:
               1
     1  O   -0.585790
     2  O   -0.603657
     3  C    0.000812
     4  C   -0.047024
     5  C   -0.176426
     6  C   -0.200771
     7  C    0.130214
     8  C    0.195439
     9  C    0.068552
    10  C    0.076178
    11  C   -0.233214
    12  C   -0.237546
    13  C    0.035103
    14  C    0.021066
    15  C   -0.291862
    16  C   -0.298238
    17  C   -0.266026
    18  C   -0.310682
    19  C   -0.124236
    20  C   -0.163380
    21  C   -0.342537
    22  C   -0.238268
    23  C   -0.139583
    24  C   -0.079654
    25  C    0.113420
    26  C    0.105582
    27  C   -0.369773
    28  C   -0.393170
    29  C   -0.114931
    30  C   -0.115512
    31  C   -0.091523
    32  C   -0.048291
    33  C   -0.092537
    34  C   -0.107590
    35  C    0.094377
    36  C    0.117407
    37  C   -0.357793
    38  C   -0.368411
    39  C   -0.128284
    40  C   -0.127233
    41  C   -0.064891
    42  C   -0.106207
    43  H    0.130385
    44  H    0.067391
    45  H    0.057566
    46  H    0.122743
    47  H    0.113665
    48  H    0.099758
    49  H    0.108861
    50  H    0.089953
    51  H    0.112063
    52  H    0.098820
    53  H    0.074600
    54  H    0.117466
    55  H    0.116345
    56  H    0.109143
    57  H    0.078898
    58  H    0.118145
    59  H    0.088258
    60  H    0.097703
    61  H    0.105833
    62  H    0.098809
    63  H    0.109501
    64  H    0.111674
    65  H    0.051932
    66  H    0.073748
    67  H    0.128764
    68  H    0.133615
    69  H    0.103351
    70  H    0.097071
    71  H    0.083520
    72  H    0.094949
    73  H    0.301279
    74  H    0.299519
    75  H    0.061302
    76  H    0.082025
    77  H    0.111383
    78  H    0.123752
    79  H    0.118208
    80  H    0.130665
    81  H    0.089357
    82  H    0.113935
    83  H    0.071724
    84  H    0.070190
    85  H    0.075577
    86  H    0.077114
    87  H    0.094465
    88  H    0.095097
    89  H    0.118029
    90  H    0.125233
    91  H    0.104126
    92  H    0.129266
    93  H    0.099343
    94  H    0.109951
    95  H    0.081351
    96  H    0.072851
    97  H    0.044076
    98  H    0.072544
 Sum of Mulliken charges =  -0.00000

 Dipole moment (field-independent basis, Debye):
    X=             -1.0016    Y=             -2.5681    Z=              0.8096  Tot=              2.8729
 Quadrupole moment (field-independent basis, Debye-Ang):
   XX=           -280.0487   YY=           -245.4354   ZZ=           -261.4845
   XY=             13.6833   XZ=             -9.6200   YZ=              6.2512

 Normal termination of Gaussian 16 at Wed Jul 10 13:26:22 2019.
