 Gaussian 16, Revision A.03,
 Gaussian 16:  ES64L-G16RevA.03 25-Dec-2016

 -------------------------------------
 # td=(NStates=1) CAM-B3LYP/6-31G(d,p)
 -------------------------------------

 --
 TD
 --
 Symbolic Z-matrix:
 Charge =  0 Multiplicity = 1

                         Standard orientation:
 ---------------------------------------------------------------------
 Center     Atomic      Atomic             Coordinates (Angstroms)
 Number     Number       Type             X           Y           Z
 ---------------------------------------------------------------------
      1          8           0       14.730969   -2.286812   -0.194412
      2          8           0      -14.652239    2.164260    1.081493
      3          6           0       11.259284   -1.313543    1.152809
      4          6           0      -12.425250   -1.022290    0.509412
      5          6           0       12.782216   -1.594134    1.088110
      6          6           0      -13.738863   -0.183843    0.579227
      7          6           0       13.310112   -2.018125   -0.257958
      8          6           0      -13.534244    1.282857    0.892096
      9          6           0       11.049571   -0.219646    0.014507
     10          6           0      -11.264544   -0.202534   -0.174930
     11          6           0       13.219923   -0.762333   -1.134131
     12          6           0      -12.676817    1.982999   -0.015984
     13          6           0       11.847950    0.055244   -1.059146
     14          6           0      -11.507821    1.173851   -0.494694
     15          6           0       10.836167   -0.589659    2.483526
     16          6           0       10.445074   -2.454896    1.051216
     17          6           0      -11.905883   -1.457415    1.909291
     18          6           0      -12.780551   -2.274110   -0.376291
     19          6           0        9.782728    0.563725    0.123357
     20          6           0      -10.070177   -0.916016   -0.477757
     21          6           0       11.588506    0.971253   -2.145777
     22          6           0      -10.537301    1.922203   -1.382841
     23          6           0        9.384015    1.872189   -0.228879
     24          6           0       -8.771447   -0.483840   -0.265384
     25          6           0        8.045845    2.392599    0.022797
     26          6           0       -7.657685   -1.251365   -0.586876
     27          6           0        7.917123    3.879462    0.150389
     28          6           0       -7.849587   -2.620403   -1.031419
     29          6           0        6.878070    1.558673    0.019800
     30          6           0       -6.364176   -0.653021   -0.270401
     31          6           0        5.547604    2.008588    0.212293
     32          6           0       -5.058363   -1.298642   -0.335829
     33          6           0        4.471546    1.099055   -0.039186
     34          6           0       -3.933137   -0.472194   -0.360104
     35          6           0        3.093130    1.455096    0.158142
     36          6           0       -2.549543   -0.996481   -0.432967
     37          6           0        2.817763    2.864104    0.696130
     38          6           0       -2.284841   -2.411642   -0.744333
     39          6           0        2.115718    0.595695   -0.058856
     40          6           0       -1.580996   -0.028041   -0.294726
     41          6           0        0.716540    0.789654   -0.134777
     42          6           0       -0.235279   -0.172042   -0.386842
     43          1           0       13.268761   -0.737187    1.677446
     44          1           0       12.849094   -2.514896    1.769035
     45          1           0      -14.564232   -0.855007    1.136946
     46          1           0      -14.152428   -0.215418   -0.535215
     47          1           0       12.944110   -2.824681   -0.801907
     48          1           0      -13.104435    1.089402    2.023468
     49          1           0       13.886849    0.147434   -0.766454
     50          1           0       13.574072   -0.906528   -2.260674
     51          1           0      -13.459539    2.116373   -0.792659
     52          1           0      -12.343467    2.920894    0.345365
     53          1           0       11.211004   -1.221510    3.343757
     54          1           0        9.769453   -0.441359    2.608970
     55          1           0       11.333194    0.395395    2.677172
     56          1           0       10.662149   -2.895076    0.128275
     57          1           0       10.973967   -3.361751    1.800581
     58          1           0        9.175509   -2.119750    1.423599
     59          1           0      -11.728297   -0.547735    2.426492
     60          1           0      -10.940054   -1.928960    1.851290
     61          1           0      -12.627498   -1.904218    2.368793
     62          1           0      -13.545377   -2.867149   -0.137132
     63          1           0      -12.087989   -3.135459   -0.251252
     64          1           0      -12.837126   -2.157924   -1.481609
     65          1           0        9.034099   -0.080744    0.718983
     66          1           0      -10.108005   -2.071470   -1.040019
     67          1           0       10.536520    1.121393   -2.634425
     68          1           0       12.095952    2.105687   -1.912347
     69          1           0       12.205250    0.738990   -2.905952
     70          1           0      -11.046694    2.593319   -2.092234
     71          1           0       -9.822126    1.375645   -1.949751
     72          1           0      -10.138965    2.679325   -0.681774
     73          1           0       14.913560   -3.037037    0.310601
     74          1           0      -15.291014    1.683389    1.705692
     75          1           0       10.234441    2.560949   -0.415680
     76          1           0       -8.718971    0.560469    0.003662
     77          1           0        8.939419    4.361742    0.250596
     78          1           0        7.584257    4.420856   -0.672488
     79          1           0        7.469853    4.225562    1.008673
     80          1           0       -8.498993   -3.124119   -0.267338
     81          1           0       -8.419156   -2.622928   -1.940041
     82          1           0       -6.750783   -3.188133   -1.031369
     83          1           0        7.169671    0.477451   -0.320528
     84          1           0       -6.400180    0.539122   -0.227576
     85          1           0        5.455878    2.897875    0.546410
     86          1           0       -4.968918   -2.516860   -0.623242
     87          1           0        4.838214    0.079181   -0.709540
     88          1           0       -4.224776    0.715579   -0.209186
     89          1           0        3.882079    3.013283    1.408804
     90          1           0        1.732058    2.850873    1.460772
     91          1           0        2.788923    3.630311   -0.245527
     92          1           0       -2.971765   -3.070383   -0.032188
     93          1           0       -2.459882   -2.759126   -1.793906
     94          1           0       -1.247342   -2.671383   -0.805639
     95          1           0        2.360231   -0.449804   -0.444006
     96          1           0       -1.945044    0.941950   -0.043812
     97          1           0        0.324383    1.735056    0.269221
     98          1           0        0.266007   -1.196690   -0.573868
 ---------------------------------------------------------------------

 SCF Done:  E(RCAM-B3LYP) =  -1706.85532282     A.U. after   15 cycles

 Excitation energies and oscillator strengths:

 Excited State   1:      Singlet-A      2.1367 eV  580.25 nm  f=3.7960  <S**2>=0.000
     155 ->158         0.18690
     156 ->157         0.67856
 This state for optimization and/or second-order correction.
 Total Energy, E(TD-HF/TD-DFT) =  -1706.77679928
 Copying the excited state density for this state as the 1-particle RhoCI density.

 The electronic state is 1-A.
 Alpha  occ. eigenvalues --  -19.21812 -19.20615 -10.31549 -10.31136 -10.30102
 Alpha  occ. eigenvalues --  -10.28192 -10.28153 -10.28144 -10.28136 -10.28108
 Alpha  occ. eigenvalues --  -10.27934 -10.27839 -10.27787 -10.27618 -10.27615
 Alpha  occ. eigenvalues --  -10.27552 -10.27551 -10.27080 -10.27053 -10.26998
 Alpha  occ. eigenvalues --  -10.26986 -10.26906 -10.26818 -10.26531 -10.26509
 Alpha  occ. eigenvalues --  -10.26473 -10.26420 -10.26408 -10.26370 -10.26260
 Alpha  occ. eigenvalues --  -10.26255 -10.25993 -10.25634 -10.25482 -10.25357
 Alpha  occ. eigenvalues --  -10.25184 -10.25171 -10.25083 -10.24677 -10.24305
 Alpha  occ. eigenvalues --  -10.23725 -10.22330  -1.09718  -1.08688  -0.93941
 Alpha  occ. eigenvalues --   -0.92891  -0.91988  -0.91032  -0.90508  -0.89403
 Alpha  occ. eigenvalues --   -0.87978  -0.86990  -0.86666  -0.85076  -0.84543
 Alpha  occ. eigenvalues --   -0.83413  -0.82063  -0.80416  -0.79681  -0.78095
 Alpha  occ. eigenvalues --   -0.77434  -0.76575  -0.76073  -0.75989  -0.75902
 Alpha  occ. eigenvalues --   -0.75115  -0.74971  -0.73258  -0.72870  -0.70306
 Alpha  occ. eigenvalues --   -0.68989  -0.67254  -0.65444  -0.64482  -0.64345
 Alpha  occ. eigenvalues --   -0.63162  -0.62411  -0.60842  -0.59648  -0.58891
 Alpha  occ. eigenvalues --   -0.58539  -0.58361  -0.58011  -0.57116  -0.56227
 Alpha  occ. eigenvalues --   -0.55687  -0.55308  -0.54652  -0.54049  -0.53274
 Alpha  occ. eigenvalues --   -0.52942  -0.52350  -0.51951  -0.51037  -0.50776
 Alpha  occ. eigenvalues --   -0.50406  -0.49950  -0.49320  -0.49167  -0.48896
 Alpha  occ. eigenvalues --   -0.48814  -0.48766  -0.48401  -0.47890  -0.47641
 Alpha  occ. eigenvalues --   -0.47580  -0.47318  -0.47007  -0.46840  -0.46294
 Alpha  occ. eigenvalues --   -0.45860  -0.45845  -0.45222  -0.44646  -0.44287
 Alpha  occ. eigenvalues --   -0.43800  -0.43793  -0.43263  -0.43093  -0.42752
 Alpha  occ. eigenvalues --   -0.42670  -0.42426  -0.42193  -0.41750  -0.41581
 Alpha  occ. eigenvalues --   -0.41140  -0.41056  -0.40981  -0.40685  -0.40456
 Alpha  occ. eigenvalues --   -0.40328  -0.39992  -0.39979  -0.39530  -0.39283
 Alpha  occ. eigenvalues --   -0.38948  -0.38840  -0.38587  -0.38153  -0.37455
 Alpha  occ. eigenvalues --   -0.37155  -0.36790  -0.36661  -0.36547  -0.36285
 Alpha  occ. eigenvalues --   -0.35337  -0.34605  -0.33904  -0.33495  -0.32418
 Alpha  occ. eigenvalues --   -0.30750  -0.29137  -0.27799  -0.25409  -0.22065
 Alpha  occ. eigenvalues --   -0.19072
 Alpha virt. eigenvalues --   -0.05602  -0.01698   0.01770   0.05249   0.07008
 Alpha virt. eigenvalues --    0.08686   0.09444   0.09770   0.11058   0.11571
 Alpha virt. eigenvalues --    0.11878   0.12126   0.12618   0.12793   0.13127

 Mulliken charges:
               1
     1  O   -0.562521
     2  O   -0.567111
     3  C   -0.002930
     4  C   -0.002393
     5  C   -0.204915
     6  C   -0.202796
     7  C    0.186148
     8  C    0.188922
     9  C    0.059008
    10  C    0.040917
    11  C   -0.217104
    12  C   -0.207175
    13  C    0.061487
    14  C    0.041130
    15  C   -0.308364
    16  C   -0.242706
    17  C   -0.293100
    18  C   -0.319937
    19  C   -0.114864
    20  C   -0.153755
    21  C   -0.357224
    22  C   -0.366626
    23  C   -0.129556
    24  C   -0.072286
    25  C    0.072560
    26  C    0.111442
    27  C   -0.389841
    28  C   -0.374930
    29  C   -0.125202
    30  C   -0.140166
    31  C   -0.061439
    32  C   -0.090393
    33  C   -0.113767
    34  C   -0.115235
    35  C    0.119765
    36  C    0.115697
    37  C   -0.332048
    38  C   -0.376710
    39  C   -0.122543
    40  C   -0.106077
    41  C   -0.084699
    42  C   -0.080623
    43  H    0.123020
    44  H    0.064771
    45  H    0.077871
    46  H    0.076265
    47  H    0.106118
    48  H    0.036375
    49  H    0.115933
    50  H    0.088280
    51  H    0.128018
    52  H    0.127880
    53  H    0.090127
    54  H    0.114486
    55  H    0.102359
    56  H    0.113366
    57  H    0.061288
    58  H    0.073532
    59  H    0.107359
    60  H    0.114225
    61  H    0.100426
    62  H    0.106760
    63  H    0.085348
    64  H    0.106240
    65  H    0.066063
    66  H    0.065122
    67  H    0.132236
    68  H    0.079512
    69  H    0.120267
    70  H    0.108219
    71  H    0.129317
    72  H    0.109048
    73  H    0.295347
    74  H    0.308668
    75  H    0.093883
    76  H    0.086476
    77  H    0.095041
    78  H    0.134677
    79  H    0.129479
    80  H    0.125234
    81  H    0.136736
    82  H    0.082796
    83  H    0.078226
    84  H    0.080468
    85  H    0.077055
    86  H    0.083595
    87  H    0.080007
    88  H    0.087382
    89  H    0.088951
    90  H    0.085675
    91  H    0.118739
    92  H    0.110597
    93  H    0.122620
    94  H    0.118532
    95  H    0.067159
    96  H    0.082338
    97  H    0.069849
    98  H    0.072601
 Sum of Mulliken charges =  -0.00000

 Dipole moment (field-independent basis, Debye):
    X=              1.1080    Y=             -1.8548    Z=              0.2546  Tot=              2.1755
 Quadrupole moment (field-independent basis, Debye-Ang):
   XX=           -246.6917   YY=           -244.0462   ZZ=           -262.0192
   XY=              9.5069   XZ=             -0.9460   YZ=              0.2694

 Normal termination of Gaussian 16 at Wed Jul 10 04:38:42 2019.
