 Gaussian 16, Revision A.03,
 Gaussian 16:  ES64L-G16RevA.03 25-Dec-2016

 -------------------------------------
 # td=(NStates=1) CAM-B3LYP/6-31G(d,p)
 -------------------------------------

 --
 TD
 --
 Symbolic Z-matrix:
 Charge =  0 Multiplicity = 1

                         Standard orientation:
 ---------------------------------------------------------------------
 Center     Atomic      Atomic             Coordinates (Angstroms)
 Number     Number       Type             X           Y           Z
 ---------------------------------------------------------------------
      1          8           0       14.742925   -2.268384   -0.338927
      2          8           0      -14.860808    1.886240    0.719866
      3          6           0       11.249299   -1.525209    0.912336
      4          6           0      -12.335310   -1.026590    0.706978
      5          6           0       12.725019   -1.903521    0.914573
      6          6           0      -13.732364   -0.270586    0.738648
      7          6           0       13.440357   -1.925950   -0.447181
      8          6           0      -13.591638    1.210333    0.826633
      9          6           0       10.926693   -0.222528    0.053096
     10          6           0      -11.288959   -0.225045   -0.220877
     11          6           0       13.242582   -0.423058   -0.952060
     12          6           0      -12.699537    1.738663   -0.330143
     13          6           0       11.880561    0.178706   -0.792192
     14          6           0      -11.537466    0.960107   -0.783620
     15          6           0       10.646382   -1.237845    2.355875
     16          6           0       10.285361   -2.705879    0.345256
     17          6           0      -11.901966   -1.245166    2.132061
     18          6           0      -12.721943   -2.438609    0.142016
     19          6           0        9.683049    0.391993    0.120462
     20          6           0      -10.085174   -1.020120   -0.304563
     21          6           0       11.822210    1.192736   -1.840427
     22          6           0      -10.638713    1.601823   -1.746805
     23          6           0        9.298805    1.721008    0.202878
     24          6           0       -8.781572   -0.489906   -0.298009
     25          6           0        8.019622    2.305613    0.334323
     26          6           0       -7.581709   -1.201785   -0.447864
     27          6           0        8.016808    3.671071    0.924503
     28          6           0       -7.512559   -2.657231   -0.733690
     29          6           0        6.851641    1.573402    0.047768
     30          6           0       -6.400003   -0.528617   -0.400545
     31          6           0        5.579662    2.026364    0.337722
     32          6           0       -4.975889   -0.943955   -0.595310
     33          6           0        4.549463    1.276452   -0.060143
     34          6           0       -3.788115   -0.231928   -0.304324
     35          6           0        3.065944    1.714435    0.057437
     36          6           0       -2.504950   -0.730625   -0.398099
     37          6           0        2.840181    3.116223    0.548006
     38          6           0       -2.375542   -2.133358   -0.843473
     39          6           0        2.085804    0.942871   -0.345752
     40          6           0       -1.403230    0.127060   -0.277061
     41          6           0        0.670781    1.096228   -0.179021
     42          6           0       -0.173395   -0.023540   -0.432258
     43          1           0       13.180715   -1.068817    1.551596
     44          1           0       12.725250   -2.894255    1.371928
     45          1           0      -14.271557   -0.675932    1.484179
     46          1           0      -14.208229   -0.377244   -0.444174
     47          1           0       12.684789   -2.621661   -1.162357
     48          1           0      -13.150054    1.634543    1.767454
     49          1           0       13.829503    0.153567   -0.454266
     50          1           0       13.695675   -0.552512   -1.943065
     51          1           0      -13.568260    1.707886   -1.304811
     52          1           0      -12.541882    2.760107   -0.130626
     53          1           0       11.090266   -1.991435    3.131730
     54          1           0        9.626673   -1.254733    2.233886
     55          1           0       11.084639   -0.334957    2.695856
     56          1           0       10.584746   -2.947898   -0.679883
     57          1           0       10.559650   -3.667408    0.978146
     58          1           0        9.184038   -2.256175    0.347905
     59          1           0      -11.896335   -0.282904    2.578284
     60          1           0      -10.855702   -1.708374    2.043439
     61          1           0      -12.457958   -2.038850    2.614609
     62          1           0      -13.500821   -2.947193    0.623775
     63          1           0      -11.987863   -2.999581    0.273062
     64          1           0      -12.717819   -2.539047   -1.039881
     65          1           0        8.978367   -0.593304    0.167321
     66          1           0      -10.195337   -2.184574   -0.352320
     67          1           0       10.579958    1.658573   -2.069630
     68          1           0       12.198422    2.273060   -1.502568
     69          1           0       12.495864    1.118990   -2.734139
     70          1           0      -11.221057    2.269738   -2.409048
     71          1           0       -9.928765    0.697075   -2.258525
     72          1           0      -10.125309    2.414332   -1.169520
     73          1           0       14.832822   -3.184456   -0.266926
     74          1           0      -15.568039    1.612056    1.408300
     75          1           0       10.193274    2.211555    0.343824
     76          1           0       -8.661176    0.634774   -0.172428
     77          1           0        8.985457    4.069569    0.984971
     78          1           0        7.442302    4.266402    0.295187
     79          1           0        7.595582    3.931204    1.793781
     80          1           0       -7.854123   -3.324213    0.052218
     81          1           0       -8.203381   -2.972876   -1.452027
     82          1           0       -6.570812   -2.914000   -1.187648
     83          1           0        7.264186    0.529095   -0.372138
     84          1           0       -6.538855    0.381414   -0.179744
     85          1           0        5.574025    2.926480    0.837256
     86          1           0       -4.806029   -1.934260   -0.830808
     87          1           0        4.525972    0.224991   -0.153582
     88          1           0       -3.916096    0.808303    0.138850
     89          1           0        3.097253    3.309203    1.599132
     90          1           0        1.646395    3.148939    0.576206
     91          1           0        3.014850    3.868355   -0.201571
     92          1           0       -2.879105   -2.858316   -0.040679
     93          1           0       -2.793267   -2.442096   -1.793675
     94          1           0       -1.334125   -2.402163   -1.037782
     95          1           0        2.143322   -0.168910   -0.852077
     96          1           0       -1.873674    1.073309   -0.135668
     97          1           0        0.331155    1.951944    0.348712
     98          1           0        0.322416   -0.844369   -0.760468
 ---------------------------------------------------------------------

 SCF Done:  E(RCAM-B3LYP) =  -1706.85783369     A.U. after   15 cycles

 Excitation energies and oscillator strengths:

 Excited State   1:      Singlet-A      2.1177 eV  585.47 nm  f=3.8012  <S**2>=0.000
     155 ->158        -0.16333
     156 ->157         0.68641
 This state for optimization and/or second-order correction.
 Total Energy, E(TD-HF/TD-DFT) =  -1706.78001046
 Copying the excited state density for this state as the 1-particle RhoCI density.

 The electronic state is 1-A.
 Alpha  occ. eigenvalues --  -19.22686 -19.20515 -10.32122 -10.30303 -10.27941
 Alpha  occ. eigenvalues --  -10.27339 -10.27321 -10.27287 -10.26957 -10.26944
 Alpha  occ. eigenvalues --  -10.26916 -10.26806 -10.26733 -10.26670 -10.26531
 Alpha  occ. eigenvalues --  -10.26514 -10.26447 -10.26377 -10.26348 -10.26344
 Alpha  occ. eigenvalues --  -10.26315 -10.26236 -10.26216 -10.26199 -10.26180
 Alpha  occ. eigenvalues --  -10.26097 -10.25751 -10.25725 -10.25650 -10.25596
 Alpha  occ. eigenvalues --  -10.25467 -10.25101 -10.25094 -10.24949 -10.24591
 Alpha  occ. eigenvalues --  -10.24574 -10.24163 -10.24142 -10.23928 -10.23924
 Alpha  occ. eigenvalues --  -10.23319 -10.23036  -1.13577  -1.06866  -0.93699
 Alpha  occ. eigenvalues --   -0.93439  -0.93056  -0.91906  -0.91046  -0.90299
 Alpha  occ. eigenvalues --   -0.87990  -0.87639  -0.86731  -0.86285  -0.84584
 Alpha  occ. eigenvalues --   -0.84141  -0.81575  -0.80395  -0.79935  -0.78743
 Alpha  occ. eigenvalues --   -0.77282  -0.77110  -0.76757  -0.75848  -0.75664
 Alpha  occ. eigenvalues --   -0.75056  -0.74996  -0.74606  -0.73798  -0.71436
 Alpha  occ. eigenvalues --   -0.69764  -0.68099  -0.66666  -0.65193  -0.64500
 Alpha  occ. eigenvalues --   -0.64143  -0.62844  -0.62334  -0.60951  -0.60094
 Alpha  occ. eigenvalues --   -0.59788  -0.59301  -0.57858  -0.56744  -0.56482
 Alpha  occ. eigenvalues --   -0.56166  -0.55786  -0.55142  -0.54836  -0.54229
 Alpha  occ. eigenvalues --   -0.53639  -0.53424  -0.52501  -0.51710  -0.51140
 Alpha  occ. eigenvalues --   -0.50602  -0.50553  -0.50297  -0.50138  -0.49776
 Alpha  occ. eigenvalues --   -0.49010  -0.48662  -0.48222  -0.48024  -0.47847
 Alpha  occ. eigenvalues --   -0.47791  -0.47684  -0.47419  -0.47158  -0.46898
 Alpha  occ. eigenvalues --   -0.46578  -0.46159  -0.45906  -0.45411  -0.45165
 Alpha  occ. eigenvalues --   -0.44773  -0.44634  -0.44456  -0.43503  -0.43398
 Alpha  occ. eigenvalues --   -0.43217  -0.42902  -0.42520  -0.42064  -0.41865
 Alpha  occ. eigenvalues --   -0.41600  -0.41162  -0.41047  -0.40968  -0.40782
 Alpha  occ. eigenvalues --   -0.40499  -0.39960  -0.39692  -0.39217  -0.38984
 Alpha  occ. eigenvalues --   -0.38846  -0.38325  -0.37798  -0.37495  -0.37266
 Alpha  occ. eigenvalues --   -0.37175  -0.36986  -0.36406  -0.36280  -0.35635
 Alpha  occ. eigenvalues --   -0.34789  -0.34505  -0.33673  -0.32606  -0.31572
 Alpha  occ. eigenvalues --   -0.31392  -0.29801  -0.28440  -0.25466  -0.22803
 Alpha  occ. eigenvalues --   -0.19145
 Alpha virt. eigenvalues --   -0.06155  -0.01542   0.01696   0.06081   0.08087
 Alpha virt. eigenvalues --    0.10114   0.11028   0.11531   0.11973   0.12378
 Alpha virt. eigenvalues --    0.12832   0.12868   0.13532   0.13675   0.13971

 Mulliken charges:
               1
     1  O   -0.519154
     2  O   -0.581958
     3  C   -0.038784
     4  C   -0.031965
     5  C   -0.179014
     6  C   -0.157472
     7  C    0.168966
     8  C    0.181724
     9  C    0.062381
    10  C    0.057747
    11  C   -0.239166
    12  C   -0.233155
    13  C    0.090250
    14  C    0.114927
    15  C   -0.279213
    16  C   -0.297536
    17  C   -0.294305
    18  C   -0.297803
    19  C   -0.095848
    20  C   -0.161119
    21  C   -0.372610
    22  C   -0.368136
    23  C   -0.132940
    24  C   -0.123764
    25  C    0.088072
    26  C    0.152561
    27  C   -0.390344
    28  C   -0.388193
    29  C   -0.097736
    30  C   -0.107867
    31  C   -0.071502
    32  C   -0.103309
    33  C   -0.102360
    34  C   -0.125527
    35  C    0.062249
    36  C    0.121641
    37  C   -0.373287
    38  C   -0.387526
    39  C   -0.106239
    40  C   -0.090503
    41  C   -0.089967
    42  C   -0.065840
    43  H    0.091968
    44  H    0.074117
    45  H    0.079667
    46  H    0.074057
    47  H    0.038407
    48  H    0.070627
    49  H    0.135010
    50  H    0.109460
    51  H    0.075775
    52  H    0.115416
    53  H    0.079796
    54  H    0.112093
    55  H    0.108010
    56  H    0.107459
    57  H    0.090452
    58  H    0.092323
    59  H    0.107802
    60  H    0.096811
    61  H    0.102165
    62  H    0.104846
    63  H    0.104034
    64  H    0.083131
    65  H    0.049894
    66  H    0.082800
    67  H    0.073775
    68  H    0.097616
    69  H    0.120522
    70  H    0.110923
    71  H    0.116308
    72  H    0.113821
    73  H    0.310036
    74  H    0.307471
    75  H    0.087669
    76  H    0.093135
    77  H    0.114163
    78  H    0.126206
    79  H    0.131263
    80  H    0.118129
    81  H    0.116380
    82  H    0.114895
    83  H    0.080708
    84  H    0.046202
    85  H    0.096651
    86  H    0.072861
    87  H    0.094771
    88  H    0.076902
    89  H    0.126987
    90  H    0.077846
    91  H    0.140216
    92  H    0.104409
    93  H    0.128895
    94  H    0.099122
    95  H    0.063377
    96  H    0.076397
    97  H    0.093755
    98  H    0.086092
 Sum of Mulliken charges =  -0.00000

 Dipole moment (field-independent basis, Debye):
    X=              1.7652    Y=             -1.4100    Z=              1.7862  Tot=              2.8801
 Quadrupole moment (field-independent basis, Debye-Ang):
   XX=           -258.4060   YY=           -238.5908   ZZ=           -263.0501
   XY=              4.3428   XZ=            -16.1629   YZ=              6.5182

 Normal termination of Gaussian 16 at Wed Jul 17 21:37:41 2019.
