 Gaussian 16, Revision A.03,
 Gaussian 16:  ES64L-G16RevA.03 25-Dec-2016

 -------------------------------------
 # td=(NStates=1) CAM-B3LYP/6-31G(d,p)
 -------------------------------------

 --
 TD
 --
 Symbolic Z-matrix:
 Charge =  0 Multiplicity = 1

                         Standard orientation:
 ---------------------------------------------------------------------
 Center     Atomic      Atomic             Coordinates (Angstroms)
 Number     Number       Type             X           Y           Z
 ---------------------------------------------------------------------
      1          8           0       14.772191   -2.331067   -0.294214
      2          8           0      -14.917863    1.731628    0.720682
      3          6           0       11.208816   -1.629996    0.827047
      4          6           0      -12.356470   -1.069890    0.588956
      5          6           0       12.735159   -1.983375    0.948124
      6          6           0      -13.808211   -0.346423    0.442725
      7          6           0       13.425720   -1.905998   -0.425947
      8          6           0      -13.637390    1.131374    0.770135
      9          6           0       10.967201   -0.264002   -0.039826
     10          6           0      -11.295230   -0.223601   -0.141977
     11          6           0       13.355054   -0.520197   -0.867985
     12          6           0      -12.743364    1.747447   -0.286992
     13          6           0       12.037026    0.235577   -0.701188
     14          6           0      -11.527229    1.018172   -0.537619
     15          6           0       10.648024   -1.562890    2.245210
     16          6           0       10.354389   -2.749327    0.022954
     17          6           0      -11.921167   -1.294352    2.058471
     18          6           0      -12.629264   -2.357978   -0.045719
     19          6           0        9.708102    0.374642    0.053849
     20          6           0      -10.050128   -0.912379   -0.425281
     21          6           0       11.868979    1.561992   -1.555529
     22          6           0      -10.554957    1.787194   -1.501779
     23          6           0        9.408790    1.695731    0.164485
     24          6           0       -8.708885   -0.367444   -0.273667
     25          6           0        8.104388    2.246677    0.279305
     26          6           0       -7.605458   -1.188150   -0.562151
     27          6           0        7.928805    3.726289    0.661621
     28          6           0       -7.760174   -2.717890   -0.744909
     29          6           0        6.917725    1.516991    0.160526
     30          6           0       -6.360834   -0.559944   -0.356056
     31          6           0        5.618843    2.107092    0.202639
     32          6           0       -5.062778   -1.141283   -0.586342
     33          6           0        4.452315    1.365409   -0.003009
     34          6           0       -3.975753   -0.384073   -0.316294
     35          6           0        3.077999    1.836632    0.055945
     36          6           0       -2.538446   -0.731329   -0.417725
     37          6           0        2.862004    3.284480    0.566058
     38          6           0       -2.245184   -2.180951   -0.899949
     39          6           0        2.100763    0.826970   -0.171418
     40          6           0       -1.548270    0.189891   -0.186171
     41          6           0        0.720498    1.104924   -0.063211
     42          6           0       -0.224998    0.061234   -0.277127
     43          1           0       13.185356   -1.281102    1.549496
     44          1           0       12.680196   -2.895303    1.485874
     45          1           0      -14.532164   -0.891303    1.135990
     46          1           0      -14.129940   -0.559512   -0.711548
     47          1           0       12.753234   -2.569082   -1.033529
     48          1           0      -13.285614    1.337554    1.840186
     49          1           0       13.994041    0.092268   -0.424388
     50          1           0       13.480773   -0.268458   -2.019053
     51          1           0      -13.329587    1.954887   -1.210922
     52          1           0      -12.469363    2.814677    0.302677
     53          1           0       10.748798   -2.633488    2.671852
     54          1           0        9.632533   -1.034071    2.340421
     55          1           0       11.103226   -0.840663    3.107994
     56          1           0       10.713851   -3.034689   -0.839377
     57          1           0       10.373629   -3.779192    0.662470
     58          1           0        9.185665   -2.631153   -0.090766
     59          1           0      -12.065379   -0.478464    2.667208
     60          1           0      -10.786911   -1.596976    2.068437
     61          1           0      -12.561381   -2.027798    2.721927
     62          1           0      -13.827729   -2.681861    0.346604
     63          1           0      -11.922371   -3.255551    0.165307
     64          1           0      -12.590315   -2.427335   -1.167332
     65          1           0        9.033099   -0.409674    0.373495
     66          1           0      -10.054942   -2.021552   -0.562732
     67          1           0       10.803879    1.968246   -1.503086
     68          1           0       12.545239    2.419703   -1.238576
     69          1           0       12.081911    1.431519   -2.582380
     70          1           0      -10.965916    2.310017   -2.313203
     71          1           0       -9.675276    1.189335   -2.051774
     72          1           0      -10.246877    2.464375   -0.926354
     73          1           0       14.790774   -3.170657    0.007095
     74          1           0      -15.192318    1.900658    1.970132
     75          1           0       10.165237    2.321635    0.008390
     76          1           0       -8.599542    0.726951   -0.014638
     77          1           0        8.910439    4.314170    0.992197
     78          1           0        7.355844    4.391380    0.048911
     79          1           0        7.175031    3.798531    1.636202
     80          1           0       -8.605058   -2.982336    0.147438
     81          1           0       -8.201460   -2.923536   -1.777240
     82          1           0       -6.786734   -3.349842   -0.508427
     83          1           0        6.975835    0.618346   -0.341396
     84          1           0       -6.234198    0.390421   -0.093856
     85          1           0        5.416408    3.162803    0.495220
     86          1           0       -4.901776   -2.258499   -0.731765
     87          1           0        4.463411    0.277584   -0.252784
     88          1           0       -4.189857    0.836380   -0.160432
     89          1           0        3.008935    3.509667    1.476210
     90          1           0        1.824262    3.738343    0.287344
     91          1           0        3.550797    3.896256    0.165228
     92          1           0       -2.638805   -2.961779   -0.207775
     93          1           0       -2.934993   -2.319584   -1.776027
     94          1           0       -1.232056   -2.331045   -1.088466
     95          1           0        2.431942   -0.140088   -0.599959
     96          1           0       -1.735090    1.127178    0.280274
     97          1           0        0.383714    2.050767    0.286145
     98          1           0        0.414520   -0.857022   -0.385749
 ---------------------------------------------------------------------

 SCF Done:  E(RCAM-B3LYP) =  -1706.87846338     A.U. after   15 cycles

 Excitation energies and oscillator strengths:

 Excited State   1:      Singlet-A      2.0748 eV  597.58 nm  f=3.8440  <S**2>=0.000
     155 ->158         0.16545
     156 ->157         0.68579
 This state for optimization and/or second-order correction.
 Total Energy, E(TD-HF/TD-DFT) =  -1706.80221700
 Copying the excited state density for this state as the 1-particle RhoCI density.

 The electronic state is 1-A.
 Alpha  occ. eigenvalues --  -19.22764 -19.21022 -10.31172 -10.30492 -10.29204
 Alpha  occ. eigenvalues --  -10.28889 -10.28380 -10.28108 -10.27704 -10.27555
 Alpha  occ. eigenvalues --  -10.27466 -10.27303 -10.27279 -10.27195 -10.27043
 Alpha  occ. eigenvalues --  -10.26830 -10.26778 -10.26567 -10.26564 -10.26509
 Alpha  occ. eigenvalues --  -10.26456 -10.26432 -10.26416 -10.26299 -10.26242
 Alpha  occ. eigenvalues --  -10.26198 -10.26194 -10.26189 -10.25719 -10.25697
 Alpha  occ. eigenvalues --  -10.25650 -10.25579 -10.25523 -10.25484 -10.25408
 Alpha  occ. eigenvalues --  -10.25329 -10.25192 -10.25025 -10.24947 -10.24627
 Alpha  occ. eigenvalues --  -10.24510 -10.23523  -1.11446  -1.06394  -0.93414
 Alpha  occ. eigenvalues --   -0.93317  -0.91882  -0.91046  -0.90438  -0.89488
 Alpha  occ. eigenvalues --   -0.87230  -0.87009  -0.86386  -0.86092  -0.84243
 Alpha  occ. eigenvalues --   -0.82666  -0.81877  -0.79832  -0.79634  -0.78605
 Alpha  occ. eigenvalues --   -0.76720  -0.76416  -0.75842  -0.75803  -0.75517
 Alpha  occ. eigenvalues --   -0.75249  -0.75221  -0.73797  -0.73141  -0.70819
 Alpha  occ. eigenvalues --   -0.69648  -0.67458  -0.66575  -0.64388  -0.63363
 Alpha  occ. eigenvalues --   -0.63292  -0.62778  -0.62507  -0.60388  -0.60337
 Alpha  occ. eigenvalues --   -0.60077  -0.59586  -0.58323  -0.57559  -0.56655
 Alpha  occ. eigenvalues --   -0.56110  -0.55279  -0.54661  -0.53657  -0.53303
 Alpha  occ. eigenvalues --   -0.52712  -0.52328  -0.51804  -0.51287  -0.50683
 Alpha  occ. eigenvalues --   -0.50335  -0.49976  -0.49756  -0.48926  -0.48639
 Alpha  occ. eigenvalues --   -0.48472  -0.48060  -0.47883  -0.47740  -0.47350
 Alpha  occ. eigenvalues --   -0.47154  -0.46836  -0.46717  -0.46280  -0.46135
 Alpha  occ. eigenvalues --   -0.45977  -0.45609  -0.44934  -0.44879  -0.44579
 Alpha  occ. eigenvalues --   -0.44455  -0.44384  -0.44178  -0.43520  -0.43258
 Alpha  occ. eigenvalues --   -0.42987  -0.42676  -0.42360  -0.42326  -0.41935
 Alpha  occ. eigenvalues --   -0.41710  -0.41511  -0.41241  -0.41025  -0.40703
 Alpha  occ. eigenvalues --   -0.40640  -0.40185  -0.39936  -0.39386  -0.39322
 Alpha  occ. eigenvalues --   -0.39170  -0.38658  -0.38646  -0.38448  -0.38158
 Alpha  occ. eigenvalues --   -0.37725  -0.37582  -0.36856  -0.36745  -0.36291
 Alpha  occ. eigenvalues --   -0.35465  -0.34789  -0.34019  -0.32614  -0.32016
 Alpha  occ. eigenvalues --   -0.30714  -0.30066  -0.28933  -0.25509  -0.22509
 Alpha  occ. eigenvalues --   -0.18987
 Alpha virt. eigenvalues --   -0.06032  -0.01633   0.01549   0.02951   0.05974
 Alpha virt. eigenvalues --    0.08232   0.10057   0.11363   0.11941   0.12038
 Alpha virt. eigenvalues --    0.12431   0.12802   0.13290   0.13659   0.14035

 Mulliken charges:
               1
     1  O   -0.543747
     2  O   -0.542989
     3  C   -0.024499
     4  C    0.007283
     5  C   -0.192865
     6  C   -0.174591
     7  C    0.171477
     8  C    0.167102
     9  C    0.067333
    10  C    0.083509
    11  C   -0.197033
    12  C   -0.219941
    13  C    0.011186
    14  C    0.047269
    15  C   -0.299919
    16  C   -0.306525
    17  C   -0.296801
    18  C   -0.285884
    19  C   -0.100291
    20  C   -0.167462
    21  C   -0.376221
    22  C   -0.352176
    23  C   -0.097740
    24  C   -0.093401
    25  C    0.103569
    26  C    0.106286
    27  C   -0.378113
    28  C   -0.356593
    29  C   -0.121312
    30  C   -0.107605
    31  C   -0.092426
    32  C   -0.080400
    33  C   -0.112159
    34  C   -0.113842
    35  C    0.095739
    36  C    0.086395
    37  C   -0.371144
    38  C   -0.370639
    39  C   -0.142521
    40  C   -0.117728
    41  C   -0.080757
    42  C   -0.078885
    43  H    0.117295
    44  H    0.088603
    45  H    0.085631
    46  H    0.093900
    47  H    0.077054
    48  H    0.074201
    49  H    0.135354
    50  H    0.096420
    51  H    0.128341
    52  H    0.072023
    53  H    0.095915
    54  H    0.107518
    55  H    0.083463
    56  H    0.124054
    57  H    0.064145
    58  H    0.102686
    59  H    0.104751
    60  H    0.100967
    61  H    0.080798
    62  H    0.064233
    63  H    0.081656
    64  H    0.103590
    65  H    0.080628
    66  H    0.082732
    67  H    0.116373
    68  H    0.105246
    69  H    0.115049
    70  H    0.107606
    71  H    0.106913
    72  H    0.127447
    73  H    0.296708
    74  H    0.275311
    75  H    0.085770
    76  H    0.097703
    77  H    0.092633
    78  H    0.131493
    79  H    0.094658
    80  H    0.100600
    81  H    0.127732
    82  H    0.108167
    83  H    0.088736
    84  H    0.072594
    85  H    0.074677
    86  H    0.080705
    87  H    0.073539
    88  H    0.063923
    89  H    0.140807
    90  H    0.096576
    91  H    0.125382
    92  H    0.119463
    93  H    0.119473
    94  H    0.118585
    95  H    0.094645
    96  H    0.085701
    97  H    0.082776
    98  H    0.076115
 Sum of Mulliken charges =  -0.00000

 Dipole moment (field-independent basis, Debye):
    X=              0.8097    Y=             -0.5258    Z=              1.8265  Tot=              2.0660
 Quadrupole moment (field-independent basis, Debye-Ang):
   XX=           -292.3993   YY=           -239.5985   ZZ=           -260.1069
   XY=             -7.4779   XZ=            -16.6828   YZ=              5.8109

 Normal termination of Gaussian 16 at Sat Jul 13 11:45:12 2019.
