 Gaussian 16, Revision A.03,
 Gaussian 16:  ES64L-G16RevA.03 25-Dec-2016

 -------------------------------------
 # td=(NStates=1) CAM-B3LYP/6-31G(d,p)
 -------------------------------------

 --
 TD
 --
 Symbolic Z-matrix:
 Charge =  0 Multiplicity = 1

                         Standard orientation:
 ---------------------------------------------------------------------
 Center     Atomic      Atomic             Coordinates (Angstroms)
 Number     Number       Type             X           Y           Z
 ---------------------------------------------------------------------
      1          8           0       14.660369   -2.428510   -0.256656
      2          8           0      -14.919335    1.818061    0.988027
      3          6           0       11.090835   -1.498959    1.033138
      4          6           0      -12.438460   -1.157913    0.718974
      5          6           0       12.587226   -1.976326    1.077421
      6          6           0      -13.840471   -0.400074    0.727107
      7          6           0       13.321963   -2.025517   -0.258659
      8          6           0      -13.677830    1.126893    0.877246
      9          6           0       10.975669   -0.284983    0.125712
     10          6           0      -11.249847   -0.303686    0.018223
     11          6           0       13.267080   -0.595721   -0.884510
     12          6           0      -12.855135    1.714083   -0.276473
     13          6           0       11.962794    0.116141   -0.709061
     14          6           0      -11.564892    0.959026   -0.516790
     15          6           0       10.656346   -1.278498    2.350298
     16          6           0       10.235966   -2.651943    0.353042
     17          6           0      -12.043635   -1.381331    2.239808
     18          6           0      -12.646837   -2.470927    0.031046
     19          6           0        9.680281    0.408148    0.259156
     20          6           0       -9.974714   -0.989260   -0.220985
     21          6           0       11.772930    1.114449   -1.785819
     22          6           0      -10.653385    1.779665   -1.416374
     23          6           0        9.452541    1.677942    0.266702
     24          6           0       -8.731545   -0.451573   -0.210908
     25          6           0        8.182839    2.352516    0.327542
     26          6           0       -7.574458   -1.192608   -0.635534
     27          6           0        8.148509    3.736551    0.529682
     28          6           0       -7.557358   -2.548299   -1.280347
     29          6           0        6.934136    1.588019    0.069626
     30          6           0       -6.316957   -0.591920   -0.326163
     31          6           0        5.588553    2.093129    0.187131
     32          6           0       -5.026597   -0.989277   -0.786733
     33          6           0        4.458091    1.377205   -0.160543
     34          6           0       -3.870356   -0.093092   -0.468461
     35          6           0        3.157647    1.793445    0.042634
     36          6           0       -2.554568   -0.652945   -0.681431
     37          6           0        2.864621    3.285157    0.564231
     38          6           0       -2.268280   -2.060736   -1.102373
     39          6           0        2.153793    0.858541   -0.272300
     40          6           0       -1.515425    0.268031   -0.476488
     41          6           0        0.776004    1.153454   -0.267601
     42          6           0       -0.138929    0.081481   -0.502101
     43          1           0       13.132067   -1.244226    1.730018
     44          1           0       12.538157   -3.125188    1.584022
     45          1           0      -14.454296   -0.707866    1.392355
     46          1           0      -14.214532   -0.432888   -0.271695
     47          1           0       12.868256   -2.619648   -0.932372
     48          1           0      -13.057613    1.214885    1.793897
     49          1           0       14.180442   -0.130668   -0.435290
     50          1           0       13.493332   -0.629071   -1.983938
     51          1           0      -13.548703    1.488616   -1.210565
     52          1           0      -12.598980    2.814314   -0.197437
     53          1           0       10.773314   -2.058314    3.127406
     54          1           0        9.536209   -0.923178    2.279844
     55          1           0       11.226728   -0.476168    2.974196
     56          1           0       10.472682   -2.884637   -0.611520
     57          1           0       10.301036   -3.570616    1.209500
     58          1           0        9.092355   -2.358370    0.605009
     59          1           0      -12.066933   -0.339012    2.795675
     60          1           0      -10.962013   -1.601034    2.247520
     61          1           0      -12.439540   -2.202662    2.568442
     62          1           0      -13.509760   -3.000399    0.547636
     63          1           0      -11.728240   -3.056614    0.336782
     64          1           0      -12.662807   -2.615819   -1.122573
     65          1           0        8.866259   -0.229409    0.606228
     66          1           0      -10.077598   -2.048581   -0.601033
     67          1           0       10.664407    1.200779   -1.783687
     68          1           0       12.270202    2.112298   -1.479244
     69          1           0       12.102331    0.957129   -2.924432
     70          1           0      -11.204945    2.314061   -2.293519
     71          1           0       -9.918389    1.124201   -1.817105
     72          1           0      -10.240018    2.541736   -0.787560
     73          1           0       14.491210   -3.273383    0.088767
     74          1           0      -15.435988    1.493493    1.713448
     75          1           0       10.427333    2.246077    0.296348
     76          1           0       -8.343296    0.457370    0.297873
     77          1           0        9.301332    4.230862    0.674029
     78          1           0        7.605239    4.244376   -0.176174
     79          1           0        7.470614    4.074242    1.288564
     80          1           0       -7.715532   -3.365103   -0.608686
     81          1           0       -8.185693   -2.482636   -2.255067
     82          1           0       -6.585610   -2.976510   -1.454599
     83          1           0        7.135804    0.672944   -0.393349
     84          1           0       -6.562318    0.349444    0.055127
     85          1           0        5.381326    3.099138    0.571823
     86          1           0       -4.822247   -2.034118   -1.184973
     87          1           0        4.641165    0.436521   -0.552309
     88          1           0       -4.142188    0.996181   -0.212091
     89          1           0        3.466461    3.246601    1.502299
     90          1           0        1.860563    3.621938    0.659085
     91          1           0        3.449685    3.856999   -0.186691
     92          1           0       -2.523044   -2.552595   -0.024946
     93          1           0       -2.880676   -2.362678   -1.892361
     94          1           0       -1.121217   -2.219631   -1.444198
     95          1           0        2.451671   -0.140042   -0.565384
     96          1           0       -1.834740    1.091763   -0.068069
     97          1           0        0.568077    2.121092    0.064135
     98          1           0        0.531509   -0.792133   -0.744523
 ---------------------------------------------------------------------

 SCF Done:  E(RCAM-B3LYP) =  -1706.96506573     A.U. after   16 cycles

 Excitation energies and oscillator strengths:

 Excited State   1:      Singlet-A      1.8611 eV  666.17 nm  f=3.8060  <S**2>=0.000
     155 ->158         0.15415
     156 ->157         0.69339
     156 <-157        -0.10264
 This state for optimization and/or second-order correction.
 Total Energy, E(TD-HF/TD-DFT) =  -1706.89666996
 Copying the excited state density for this state as the 1-particle RhoCI density.

 The electronic state is 1-A.
 Alpha  occ. eigenvalues --  -19.21108 -19.20809 -10.30015 -10.29146 -10.28304
 Alpha  occ. eigenvalues --  -10.28112 -10.27893 -10.27797 -10.27719 -10.27560
 Alpha  occ. eigenvalues --  -10.27481 -10.27404 -10.27209 -10.27148 -10.27115
 Alpha  occ. eigenvalues --  -10.27002 -10.26907 -10.26770 -10.26727 -10.26638
 Alpha  occ. eigenvalues --  -10.26465 -10.26403 -10.26375 -10.26374 -10.26171
 Alpha  occ. eigenvalues --  -10.26091 -10.25967 -10.25946 -10.25896 -10.25719
 Alpha  occ. eigenvalues --  -10.25675 -10.25660 -10.25442 -10.25434 -10.25336
 Alpha  occ. eigenvalues --  -10.25156 -10.25011 -10.24991 -10.24724 -10.24694
 Alpha  occ. eigenvalues --  -10.24237 -10.23161  -1.11859  -1.09105  -0.94433
 Alpha  occ. eigenvalues --   -0.92284  -0.91934  -0.91242  -0.90596  -0.90086
 Alpha  occ. eigenvalues --   -0.87747  -0.86969  -0.86611  -0.85343  -0.84753
 Alpha  occ. eigenvalues --   -0.82710  -0.81512  -0.80964  -0.79954  -0.78636
 Alpha  occ. eigenvalues --   -0.76948  -0.76581  -0.76190  -0.75965  -0.75568
 Alpha  occ. eigenvalues --   -0.75402  -0.74919  -0.74517  -0.72821  -0.70536
 Alpha  occ. eigenvalues --   -0.68850  -0.67151  -0.65834  -0.65027  -0.63814
 Alpha  occ. eigenvalues --   -0.62746  -0.62676  -0.62312  -0.60560  -0.60048
 Alpha  occ. eigenvalues --   -0.59662  -0.59422  -0.58565  -0.58304  -0.56320
 Alpha  occ. eigenvalues --   -0.56116  -0.55273  -0.54885  -0.54685  -0.53790
 Alpha  occ. eigenvalues --   -0.53187  -0.52947  -0.52500  -0.51545  -0.50967
 Alpha  occ. eigenvalues --   -0.50722  -0.50310  -0.50004  -0.49442  -0.49278
 Alpha  occ. eigenvalues --   -0.48989  -0.48697  -0.48613  -0.48477  -0.48010
 Alpha  occ. eigenvalues --   -0.47880  -0.47403  -0.47139  -0.47089  -0.46632
 Alpha  occ. eigenvalues --   -0.46510  -0.46202  -0.45924  -0.45151  -0.44806
 Alpha  occ. eigenvalues --   -0.44630  -0.44180  -0.44155  -0.43792  -0.43569
 Alpha  occ. eigenvalues --   -0.42938  -0.42780  -0.42618  -0.42363  -0.42275
 Alpha  occ. eigenvalues --   -0.41770  -0.41440  -0.41309  -0.40860  -0.40294
 Alpha  occ. eigenvalues --   -0.40200  -0.40129  -0.39947  -0.39824  -0.39303
 Alpha  occ. eigenvalues --   -0.39262  -0.38937  -0.38599  -0.38325  -0.38090
 Alpha  occ. eigenvalues --   -0.37718  -0.37422  -0.36712  -0.36000  -0.35770
 Alpha  occ. eigenvalues --   -0.35071  -0.34350  -0.33821  -0.32740  -0.32230
 Alpha  occ. eigenvalues --   -0.31337  -0.29287  -0.27952  -0.25931  -0.22524
 Alpha  occ. eigenvalues --   -0.18084
 Alpha virt. eigenvalues --   -0.06530  -0.01751   0.02285   0.05522   0.07435
 Alpha virt. eigenvalues --    0.09634   0.11070   0.11311   0.12366   0.12823
 Alpha virt. eigenvalues --    0.13110   0.13492   0.13710   0.13792   0.14142

 Mulliken charges:
               1
     1  O   -0.532535
     2  O   -0.562650
     3  C   -0.012610
     4  C   -0.012418
     5  C   -0.188503
     6  C   -0.164309
     7  C    0.157664
     8  C    0.162541
     9  C    0.099862
    10  C    0.041009
    11  C   -0.245622
    12  C   -0.211711
    13  C    0.052274
    14  C    0.043439
    15  C   -0.296208
    16  C   -0.275381
    17  C   -0.304475
    18  C   -0.310295
    19  C   -0.132995
    20  C   -0.155555
    21  C   -0.370752
    22  C   -0.357315
    23  C   -0.104835
    24  C   -0.094518
    25  C    0.115462
    26  C    0.109558
    27  C   -0.392035
    28  C   -0.370860
    29  C   -0.137620
    30  C   -0.122236
    31  C   -0.104974
    32  C   -0.116496
    33  C   -0.083121
    34  C   -0.127261
    35  C    0.070780
    36  C    0.095949
    37  C   -0.368198
    38  C   -0.353876
    39  C   -0.133431
    40  C   -0.103006
    41  C   -0.059696
    42  C   -0.098992
    43  H    0.101088
    44  H    0.046119
    45  H    0.081248
    46  H    0.099429
    47  H    0.082682
    48  H    0.063651
    49  H    0.119831
    50  H    0.103850
    51  H    0.104516
    52  H    0.110134
    53  H    0.105148
    54  H    0.088211
    55  H    0.095720
    56  H    0.122429
    57  H    0.071352
    58  H    0.086647
    59  H    0.098253
    60  H    0.104316
    61  H    0.106685
    62  H    0.096664
    63  H    0.091659
    64  H    0.107584
    65  H    0.082523
    66  H    0.098277
    67  H    0.122268
    68  H    0.105133
    69  H    0.097976
    70  H    0.098368
    71  H    0.122813
    72  H    0.122358
    73  H    0.298735
    74  H    0.303746
    75  H    0.089603
    76  H    0.091799
    77  H    0.088865
    78  H    0.138846
    79  H    0.125272
    80  H    0.123749
    81  H    0.113536
    82  H    0.103073
    83  H    0.085981
    84  H    0.065783
    85  H    0.068974
    86  H    0.092130
    87  H    0.078560
    88  H    0.106492
    89  H    0.131381
    90  H    0.120489
    91  H    0.129335
    92  H    0.120118
    93  H    0.131962
    94  H    0.106359
    95  H    0.077802
    96  H    0.072772
    97  H    0.070328
    98  H    0.083326
 Sum of Mulliken charges =  -0.00000

 Dipole moment (field-independent basis, Debye):
    X=             -1.3075    Y=             -1.7340    Z=              1.1715  Tot=              2.4675
 Quadrupole moment (field-independent basis, Debye-Ang):
   XX=           -300.8982   YY=           -243.4293   ZZ=           -260.4717
   XY=             14.3570   XZ=             -6.7712   YZ=              3.9014

 Normal termination of Gaussian 16 at Wed Jul 17 12:51:06 2019.
