 Gaussian 16, Revision A.03,
 Gaussian 16:  ES64L-G16RevA.03 25-Dec-2016

 -------------------------------------
 # td=(NStates=1) CAM-B3LYP/6-31G(d,p)
 -------------------------------------

 --
 TD
 --
 Symbolic Z-matrix:
 Charge =  0 Multiplicity = 1

                         Standard orientation:
 ---------------------------------------------------------------------
 Center     Atomic      Atomic             Coordinates (Angstroms)
 Number     Number       Type             X           Y           Z
 ---------------------------------------------------------------------
      1          8           0       14.668231   -2.337675   -0.291410
      2          8           0      -14.729700    1.851342    0.968631
      3          6           0       11.197449   -1.540743    0.991124
      4          6           0      -12.334633   -1.148568    0.634777
      5          6           0       12.486735   -2.042466    0.939332
      6          6           0      -13.742287   -0.403210    0.704982
      7          6           0       13.271989   -2.064053   -0.354018
      8          6           0      -13.575701    1.159745    1.028240
      9          6           0       10.942596   -0.276872    0.188271
     10          6           0      -11.277993   -0.229366   -0.157286
     11          6           0       13.165156   -0.602588   -0.856300
     12          6           0      -12.742333    1.693149   -0.188050
     13          6           0       11.843320    0.090280   -0.746882
     14          6           0      -11.455589    1.023294   -0.614043
     15          6           0       10.666978   -1.279710    2.517220
     16          6           0       10.280957   -2.673067    0.459690
     17          6           0      -11.831385   -1.437784    2.057770
     18          6           0      -12.669815   -2.435683   -0.111398
     19          6           0        9.615194    0.323699    0.249532
     20          6           0      -10.065230   -0.981316   -0.364686
     21          6           0       11.763303    1.306645   -1.782475
     22          6           0      -10.475601    1.748620   -1.393383
     23          6           0        9.389514    1.709692    0.011461
     24          6           0       -8.764846   -0.407045   -0.369094
     25          6           0        8.110064    2.413330    0.134725
     26          6           0       -7.546146   -1.155817   -0.614385
     27          6           0        8.158788    3.766746    0.495664
     28          6           0       -7.581870   -2.633504   -1.168406
     29          6           0        6.914426    1.671128   -0.041517
     30          6           0       -6.392091   -0.525704   -0.337357
     31          6           0        5.604128    2.096997    0.146949
     32          6           0       -5.076275   -0.996116   -0.509888
     33          6           0        4.449698    1.289985   -0.073465
     34          6           0       -3.939851   -0.185656   -0.431753
     35          6           0        3.133401    1.780994    0.139955
     36          6           0       -2.561459   -0.604431   -0.590060
     37          6           0        2.844862    3.196803    0.511031
     38          6           0       -2.330785   -1.956636   -1.059068
     39          6           0        2.214732    0.774111   -0.133537
     40          6           0       -1.553833    0.157694   -0.241445
     41          6           0        0.779814    1.022065   -0.061048
     42          6           0       -0.186771    0.041872   -0.304101
     43          1           0       13.222433   -1.544711    1.650746
     44          1           0       12.700574   -3.178391    1.267671
     45          1           0      -14.316067   -0.815887    1.492468
     46          1           0      -14.170436   -0.677073   -0.229625
     47          1           0       12.617512   -2.623994   -1.211639
     48          1           0      -13.256273    1.236212    2.178328
     49          1           0       13.942624   -0.060036   -0.341607
     50          1           0       13.709210   -0.502796   -1.743230
     51          1           0      -13.345971    1.815920   -1.003375
     52          1           0      -12.303408    2.784009   -0.026457
     53          1           0       10.925009   -1.953216    3.321982
     54          1           0        9.555232   -1.271270    2.605687
     55          1           0       11.110686   -0.226678    2.769660
     56          1           0       10.614712   -2.796652   -0.624769
     57          1           0       10.472959   -3.660087    0.851850
     58          1           0        9.187869   -2.466594    0.308012
     59          1           0      -11.984680   -0.320303    2.724624
     60          1           0      -10.871022   -1.720123    1.899791
     61          1           0      -12.661341   -1.991232    2.450280
     62          1           0      -13.428320   -3.126506    0.207890
     63          1           0      -11.911734   -3.208194   -0.011151
     64          1           0      -12.826237   -2.378915   -1.140988
     65          1           0        8.809753   -0.329722    0.579190
     66          1           0      -10.113554   -1.983565   -0.610378
     67          1           0       10.701737    1.367436   -1.987109
     68          1           0       11.919086    2.319611   -1.369913
     69          1           0       12.414259    1.138248   -2.663940
     70          1           0      -11.019961    2.312916   -2.273909
     71          1           0       -9.707878    1.071271   -1.831755
     72          1           0      -10.132686    2.646136   -0.945763
     73          1           0       14.686683   -3.308317   -0.023218
     74          1           0      -15.410479    1.551801    1.692778
     75          1           0       10.352433    2.346434   -0.149837
     76          1           0       -8.479806    0.775368    0.011436
     77          1           0        9.065530    4.458201    0.705098
     78          1           0        7.449946    4.246274   -0.328755
     79          1           0        7.451723    4.024901    1.350934
     80          1           0       -7.937112   -3.374949   -0.497562
     81          1           0       -8.294010   -2.683002   -2.027211
     82          1           0       -6.577433   -3.138150   -1.531313
     83          1           0        6.875588    0.672477   -0.462847
     84          1           0       -6.458530    0.500760   -0.056315
     85          1           0        5.387283    3.157751    0.431744
     86          1           0       -4.792371   -1.987113   -1.077066
     87          1           0        4.622757    0.315238   -0.123226
     88          1           0       -4.254952    0.861010    0.010999
     89          1           0        3.498571    3.519524    1.360154
     90          1           0        1.747136    3.244718    0.957571
     91          1           0        3.008712    3.904070   -0.173892
     92          1           0       -2.684880   -2.663640   -0.288778
     93          1           0       -2.724081   -2.266648   -2.002692
     94          1           0       -1.262744   -2.178622   -1.188579
     95          1           0        2.400445   -0.123031   -0.395552
     96          1           0       -1.942625    1.255647   -0.005730
     97          1           0        0.292927    1.813914    0.121921
     98          1           0        0.245284   -1.008855   -0.262875
 ---------------------------------------------------------------------

 SCF Done:  E(RCAM-B3LYP) =  -1706.94537079     A.U. after   15 cycles

 Excitation energies and oscillator strengths:

 Excited State   1:      Singlet-A      2.1877 eV  566.73 nm  f=3.5964  <S**2>=0.000
     155 ->158        -0.16980
     156 ->157         0.68330
 This state for optimization and/or second-order correction.
 Total Energy, E(TD-HF/TD-DFT) =  -1706.86497362
 Copying the excited state density for this state as the 1-particle RhoCI density.

 The electronic state is 1-A.
 Alpha  occ. eigenvalues --  -19.23492 -19.21631 -10.31880 -10.31505 -10.27923
 Alpha  occ. eigenvalues --  -10.27836 -10.27835 -10.27636 -10.27382 -10.27381
 Alpha  occ. eigenvalues --  -10.27305 -10.27278 -10.27166 -10.26882 -10.26844
 Alpha  occ. eigenvalues --  -10.26473 -10.26453 -10.26357 -10.26190 -10.26139
 Alpha  occ. eigenvalues --  -10.26018 -10.25931 -10.25916 -10.25768 -10.25608
 Alpha  occ. eigenvalues --  -10.25583 -10.25539 -10.25432 -10.25420 -10.25376
 Alpha  occ. eigenvalues --  -10.25268 -10.25202 -10.25162 -10.25062 -10.25044
 Alpha  occ. eigenvalues --  -10.24984 -10.24974 -10.24896 -10.24394 -10.23801
 Alpha  occ. eigenvalues --  -10.23685 -10.23639  -1.10715  -1.10122  -0.94654
 Alpha  occ. eigenvalues --   -0.92646  -0.92453  -0.91798  -0.90604  -0.89938
 Alpha  occ. eigenvalues --   -0.87436  -0.87014  -0.86560  -0.85042  -0.84342
 Alpha  occ. eigenvalues --   -0.82917  -0.81583  -0.79365  -0.79336  -0.78872
 Alpha  occ. eigenvalues --   -0.76930  -0.76774  -0.76500  -0.76269  -0.75572
 Alpha  occ. eigenvalues --   -0.75471  -0.75401  -0.74690  -0.73521  -0.70534
 Alpha  occ. eigenvalues --   -0.69319  -0.67343  -0.66065  -0.65521  -0.64762
 Alpha  occ. eigenvalues --   -0.63808  -0.63559  -0.62013  -0.60614  -0.59638
 Alpha  occ. eigenvalues --   -0.59502  -0.58462  -0.58234  -0.57646  -0.56314
 Alpha  occ. eigenvalues --   -0.55667  -0.55150  -0.54965  -0.54144  -0.53846
 Alpha  occ. eigenvalues --   -0.53099  -0.52609  -0.51910  -0.51679  -0.50720
 Alpha  occ. eigenvalues --   -0.50548  -0.50059  -0.49873  -0.49702  -0.49620
 Alpha  occ. eigenvalues --   -0.49043  -0.48887  -0.48533  -0.48392  -0.48091
 Alpha  occ. eigenvalues --   -0.47858  -0.47117  -0.46967  -0.46882  -0.46595
 Alpha  occ. eigenvalues --   -0.46328  -0.45986  -0.45598  -0.45326  -0.45187
 Alpha  occ. eigenvalues --   -0.44638  -0.44546  -0.43880  -0.43474  -0.43391
 Alpha  occ. eigenvalues --   -0.43172  -0.42811  -0.42720  -0.42558  -0.42205
 Alpha  occ. eigenvalues --   -0.41741  -0.41545  -0.41060  -0.40632  -0.40362
 Alpha  occ. eigenvalues --   -0.40343  -0.40157  -0.39978  -0.39646  -0.39125
 Alpha  occ. eigenvalues --   -0.38701  -0.38416  -0.38222  -0.37870  -0.37811
 Alpha  occ. eigenvalues --   -0.37485  -0.37176  -0.36638  -0.35821  -0.35562
 Alpha  occ. eigenvalues --   -0.35102  -0.34153  -0.33212  -0.32570  -0.32470
 Alpha  occ. eigenvalues --   -0.30199  -0.29828  -0.28074  -0.25774  -0.22427
 Alpha  occ. eigenvalues --   -0.19117
 Alpha virt. eigenvalues --   -0.05403  -0.01412   0.02330   0.05682   0.08020
 Alpha virt. eigenvalues --    0.10034   0.10272   0.10938   0.11539   0.12263
 Alpha virt. eigenvalues --    0.12684   0.13003   0.13320   0.13495   0.13703

 Mulliken charges:
               1
     1  O   -0.544935
     2  O   -0.544293
     3  C    0.010642
     4  C   -0.020594
     5  C   -0.183921
     6  C   -0.197449
     7  C    0.153886
     8  C    0.192922
     9  C    0.064713
    10  C    0.057253
    11  C   -0.237097
    12  C   -0.220026
    13  C    0.053901
    14  C    0.094699
    15  C   -0.310874
    16  C   -0.307062
    17  C   -0.261755
    18  C   -0.334490
    19  C   -0.091396
    20  C   -0.158613
    21  C   -0.376164
    22  C   -0.382356
    23  C   -0.149846
    24  C   -0.130994
    25  C    0.130581
    26  C    0.138341
    27  C   -0.407347
    28  C   -0.378486
    29  C   -0.123992
    30  C   -0.133630
    31  C   -0.097596
    32  C   -0.082747
    33  C   -0.104355
    34  C   -0.129125
    35  C    0.119926
    36  C    0.148199
    37  C   -0.376008
    38  C   -0.399888
    39  C   -0.091007
    40  C   -0.124634
    41  C   -0.048594
    42  C   -0.113164
    43  H    0.101175
    44  H    0.051550
    45  H    0.068638
    46  H    0.102281
    47  H    0.062368
    48  H    0.055815
    49  H    0.120652
    50  H    0.102750
    51  H    0.134246
    52  H    0.077197
    53  H    0.106529
    54  H    0.102120
    55  H    0.096057
    56  H    0.088121
    57  H    0.109209
    58  H    0.097076
    59  H    0.053924
    60  H    0.118708
    61  H    0.109175
    62  H    0.104847
    63  H    0.089923
    64  H    0.119078
    65  H    0.094617
    66  H    0.093098
    67  H    0.135448
    68  H    0.121353
    69  H    0.108910
    70  H    0.081778
    71  H    0.136786
    72  H    0.123968
    73  H    0.312569
    74  H    0.309336
    75  H    0.086117
    76  H    0.086104
    77  H    0.125634
    78  H    0.115468
    79  H    0.128038
    80  H    0.128907
    81  H    0.115613
    82  H    0.102542
    83  H    0.081904
    84  H    0.078211
    85  H    0.061221
    86  H    0.076413
    87  H    0.077960
    88  H    0.069549
    89  H    0.118280
    90  H    0.106725
    91  H    0.145316
    92  H    0.123383
    93  H    0.125261
    94  H    0.106397
    95  H    0.068169
    96  H    0.060455
    97  H    0.050588
    98  H    0.069818
 Sum of Mulliken charges =  -0.00000

 Dipole moment (field-independent basis, Debye):
    X=             -0.0973    Y=             -1.4961    Z=              0.9372  Tot=              1.7681
 Quadrupole moment (field-independent basis, Debye-Ang):
   XX=           -246.6601   YY=           -237.0052   ZZ=           -263.4153
   XY=             10.5181   XZ=             -6.3125   YZ=              3.7403

 Normal termination of Gaussian 16 at Fri Jul 19 00:03:00 2019.
