 Gaussian 16, Revision A.03,
 Gaussian 16:  ES64L-G16RevA.03 25-Dec-2016

 -------------------------------------
 # td=(NStates=1) CAM-B3LYP/6-31G(d,p)
 -------------------------------------

 --
 TD
 --
 Symbolic Z-matrix:
 Charge =  0 Multiplicity = 1

                         Standard orientation:
 ---------------------------------------------------------------------
 Center     Atomic      Atomic             Coordinates (Angstroms)
 Number     Number       Type             X           Y           Z
 ---------------------------------------------------------------------
      1          8           0       14.733827   -2.162142   -0.222637
      2          8           0      -14.695588    1.925397    0.928541
      3          6           0       11.013686   -1.525559    0.838222
      4          6           0      -12.410431   -1.051529    0.648422
      5          6           0       12.626205   -1.953184    0.965308
      6          6           0      -13.768927   -0.281593    0.754849
      7          6           0       13.360897   -1.913652   -0.418466
      8          6           0      -13.543067    1.275915    0.880535
      9          6           0       10.903597   -0.259510    0.006154
     10          6           0      -11.283639   -0.212653   -0.150871
     11          6           0       13.307434   -0.529299   -0.821999
     12          6           0      -12.744413    1.759836   -0.312060
     13          6           0       11.873966    0.140445   -0.807224
     14          6           0      -11.539982    0.980078   -0.627047
     15          6           0       10.633878   -1.282105    2.368600
     16          6           0       10.219247   -2.786445    0.253319
     17          6           0      -11.837286   -1.271493    1.972315
     18          6           0      -12.653897   -2.486253    0.082072
     19          6           0        9.650956    0.385794    0.177867
     20          6           0      -10.022682   -1.004162   -0.424909
     21          6           0       11.774116    1.269744   -1.744987
     22          6           0      -10.628197    1.747600   -1.668713
     23          6           0        9.388275    1.690405    0.135337
     24          6           0       -8.816624   -0.438914   -0.328621
     25          6           0        8.100804    2.308578    0.283410
     26          6           0       -7.568345   -1.218554   -0.555248
     27          6           0        7.960904    3.716121    0.674411
     28          6           0       -7.652342   -2.694976   -0.935904
     29          6           0        6.893471    1.555515   -0.142512
     30          6           0       -6.419947   -0.504744   -0.427874
     31          6           0        5.615180    2.049722    0.209049
     32          6           0       -5.092708   -1.029581   -0.568332
     33          6           0        4.499776    1.304922   -0.021078
     34          6           0       -3.937256   -0.232487   -0.442224
     35          6           0        3.196668    1.711247    0.138659
     36          6           0       -2.553832   -0.753274   -0.378757
     37          6           0        2.874375    3.025810    0.655829
     38          6           0       -2.231824   -2.192495   -0.728068
     39          6           0        2.230893    0.728266   -0.188770
     40          6           0       -1.564165    0.237470   -0.184120
     41          6           0        0.796159    0.951660    0.003800
     42          6           0       -0.164644    0.032333   -0.377983
     43          1           0       13.007508   -1.086634    1.581076
     44          1           0       12.667216   -2.993491    1.512888
     45          1           0      -14.332966   -0.776759    1.608878
     46          1           0      -14.437357   -0.506646   -0.093450
     47          1           0       12.777451   -2.564939   -1.199123
     48          1           0      -12.861469    1.367046    1.852090
     49          1           0       13.743597    0.143573   -0.404166
     50          1           0       13.744792   -0.612469   -2.066118
     51          1           0      -13.278830    1.908649   -1.220550
     52          1           0      -12.288227    2.722154   -0.064794
     53          1           0       10.931694   -1.997421    2.965063
     54          1           0        9.684839   -0.964517    2.497670
     55          1           0       11.265450   -0.429688    2.656465
     56          1           0       10.719943   -2.683767   -0.632158
     57          1           0       10.437797   -3.565067    0.830712
     58          1           0        9.084201   -2.514526    0.240020
     59          1           0      -11.457808   -0.116343    2.091977
     60          1           0      -10.823082   -1.815150    1.699936
     61          1           0      -12.366049   -1.775222    2.635889
     62          1           0      -13.336832   -3.251540    0.813510
     63          1           0      -11.720323   -3.089163   -0.078323
     64          1           0      -13.247693   -2.483101   -0.883378
     65          1           0        8.942714   -0.309478    0.495871
     66          1           0       -9.930646   -2.011331   -0.517973
     67          1           0       10.739862    1.640934   -1.964608
     68          1           0       12.345337    2.273966   -1.525787
     69          1           0       12.103962    0.848739   -2.789654
     70          1           0      -11.302551    2.102882   -2.502891
     71          1           0      -10.187036    0.997529   -2.052153
     72          1           0      -10.049824    2.447848   -1.258796
     73          1           0       14.874774   -2.938657    0.133298
     74          1           0      -15.355204    1.387667    1.473600
     75          1           0       10.170453    2.530125    0.078268
     76          1           0       -8.947532    0.609455   -0.213416
     77          1           0        8.741214    4.158116    0.787710
     78          1           0        7.385680    4.437586   -0.017927
     79          1           0        7.337873    3.980615    1.528190
     80          1           0       -7.940876   -3.331660   -0.102460
     81          1           0       -8.402877   -2.819379   -1.601332
     82          1           0       -6.804887   -2.868074   -1.428238
     83          1           0        7.012368    0.508109   -0.535571
     84          1           0       -6.385472    0.717772   -0.282066
     85          1           0        5.529490    3.038338    0.759970
     86          1           0       -4.717367   -2.077160   -0.567750
     87          1           0        4.508006    0.188782   -0.541160
     88          1           0       -4.064491    0.892004   -0.364933
     89          1           0        2.938545    3.246809    1.647090
     90          1           0        1.802606    3.249146    0.242383
     91          1           0        3.650217    3.741002    0.008600
     92          1           0       -2.837680   -2.793411   -0.432349
     93          1           0       -2.514030   -2.243645   -1.833957
     94          1           0       -1.232297   -2.176643   -0.475539
     95          1           0        2.535848   -0.329951   -0.576626
     96          1           0       -1.806883    1.255633    0.041889
     97          1           0        0.553637    1.953493    0.489191
     98          1           0        0.169640   -0.822185   -0.846555
 ---------------------------------------------------------------------

 SCF Done:  E(RCAM-B3LYP) =  -1706.83373560     A.U. after   15 cycles

 Excitation energies and oscillator strengths:

 Excited State   1:      Singlet-A      2.2043 eV  562.48 nm  f=3.4347  <S**2>=0.000
     155 ->158         0.15996
     156 ->157         0.68799
 This state for optimization and/or second-order correction.
 Total Energy, E(TD-HF/TD-DFT) =  -1706.75273055
 Copying the excited state density for this state as the 1-particle RhoCI density.

 The electronic state is 1-A.
 Alpha  occ. eigenvalues --  -19.22037 -19.20585 -10.31278 -10.31037 -10.28107
 Alpha  occ. eigenvalues --  -10.27768 -10.27585 -10.27474 -10.27440 -10.27433
 Alpha  occ. eigenvalues --  -10.27209 -10.27117 -10.26964 -10.26791 -10.26667
 Alpha  occ. eigenvalues --  -10.26639 -10.26509 -10.26507 -10.26499 -10.26491
 Alpha  occ. eigenvalues --  -10.26296 -10.26218 -10.26218 -10.26139 -10.26031
 Alpha  occ. eigenvalues --  -10.26017 -10.25871 -10.25765 -10.25407 -10.25067
 Alpha  occ. eigenvalues --  -10.25006 -10.24957 -10.24861 -10.24484 -10.24399
 Alpha  occ. eigenvalues --  -10.24356 -10.24220 -10.23989 -10.23977 -10.23971
 Alpha  occ. eigenvalues --  -10.23072 -10.22222  -1.12413  -1.12063  -0.93643
 Alpha  occ. eigenvalues --   -0.93318  -0.92289  -0.91316  -0.90355  -0.89868
 Alpha  occ. eigenvalues --   -0.87656  -0.86990  -0.86536  -0.85758  -0.85020
 Alpha  occ. eigenvalues --   -0.83262  -0.82354  -0.81110  -0.80284  -0.79063
 Alpha  occ. eigenvalues --   -0.77652  -0.77584  -0.76944  -0.76584  -0.75976
 Alpha  occ. eigenvalues --   -0.75384  -0.74384  -0.74326  -0.73458  -0.70918
 Alpha  occ. eigenvalues --   -0.69082  -0.67838  -0.66801  -0.65514  -0.64061
 Alpha  occ. eigenvalues --   -0.63224  -0.62342  -0.61706  -0.60251  -0.59815
 Alpha  occ. eigenvalues --   -0.59613  -0.59430  -0.58757  -0.58024  -0.57548
 Alpha  occ. eigenvalues --   -0.56033  -0.55328  -0.54909  -0.54202  -0.53813
 Alpha  occ. eigenvalues --   -0.53232  -0.52760  -0.52357  -0.52147  -0.51777
 Alpha  occ. eigenvalues --   -0.51273  -0.50874  -0.50388  -0.49950  -0.49825
 Alpha  occ. eigenvalues --   -0.49461  -0.48857  -0.48717  -0.48656  -0.48472
 Alpha  occ. eigenvalues --   -0.48294  -0.47983  -0.47593  -0.47497  -0.47285
 Alpha  occ. eigenvalues --   -0.46388  -0.46335  -0.46072  -0.45891  -0.45543
 Alpha  occ. eigenvalues --   -0.45208  -0.44885  -0.44718  -0.44322  -0.43848
 Alpha  occ. eigenvalues --   -0.43664  -0.43133  -0.42502  -0.41948  -0.41880
 Alpha  occ. eigenvalues --   -0.41638  -0.41377  -0.41232  -0.40790  -0.40496
 Alpha  occ. eigenvalues --   -0.40324  -0.40009  -0.39571  -0.39168  -0.39023
 Alpha  occ. eigenvalues --   -0.38930  -0.38794  -0.38515  -0.38232  -0.37698
 Alpha  occ. eigenvalues --   -0.37072  -0.36462  -0.36120  -0.35958  -0.35578
 Alpha  occ. eigenvalues --   -0.35420  -0.34511  -0.34241  -0.32423  -0.31797
 Alpha  occ. eigenvalues --   -0.30839  -0.30165  -0.28491  -0.26384  -0.23039
 Alpha  occ. eigenvalues --   -0.19246
 Alpha virt. eigenvalues --   -0.05490  -0.01027   0.02744   0.06120   0.08302
 Alpha virt. eigenvalues --    0.10098   0.11210   0.11845   0.12053   0.12237
 Alpha virt. eigenvalues --    0.12613   0.13109   0.13266   0.13726   0.13924

 Mulliken charges:
               1
     1  O   -0.526563
     2  O   -0.538673
     3  C   -0.092421
     4  C   -0.013245
     5  C   -0.214336
     6  C   -0.221322
     7  C    0.170579
     8  C    0.203138
     9  C    0.111423
    10  C    0.058480
    11  C   -0.133579
    12  C   -0.202768
    13  C    0.001850
    14  C   -0.015074
    15  C   -0.297793
    16  C   -0.275111
    17  C   -0.242276
    18  C   -0.298387
    19  C   -0.098076
    20  C   -0.140813
    21  C   -0.369313
    22  C   -0.343559
    23  C   -0.110053
    24  C   -0.057236
    25  C    0.067031
    26  C    0.057240
    27  C   -0.361594
    28  C   -0.360542
    29  C   -0.116144
    30  C   -0.117068
    31  C   -0.106627
    32  C   -0.096183
    33  C   -0.091865
    34  C   -0.112389
    35  C    0.135869
    36  C    0.045117
    37  C   -0.368447
    38  C   -0.319843
    39  C   -0.135983
    40  C   -0.112371
    41  C   -0.098115
    42  C   -0.093260
    43  H    0.103797
    44  H    0.066469
    45  H    0.071730
    46  H    0.094185
    47  H    0.077624
    48  H    0.049074
    49  H    0.124063
    50  H    0.052094
    51  H    0.118827
    52  H    0.113105
    53  H    0.106443
    54  H    0.106247
    55  H    0.093816
    56  H    0.114581
    57  H    0.111727
    58  H    0.087329
    59  H    0.082050
    60  H    0.080921
    61  H    0.099262
    62  H    0.063496
    63  H    0.100614
    64  H    0.095810
    65  H    0.087126
    66  H    0.062974
    67  H    0.121480
    68  H    0.102790
    69  H    0.097438
    70  H    0.096441
    71  H    0.133137
    72  H    0.127714
    73  H    0.284706
    74  H    0.314486
    75  H    0.083444
    76  H    0.078530
    77  H    0.103341
    78  H    0.107572
    79  H    0.120385
    80  H    0.128707
    81  H    0.132396
    82  H    0.123282
    83  H    0.088293
    84  H    0.083053
    85  H    0.090489
    86  H    0.072831
    87  H    0.066006
    88  H    0.075220
    89  H    0.142238
    90  H    0.104060
    91  H    0.092560
    92  H    0.122742
    93  H    0.117295
    94  H    0.118849
    95  H    0.084300
    96  H    0.087137
    97  H    0.081234
    98  H    0.084785
 Sum of Mulliken charges =  -0.00000

 Dipole moment (field-independent basis, Debye):
    X=             -0.8502    Y=             -1.6523    Z=              0.8402  Tot=              2.0393
 Quadrupole moment (field-independent basis, Debye-Ang):
   XX=           -268.1425   YY=           -240.4550   ZZ=           -263.7925
   XY=             11.9445   XZ=              8.2206   YZ=              2.4674

 Normal termination of Gaussian 16 at Fri Jul 12 11:11:31 2019.
