 Gaussian 16, Revision A.03,
 Gaussian 16:  ES64L-G16RevA.03 25-Dec-2016

 -------------------------------------
 # td=(NStates=1) CAM-B3LYP/6-31G(d,p)
 -------------------------------------

 --
 TD
 --
 Symbolic Z-matrix:
 Charge =  0 Multiplicity = 1

                         Standard orientation:
 ---------------------------------------------------------------------
 Center     Atomic      Atomic             Coordinates (Angstroms)
 Number     Number       Type             X           Y           Z
 ---------------------------------------------------------------------
      1          8           0       14.768000   -2.113692   -0.404095
      2          8           0      -14.651513    2.079997    1.221909
      3          6           0       11.289728   -1.392051    1.050831
      4          6           0      -12.331802   -0.898720    0.627693
      5          6           0       12.752937   -1.648713    1.117866
      6          6           0      -13.678817   -0.103614    0.759985
      7          6           0       13.331549   -1.837269   -0.210713
      8          6           0      -13.462873    1.367247    1.059178
      9          6           0       10.819468   -0.256728    0.109502
     10          6           0      -11.274768   -0.127089   -0.173245
     11          6           0       13.169753   -0.624451   -0.994796
     12          6           0      -12.675453    1.979799   -0.138319
     13          6           0       11.769898    0.141377   -0.944012
     14          6           0      -11.464305    1.029287   -0.546644
     15          6           0       10.919462   -0.850865    2.457495
     16          6           0       10.416053   -2.722341    0.754025
     17          6           0      -11.916184   -1.450851    2.109298
     18          6           0      -12.753287   -2.187063   -0.190665
     19          6           0        9.629638    0.407476    0.199974
     20          6           0      -10.087200   -0.895185   -0.465283
     21          6           0       11.591619    1.264356   -1.936512
     22          6           0      -10.600372    1.795215   -1.534721
     23          6           0        9.323324    1.709200    0.133456
     24          6           0       -8.789215   -0.476772   -0.501799
     25          6           0        7.965244    2.332038    0.045534
     26          6           0       -7.561214   -1.287138   -0.695366
     27          6           0        7.932892    3.764550    0.282294
     28          6           0       -7.765832   -2.750949   -1.091777
     29          6           0        6.867523    1.523556   -0.025126
     30          6           0       -6.281226   -0.741289   -0.526140
     31          6           0        5.575268    1.977727    0.103103
     32          6           0       -4.993049   -1.278455   -0.610355
     33          6           0        4.511452    1.136153   -0.013720
     34          6           0       -3.926137   -0.407714   -0.395048
     35          6           0        3.181404    1.510200    0.151162
     36          6           0       -2.608911   -0.888373   -0.601266
     37          6           0        2.843859    2.932573    0.610865
     38          6           0       -2.366959   -2.279166   -0.810954
     39          6           0        2.024481    0.643697   -0.074566
     40          6           0       -1.579963    0.022524   -0.263444
     41          6           0        0.742398    0.775277   -0.032730
     42          6           0       -0.232292   -0.162510   -0.335718
     43          1           0       13.406948   -0.859260    1.804480
     44          1           0       12.948990   -2.585317    1.643870
     45          1           0      -14.259906   -0.575196    1.461378
     46          1           0      -14.149673   -0.140539   -0.147721
     47          1           0       12.708574   -2.612639   -0.741919
     48          1           0      -12.858073    1.462461    1.995332
     49          1           0       14.124572    0.067160   -0.894544
     50          1           0       13.328385   -0.871970   -2.140024
     51          1           0      -13.229368    1.930945   -1.073196
     52          1           0      -12.237293    2.951956    0.033714
     53          1           0       11.398907   -1.539854    3.263195
     54          1           0        9.720167   -0.941271    2.782083
     55          1           0       11.239824    0.311337    2.774559
     56          1           0       10.815780   -3.266193   -0.186095
     57          1           0       10.450567   -3.157469    1.814754
     58          1           0        9.521089   -2.282687    0.671098
     59          1           0      -11.729900   -0.599091    2.718100
     60          1           0      -10.947126   -2.074085    2.172568
     61          1           0      -12.833931   -2.071854    2.617152
     62          1           0      -13.588296   -2.737069    0.280640
     63          1           0      -11.932565   -2.970967   -0.337466
     64          1           0      -12.946306   -2.059989   -1.416524
     65          1           0        8.733567   -0.367833    0.331009
     66          1           0      -10.113072   -2.030112   -0.613166
     67          1           0       10.578098    1.559981   -2.218124
     68          1           0       12.293554    2.078106   -1.468597
     69          1           0       11.938471    1.088930   -2.974680
     70          1           0      -11.120593    2.349498   -2.177543
     71          1           0      -10.031862    1.126182   -2.264557
     72          1           0       -9.842909    2.352267   -0.983789
     73          1           0       14.916605   -2.738810    0.549645
     74          1           0      -15.162548    1.520918    1.998446
     75          1           0       10.122173    2.346049   -0.002350
     76          1           0       -8.415307    0.460050   -0.365469
     77          1           0        8.986286    4.314350    0.041903
     78          1           0        7.233889    4.234302   -0.586055
     79          1           0        7.492955    4.108243    1.154818
     80          1           0       -8.341929   -3.306412   -0.279912
     81          1           0       -8.227429   -3.022240   -2.028521
     82          1           0       -6.861908   -3.424877   -1.284089
     83          1           0        6.884305    0.464061   -0.283889
     84          1           0       -6.343876    0.390503   -0.358478
     85          1           0        5.633168    3.090527    0.192698
     86          1           0       -4.962929   -2.215331   -0.909403
     87          1           0        4.772912    0.105572   -0.280614
     88          1           0       -4.271729    0.635294   -0.343306
     89          1           0        3.554614    3.361865    1.408592
     90          1           0        1.787102    2.982977    0.747899
     91          1           0        3.228607    3.545614   -0.234978
     92          1           0       -2.527209   -2.957728    0.177668
     93          1           0       -3.098340   -2.681825   -1.581031
     94          1           0       -1.302211   -2.317949   -1.105287
     95          1           0        2.367550   -0.432544   -0.180545
     96          1           0       -1.977746    1.059055   -0.036328
     97          1           0        0.166554    1.886023    0.143729
     98          1           0        0.179385   -0.943225   -0.579687
 ---------------------------------------------------------------------

 SCF Done:  E(RCAM-B3LYP) =  -1706.90361042     A.U. after   16 cycles

 Excitation energies and oscillator strengths:

 Excited State   1:      Singlet-A      1.8464 eV  671.48 nm  f=3.7685  <S**2>=0.000
     155 ->158        -0.12718
     156 ->157         0.70228
     156 <-157        -0.12575
 This state for optimization and/or second-order correction.
 Total Energy, E(TD-HF/TD-DFT) =  -1706.83575552
 Copying the excited state density for this state as the 1-particle RhoCI density.

 The electronic state is 1-A.
 Alpha  occ. eigenvalues --  -19.23407 -19.21873 -10.30331 -10.30141 -10.29009
 Alpha  occ. eigenvalues --  -10.28975 -10.28442 -10.28343 -10.28259 -10.27619
 Alpha  occ. eigenvalues --  -10.27510 -10.27469 -10.27078 -10.26928 -10.26803
 Alpha  occ. eigenvalues --  -10.26778 -10.26565 -10.26532 -10.26505 -10.26478
 Alpha  occ. eigenvalues --  -10.26340 -10.26335 -10.26291 -10.26284 -10.26271
 Alpha  occ. eigenvalues --  -10.26239 -10.26229 -10.26205 -10.26166 -10.25937
 Alpha  occ. eigenvalues --  -10.25782 -10.25554 -10.25458 -10.25389 -10.25189
 Alpha  occ. eigenvalues --  -10.25114 -10.25043 -10.24936 -10.24312 -10.24226
 Alpha  occ. eigenvalues --  -10.23716 -10.23411  -1.08524  -1.06666  -0.94051
 Alpha  occ. eigenvalues --   -0.93570  -0.92964  -0.92453  -0.90991  -0.89534
 Alpha  occ. eigenvalues --   -0.88423  -0.87010  -0.86313  -0.85621  -0.85007
 Alpha  occ. eigenvalues --   -0.83525  -0.82431  -0.80981  -0.79429  -0.78704
 Alpha  occ. eigenvalues --   -0.76907  -0.76768  -0.76492  -0.76070  -0.75834
 Alpha  occ. eigenvalues --   -0.75128  -0.74310  -0.74176  -0.73373  -0.70780
 Alpha  occ. eigenvalues --   -0.68877  -0.67388  -0.65880  -0.64763  -0.64152
 Alpha  occ. eigenvalues --   -0.63206  -0.63082  -0.62715  -0.61625  -0.61120
 Alpha  occ. eigenvalues --   -0.60024  -0.58195  -0.57799  -0.57208  -0.55881
 Alpha  occ. eigenvalues --   -0.55698  -0.55342  -0.55164  -0.54264  -0.53616
 Alpha  occ. eigenvalues --   -0.52944  -0.52558  -0.52379  -0.51352  -0.50613
 Alpha  occ. eigenvalues --   -0.50365  -0.50283  -0.50123  -0.49831  -0.49126
 Alpha  occ. eigenvalues --   -0.48411  -0.48272  -0.48085  -0.47995  -0.47733
 Alpha  occ. eigenvalues --   -0.47319  -0.47099  -0.46766  -0.46694  -0.46581
 Alpha  occ. eigenvalues --   -0.46221  -0.45862  -0.45809  -0.45090  -0.45010
 Alpha  occ. eigenvalues --   -0.44701  -0.44269  -0.44067  -0.44017  -0.43407
 Alpha  occ. eigenvalues --   -0.43360  -0.43094  -0.42789  -0.42296  -0.41901
 Alpha  occ. eigenvalues --   -0.41528  -0.41173  -0.40933  -0.40743  -0.40453
 Alpha  occ. eigenvalues --   -0.40289  -0.40240  -0.40062  -0.39967  -0.39570
 Alpha  occ. eigenvalues --   -0.39553  -0.38931  -0.38880  -0.37855  -0.37837
 Alpha  occ. eigenvalues --   -0.37734  -0.37538  -0.37131  -0.36764  -0.35888
 Alpha  occ. eigenvalues --   -0.35086  -0.34735  -0.34164  -0.33053  -0.32674
 Alpha  occ. eigenvalues --   -0.31622  -0.30145  -0.28408  -0.25693  -0.23505
 Alpha  occ. eigenvalues --   -0.18157
 Alpha virt. eigenvalues --   -0.07178  -0.00903   0.02131   0.05591   0.07981
 Alpha virt. eigenvalues --    0.08340   0.10167   0.10404   0.11296   0.12016
 Alpha virt. eigenvalues --    0.12334   0.12531   0.13042   0.13539   0.13770

 Mulliken charges:
               1
     1  O   -0.557101
     2  O   -0.555033
     3  C   -0.021779
     4  C   -0.030086
     5  C   -0.178986
     6  C   -0.185012
     7  C    0.176558
     8  C    0.178957
     9  C    0.050162
    10  C    0.158973
    11  C   -0.216642
    12  C   -0.214817
    13  C    0.046776
    14  C   -0.023209
    15  C   -0.299220
    16  C   -0.292051
    17  C   -0.305671
    18  C   -0.298559
    19  C   -0.092958
    20  C   -0.150213
    21  C   -0.364619
    22  C   -0.360314
    23  C   -0.100404
    24  C   -0.061036
    25  C    0.081988
    26  C    0.091674
    27  C   -0.388821
    28  C   -0.393622
    29  C   -0.091471
    30  C   -0.157564
    31  C   -0.056935
    32  C   -0.033584
    33  C   -0.134583
    34  C   -0.109349
    35  C    0.099521
    36  C    0.099100
    37  C   -0.361488
    38  C   -0.361561
    39  C   -0.147735
    40  C   -0.110237
    41  C   -0.056568
    42  C   -0.034403
    43  H    0.087107
    44  H    0.086066
    45  H    0.079841
    46  H    0.114333
    47  H    0.082438
    48  H    0.065599
    49  H    0.110162
    50  H    0.092516
    51  H    0.122645
    52  H    0.115435
    53  H    0.085893
    54  H    0.078100
    55  H    0.100975
    56  H    0.113523
    57  H    0.102749
    58  H    0.121863
    59  H    0.112636
    60  H    0.104660
    61  H    0.078510
    62  H    0.100788
    63  H    0.092649
    64  H    0.072932
    65  H    0.066922
    66  H    0.080414
    67  H    0.128927
    68  H    0.115913
    69  H    0.109068
    70  H    0.112592
    71  H    0.107019
    72  H    0.118467
    73  H    0.290364
    74  H    0.300768
    75  H    0.075299
    76  H    0.061123
    77  H    0.103505
    78  H    0.100122
    79  H    0.147438
    80  H    0.110877
    81  H    0.126593
    82  H    0.092684
    83  H    0.079338
    84  H    0.061639
    85  H    0.076699
    86  H    0.070147
    87  H    0.085021
    88  H    0.093815
    89  H    0.112790
    90  H    0.115707
    91  H    0.118262
    92  H    0.113877
    93  H    0.112777
    94  H    0.112409
    95  H    0.070906
    96  H    0.076292
    97  H    0.051363
    98  H    0.041367
 Sum of Mulliken charges =  -0.00000

 Dipole moment (field-independent basis, Debye):
    X=              1.7698    Y=             -1.2354    Z=              1.3363  Tot=              2.5385
 Quadrupole moment (field-independent basis, Debye-Ang):
   XX=           -273.2354   YY=           -248.1934   ZZ=           -259.7166
   XY=             20.3176   XZ=              6.6351   YZ=             -2.8371

 Normal termination of Gaussian 16 at Tue Jul 16 23:34:40 2019.
