 Gaussian 16, Revision A.03,
 Gaussian 16:  ES64L-G16RevA.03 25-Dec-2016

 -------------------------------------
 # td=(NStates=1) CAM-B3LYP/6-31G(d,p)
 -------------------------------------

 --
 TD
 --
 Symbolic Z-matrix:
 Charge =  0 Multiplicity = 1

                         Standard orientation:
 ---------------------------------------------------------------------
 Center     Atomic      Atomic             Coordinates (Angstroms)
 Number     Number       Type             X           Y           Z
 ---------------------------------------------------------------------
      1          8           0       14.800292   -1.973314   -0.287768
      2          8           0      -14.840733    1.842392    0.842857
      3          6           0       11.297063   -1.505785    0.937466
      4          6           0      -12.376675   -1.031025    0.597879
      5          6           0       12.782095   -1.839986    1.059480
      6          6           0      -13.696879   -0.326128    0.632956
      7          6           0       13.373850   -1.829216   -0.512885
      8          6           0      -13.538724    1.234034    0.881113
      9          6           0       10.909794   -0.274062   -0.016733
     10          6           0      -11.371687   -0.220545   -0.190313
     11          6           0       13.172646   -0.539910   -1.125992
     12          6           0      -12.839563    1.832466   -0.275255
     13          6           0       11.908003    0.096615   -0.960361
     14          6           0      -11.567186    1.078446   -0.629690
     15          6           0       10.849004   -1.161224    2.375770
     16          6           0       10.396838   -2.727274    0.457592
     17          6           0      -11.834227   -1.237613    2.004310
     18          6           0      -12.644128   -2.337916   -0.017469
     19          6           0        9.653086    0.343455    0.152128
     20          6           0      -10.109843   -0.983474   -0.500974
     21          6           0       11.590785    1.216250   -1.929708
     22          6           0      -10.546143    1.806348   -1.540778
     23          6           0        9.307759    1.667413    0.154706
     24          6           0       -8.911686   -0.473922   -0.244380
     25          6           0        8.001108    2.166595    0.268238
     26          6           0       -7.562490   -1.206725   -0.537237
     27          6           0        7.909331    3.753257    0.376114
     28          6           0       -7.590709   -2.635594   -0.984204
     29          6           0        6.852151    1.495837    0.163524
     30          6           0       -6.394827   -0.581529   -0.377879
     31          6           0        5.596589    2.113979    0.215677
     32          6           0       -5.013681   -1.096104   -0.469984
     33          6           0        4.452704    1.346442    0.073625
     34          6           0       -3.843178   -0.311805   -0.230492
     35          6           0        3.147497    1.766838    0.268760
     36          6           0       -2.547772   -0.802147   -0.380151
     37          6           0        2.759602    3.129737    0.629767
     38          6           0       -2.352238   -2.246097   -0.934632
     39          6           0        2.102786    0.794140    0.007228
     40          6           0       -1.437922    0.035217   -0.184490
     41          6           0        0.721460    0.896851    0.081740
     42          6           0       -0.136089   -0.094243   -0.278381
     43          1           0       13.408470   -1.076581    1.785899
     44          1           0       12.913147   -2.892681    1.441107
     45          1           0      -14.382556   -0.791509    1.300741
     46          1           0      -14.214465   -0.372266   -0.262697
     47          1           0       12.961375   -2.676503   -1.027745
     48          1           0      -13.067840    1.459863    1.683587
     49          1           0       13.887647    0.212187   -0.750915
     50          1           0       13.424299   -0.681080   -2.158509
     51          1           0      -13.304798    1.691817   -1.325813
     52          1           0      -12.519501    2.964885   -0.201639
     53          1           0       11.041915   -2.048778    3.076587
     54          1           0        9.848312   -1.100824    2.605965
     55          1           0       11.310803   -0.047357    2.700580
     56          1           0       10.812259   -3.032931   -0.575215
     57          1           0       10.870009   -3.583135    1.144388
     58          1           0        9.344050   -2.629035    0.488165
     59          1           0      -11.781787   -0.259713    2.516937
     60          1           0      -10.813445   -1.702981    2.100564
     61          1           0      -12.586636   -1.922567    2.692376
     62          1           0      -13.616768   -3.068825    0.478394
     63          1           0      -11.867978   -3.171731    0.218442
     64          1           0      -13.104100   -2.336587   -1.031073
     65          1           0        8.948544   -0.327291    0.438936
     66          1           0      -10.320863   -1.887887   -0.926548
     67          1           0       10.524568    1.554528   -2.170096
     68          1           0       12.196274    2.245911   -1.689099
     69          1           0       12.034753    0.975003   -2.861256
     70          1           0      -11.022512    2.560595   -2.239287
     71          1           0      -10.097334    1.042072   -2.370423
     72          1           0       -9.686895    2.175462   -1.014521
     73          1           0       14.932919   -2.742892    0.401267
     74          1           0      -15.407061    1.479093    1.402092
     75          1           0       10.145375    2.342240   -0.139900
     76          1           0       -8.707039    0.374161   -0.199313
     77          1           0        9.012326    4.207279    0.050635
     78          1           0        7.034389    4.069358   -0.155503
     79          1           0        7.688647    3.958964    1.532756
     80          1           0       -8.197588   -3.134073   -0.394813
     81          1           0       -8.187623   -2.589680   -1.877142
     82          1           0       -6.543906   -3.113304   -1.249882
     83          1           0        6.707905    0.525676   -0.068936
     84          1           0       -6.329188    0.588486   -0.208966
     85          1           0        5.623498    3.204027    0.586503
     86          1           0       -4.897296   -2.141563   -0.770999
     87          1           0        4.531180    0.296746   -0.314820
     88          1           0       -4.027864    0.732457    0.302326
     89          1           0        3.206038    3.429394    1.503736
     90          1           0        1.644558    3.136814    0.845905
     91          1           0        3.195756    3.650923   -0.100686
     92          1           0       -2.624527   -3.142471   -0.065993
     93          1           0       -2.808232   -2.582180   -1.990640
     94          1           0       -1.125899   -2.463876   -1.319046
     95          1           0        2.578003   -0.108835   -0.256195
     96          1           0       -1.637707    0.994672    0.183712
     97          1           0        0.397368    1.875630    0.313526
     98          1           0        0.169532   -0.941323   -0.614667
 ---------------------------------------------------------------------

 SCF Done:  E(RCAM-B3LYP) =  -1706.86674228     A.U. after   15 cycles

 Excitation energies and oscillator strengths:

 Excited State   1:      Singlet-A      2.0040 eV  618.69 nm  f=3.7295  <S**2>=0.000
     155 ->158         0.13543
     156 ->157         0.69765
     156 <-157        -0.10819
 This state for optimization and/or second-order correction.
 Total Energy, E(TD-HF/TD-DFT) =  -1706.79309729
 Copying the excited state density for this state as the 1-particle RhoCI density.

 The electronic state is 1-A.
 Alpha  occ. eigenvalues --  -19.21229 -19.19595 -10.30961 -10.30035 -10.29483
 Alpha  occ. eigenvalues --  -10.28114 -10.27788 -10.27687 -10.27549 -10.27272
 Alpha  occ. eigenvalues --  -10.27193 -10.27170 -10.27167 -10.27111 -10.27039
 Alpha  occ. eigenvalues --  -10.26868 -10.26795 -10.26759 -10.26642 -10.26581
 Alpha  occ. eigenvalues --  -10.26575 -10.26373 -10.26367 -10.26337 -10.26152
 Alpha  occ. eigenvalues --  -10.26100 -10.25978 -10.25879 -10.25835 -10.25662
 Alpha  occ. eigenvalues --  -10.25508 -10.25381 -10.25281 -10.25090 -10.24921
 Alpha  occ. eigenvalues --  -10.24603 -10.24510 -10.24443 -10.24264 -10.24171
 Alpha  occ. eigenvalues --  -10.24086 -10.23804  -1.10272  -1.07303  -0.94339
 Alpha  occ. eigenvalues --   -0.93291  -0.92874  -0.91891  -0.90580  -0.90151
 Alpha  occ. eigenvalues --   -0.87765  -0.87551  -0.87243  -0.86095  -0.85319
 Alpha  occ. eigenvalues --   -0.82835  -0.81696  -0.80439  -0.79629  -0.78744
 Alpha  occ. eigenvalues --   -0.76753  -0.76277  -0.75668  -0.75408  -0.75170
 Alpha  occ. eigenvalues --   -0.75076  -0.75031  -0.74239  -0.72705  -0.71164
 Alpha  occ. eigenvalues --   -0.69929  -0.68976  -0.66834  -0.65968  -0.64401
 Alpha  occ. eigenvalues --   -0.64068  -0.63488  -0.62813  -0.60823  -0.60193
 Alpha  occ. eigenvalues --   -0.60082  -0.58610  -0.58304  -0.57783  -0.56778
 Alpha  occ. eigenvalues --   -0.56142  -0.55434  -0.55367  -0.54439  -0.54013
 Alpha  occ. eigenvalues --   -0.53412  -0.52982  -0.51940  -0.51676  -0.51120
 Alpha  occ. eigenvalues --   -0.50785  -0.50658  -0.50409  -0.49947  -0.49623
 Alpha  occ. eigenvalues --   -0.49324  -0.48667  -0.48605  -0.48485  -0.48194
 Alpha  occ. eigenvalues --   -0.47551  -0.47208  -0.47115  -0.46301  -0.45937
 Alpha  occ. eigenvalues --   -0.45726  -0.45370  -0.45108  -0.44989  -0.44758
 Alpha  occ. eigenvalues --   -0.44287  -0.44087  -0.43659  -0.43609  -0.43099
 Alpha  occ. eigenvalues --   -0.42805  -0.42578  -0.42534  -0.42154  -0.41910
 Alpha  occ. eigenvalues --   -0.41801  -0.41594  -0.41285  -0.41023  -0.40891
 Alpha  occ. eigenvalues --   -0.40696  -0.40095  -0.39774  -0.39667  -0.39499
 Alpha  occ. eigenvalues --   -0.39201  -0.38873  -0.38696  -0.38375  -0.38043
 Alpha  occ. eigenvalues --   -0.37631  -0.37170  -0.36939  -0.36659  -0.36248
 Alpha  occ. eigenvalues --   -0.35269  -0.34866  -0.34095  -0.32250  -0.32013
 Alpha  occ. eigenvalues --   -0.30739  -0.29720  -0.27639  -0.26128  -0.23462
 Alpha  occ. eigenvalues --   -0.18482
 Alpha virt. eigenvalues --   -0.06433  -0.00594   0.02621   0.05545   0.08007
 Alpha virt. eigenvalues --    0.09721   0.10903   0.11463   0.11602   0.12001
 Alpha virt. eigenvalues --    0.12395   0.12566   0.13584   0.14200   0.14293

 Mulliken charges:
               1
     1  O   -0.577044
     2  O   -0.554814
     3  C   -0.016407
     4  C    0.020863
     5  C   -0.204634
     6  C   -0.208119
     7  C    0.160730
     8  C    0.184270
     9  C    0.055085
    10  C    0.029980
    11  C   -0.208649
    12  C   -0.201594
    13  C    0.055557
    14  C    0.029709
    15  C   -0.288518
    16  C   -0.298222
    17  C   -0.291397
    18  C   -0.306024
    19  C   -0.089968
    20  C   -0.131081
    21  C   -0.369793
    22  C   -0.367638
    23  C   -0.115947
    24  C    0.019244
    25  C    0.071493
    26  C    0.060258
    27  C   -0.360768
    28  C   -0.360534
    29  C   -0.062237
    30  C   -0.136382
    31  C   -0.105704
    32  C   -0.092789
    33  C   -0.142712
    34  C   -0.123390
    35  C    0.102223
    36  C    0.124996
    37  C   -0.359652
    38  C   -0.350432
    39  C   -0.125354
    40  C   -0.117895
    41  C   -0.097202
    42  C   -0.004813
    43  H    0.101451
    44  H    0.080875
    45  H    0.087177
    46  H    0.111496
    47  H    0.096784
    48  H    0.092010
    49  H    0.140555
    50  H    0.118181
    51  H    0.118834
    52  H    0.100698
    53  H    0.080430
    54  H    0.106448
    55  H    0.080179
    56  H    0.094218
    57  H    0.077880
    58  H    0.122432
    59  H    0.100913
    60  H    0.112546
    61  H    0.071618
    62  H    0.046357
    63  H    0.100578
    64  H    0.114627
    65  H    0.073419
    66  H    0.097004
    67  H    0.126348
    68  H    0.084180
    69  H    0.107501
    70  H    0.104733
    71  H    0.102287
    72  H    0.134665
    73  H    0.306438
    74  H    0.284227
    75  H    0.088059
    76  H    0.030106
    77  H    0.095030
    78  H    0.130060
    79  H    0.109283
    80  H    0.127170
    81  H    0.121319
    82  H    0.102698
    83  H    0.070242
    84  H    0.061049
    85  H    0.083870
    86  H    0.082058
    87  H    0.086390
    88  H    0.084249
    89  H    0.127459
    90  H    0.103367
    91  H    0.135281
    92  H    0.096395
    93  H    0.115826
    94  H    0.068020
    95  H    0.064870
    96  H    0.063694
    97  H    0.080434
    98  H    0.051288
 Sum of Mulliken charges =  -0.00000

 Dipole moment (field-independent basis, Debye):
    X=              0.0665    Y=             -1.6098    Z=              0.5448  Tot=              1.7008
 Quadrupole moment (field-independent basis, Debye-Ang):
   XX=           -263.8077   YY=           -246.8486   ZZ=           -260.6173
   XY=              7.1827   XZ=             -2.0513   YZ=              1.7758

 Normal termination of Gaussian 16 at Fri Jul 19 01:03:26 2019.
