 Gaussian 16, Revision A.03,
 Gaussian 16:  ES64L-G16RevA.03 25-Dec-2016

 -------------------------------------
 # td=(NStates=1) CAM-B3LYP/6-31G(d,p)
 -------------------------------------

 --
 TD
 --
 Symbolic Z-matrix:
 Charge =  0 Multiplicity = 1

                         Standard orientation:
 ---------------------------------------------------------------------
 Center     Atomic      Atomic             Coordinates (Angstroms)
 Number     Number       Type             X           Y           Z
 ---------------------------------------------------------------------
      1          8           0       14.808588   -1.985585   -0.239045
      2          8           0      -14.757667    1.851909    0.680015
      3          6           0       11.215675   -1.477140    0.844291
      4          6           0      -12.263289   -0.946751    0.682354
      5          6           0       12.730143   -1.749658    1.010494
      6          6           0      -13.589885   -0.208694    0.703026
      7          6           0       13.367911   -1.788143   -0.281831
      8          6           0      -13.470411    1.299279    0.865956
      9          6           0       10.994641   -0.237612    0.024091
     10          6           0      -11.175075   -0.178237   -0.283248
     11          6           0       13.255783   -0.468927   -0.999221
     12          6           0      -12.683750    1.961364   -0.312720
     13          6           0       11.832254    0.145088   -0.921092
     14          6           0      -11.421800    1.098705   -0.689134
     15          6           0       10.705774   -1.160369    2.364600
     16          6           0       10.346210   -2.702722    0.317963
     17          6           0      -11.654876   -1.093534    2.039021
     18          6           0      -12.588485   -2.212310    0.095503
     19          6           0        9.671773    0.281404    0.175497
     20          6           0      -10.090012   -1.022812   -0.499450
     21          6           0       11.658434    1.299994   -1.912812
     22          6           0      -10.519760    1.782481   -1.581912
     23          6           0        9.363267    1.701666    0.090631
     24          6           0       -8.805731   -0.629849   -0.316622
     25          6           0        8.041652    2.291958    0.127965
     26          6           0       -7.610500   -1.306188   -0.611415
     27          6           0        7.957451    3.667955    0.580446
     28          6           0       -7.686118   -2.739582   -1.059139
     29          6           0        6.931168    1.458167    0.118596
     30          6           0       -6.432056   -0.736772   -0.354851
     31          6           0        5.606646    2.099501    0.225834
     32          6           0       -5.121948   -1.252578   -0.474114
     33          6           0        4.415982    1.290206   -0.081059
     34          6           0       -3.957249   -0.393339   -0.158433
     35          6           0        3.022122    1.649789    0.074004
     36          6           0       -2.705304   -0.842936   -0.255333
     37          6           0        2.692085    3.062414    0.481817
     38          6           0       -2.403173   -2.406527   -0.758843
     39          6           0        2.030983    0.711131   -0.110522
     40          6           0       -1.549922    0.076814   -0.203033
     41          6           0        0.694879    0.843763    0.021154
     42          6           0       -0.234908   -0.179169   -0.259262
     43          1           0       13.174522   -0.941997    1.668985
     44          1           0       12.923297   -2.635327    1.589572
     45          1           0      -14.070356   -0.391632    1.737781
     46          1           0      -14.043131   -0.583839   -0.002004
     47          1           0       13.049882   -2.530128   -0.947813
     48          1           0      -13.111875    1.744351    2.074514
     49          1           0       14.093193    0.277992   -0.666725
     50          1           0       13.426415   -0.581818   -2.049560
     51          1           0      -13.211206    2.000926   -1.109878
     52          1           0      -12.403616    3.126244   -0.020671
     53          1           0       11.242139   -1.744213    3.002794
     54          1           0        9.538412   -1.065550    2.374177
     55          1           0       11.045217   -0.025948    2.397292
     56          1           0       10.696833   -2.962328   -0.735693
     57          1           0       10.436847   -3.584130    1.073190
     58          1           0        9.123986   -2.467411    0.241583
     59          1           0      -11.510252   -0.061618    2.512065
     60          1           0      -10.628075   -1.566026    2.116915
     61          1           0      -12.365673   -1.621112    2.734976
     62          1           0      -13.407859   -2.730572    0.549159
     63          1           0      -11.759344   -3.180181    0.063820
     64          1           0      -12.972295   -2.199219   -0.900132
     65          1           0        8.956856   -0.487324    0.482966
     66          1           0      -10.274991   -1.913906   -0.518655
     67          1           0       10.485599    1.330181   -2.211499
     68          1           0       11.861895    2.400616   -1.399585
     69          1           0       12.394748    1.179040   -2.794593
     70          1           0      -11.150331    2.270359   -2.473959
     71          1           0       -9.695184    1.257169   -2.188667
     72          1           0       -9.913670    2.603000   -1.264210
     73          1           0       14.844432   -3.020225    0.018729
     74          1           0      -15.124006    1.738127    1.584699
     75          1           0       10.159720    2.532372    0.055418
     76          1           0       -8.782769    0.331059    0.052088
     77          1           0        8.849409    4.109542    0.580877
     78          1           0        7.395087    4.213231   -0.163047
     79          1           0        7.537501    3.748549    1.644506
     80          1           0       -8.033675   -3.395161   -0.247667
     81          1           0       -8.375173   -2.729493   -1.879531
     82          1           0       -6.871826   -3.302950   -1.584834
     83          1           0        6.982075    0.422420   -0.026084
     84          1           0       -6.441013    0.257854   -0.174788
     85          1           0        5.432880    3.181570    0.626886
     86          1           0       -4.936195   -2.268643   -0.767733
     87          1           0        4.444424    0.244673   -0.228831
     88          1           0       -4.192367    0.493045    0.067533
     89          1           0        3.022095    3.051947    1.624840
     90          1           0        1.656560    3.290121    0.647351
     91          1           0        3.203737    4.024126   -0.001646
     92          1           0       -2.827401   -3.150353   -0.080504
     93          1           0       -3.055056   -2.440161   -1.687187
     94          1           0       -1.477339   -2.498803   -0.940800
     95          1           0        2.373455   -0.269978   -0.353251
     96          1           0       -1.824088    1.099282    0.244798
     97          1           0        0.325102    1.708704    0.198158
     98          1           0       -0.048423   -1.144026   -0.389058
 ---------------------------------------------------------------------

 SCF Done:  E(RCAM-B3LYP) =  -1706.85111438     A.U. after   17 cycles

 Excitation energies and oscillator strengths:

 Excited State   1:      Singlet-A      1.6937 eV  732.02 nm  f=3.7869  <S**2>=0.000
     155 ->158         0.13630
     156 ->157         0.70304
     156 <-157        -0.14030
 This state for optimization and/or second-order correction.
 Total Energy, E(TD-HF/TD-DFT) =  -1706.78887082
 Copying the excited state density for this state as the 1-particle RhoCI density.

 The electronic state is 1-A.
 Alpha  occ. eigenvalues --  -19.21375 -19.21291 -10.32890 -10.29114 -10.28379
 Alpha  occ. eigenvalues --  -10.28075 -10.28010 -10.27919 -10.27719 -10.27598
 Alpha  occ. eigenvalues --  -10.27456 -10.26950 -10.26738 -10.26624 -10.26595
 Alpha  occ. eigenvalues --  -10.26537 -10.26524 -10.26503 -10.26454 -10.26394
 Alpha  occ. eigenvalues --  -10.26189 -10.25858 -10.25771 -10.25516 -10.25400
 Alpha  occ. eigenvalues --  -10.25298 -10.25204 -10.25175 -10.25165 -10.25111
 Alpha  occ. eigenvalues --  -10.25076 -10.25025 -10.24978 -10.24973 -10.24915
 Alpha  occ. eigenvalues --  -10.24915 -10.24824 -10.24487 -10.24472 -10.24331
 Alpha  occ. eigenvalues --  -10.24079 -10.22887  -1.10213  -1.07249  -0.94181
 Alpha  occ. eigenvalues --   -0.93889  -0.92326  -0.91738  -0.90883  -0.89913
 Alpha  occ. eigenvalues --   -0.88088  -0.87152  -0.85893  -0.85435  -0.85088
 Alpha  occ. eigenvalues --   -0.82816  -0.81319  -0.79949  -0.79245  -0.78664
 Alpha  occ. eigenvalues --   -0.77352  -0.76872  -0.76211  -0.76162  -0.75732
 Alpha  occ. eigenvalues --   -0.75350  -0.75180  -0.74639  -0.72788  -0.71225
 Alpha  occ. eigenvalues --   -0.69050  -0.67625  -0.65564  -0.64983  -0.64611
 Alpha  occ. eigenvalues --   -0.64362  -0.63416  -0.62747  -0.62081  -0.60668
 Alpha  occ. eigenvalues --   -0.59883  -0.59081  -0.58323  -0.58077  -0.56560
 Alpha  occ. eigenvalues --   -0.55720  -0.55273  -0.55182  -0.54777  -0.53937
 Alpha  occ. eigenvalues --   -0.53377  -0.52613  -0.52114  -0.51904  -0.50873
 Alpha  occ. eigenvalues --   -0.50307  -0.49875  -0.49533  -0.49399  -0.49279
 Alpha  occ. eigenvalues --   -0.48936  -0.48867  -0.48590  -0.48144  -0.47881
 Alpha  occ. eigenvalues --   -0.47420  -0.47176  -0.46759  -0.46713  -0.46387
 Alpha  occ. eigenvalues --   -0.46264  -0.46177  -0.45805  -0.45564  -0.45189
 Alpha  occ. eigenvalues --   -0.45093  -0.44717  -0.43943  -0.43795  -0.43502
 Alpha  occ. eigenvalues --   -0.43361  -0.42901  -0.42319  -0.42222  -0.41871
 Alpha  occ. eigenvalues --   -0.41687  -0.41657  -0.41279  -0.41025  -0.40849
 Alpha  occ. eigenvalues --   -0.40678  -0.40272  -0.40115  -0.39812  -0.39711
 Alpha  occ. eigenvalues --   -0.39480  -0.39109  -0.38741  -0.37695  -0.37570
 Alpha  occ. eigenvalues --   -0.37362  -0.36949  -0.36673  -0.36338  -0.36089
 Alpha  occ. eigenvalues --   -0.35395  -0.34354  -0.33327  -0.32434  -0.32132
 Alpha  occ. eigenvalues --   -0.31523  -0.30283  -0.28369  -0.25726  -0.22770
 Alpha  occ. eigenvalues --   -0.17568
 Alpha virt. eigenvalues --   -0.07502  -0.01683   0.02128   0.05400   0.08148
 Alpha virt. eigenvalues --    0.08483   0.09788   0.10751   0.11348   0.11819
 Alpha virt. eigenvalues --    0.13286   0.13347   0.13511   0.13848   0.14136

 Mulliken charges:
               1
     1  O   -0.568694
     2  O   -0.537088
     3  C   -0.040130
     4  C   -0.001445
     5  C   -0.179989
     6  C   -0.112376
     7  C    0.156186
     8  C    0.124288
     9  C    0.104710
    10  C    0.040706
    11  C   -0.214420
    12  C   -0.178804
    13  C    0.041645
    14  C    0.032431
    15  C   -0.302153
    16  C   -0.286899
    17  C   -0.296717
    18  C   -0.325400
    19  C   -0.129943
    20  C   -0.050947
    21  C   -0.342811
    22  C   -0.379113
    23  C   -0.125007
    24  C   -0.104106
    25  C    0.080944
    26  C    0.120415
    27  C   -0.363348
    28  C   -0.386114
    29  C   -0.090011
    30  C   -0.112674
    31  C   -0.117869
    32  C   -0.103062
    33  C   -0.126394
    34  C   -0.060983
    35  C    0.125717
    36  C    0.050913
    37  C   -0.383110
    38  C   -0.349894
    39  C   -0.121880
    40  C   -0.138338
    41  C   -0.058681
    42  C   -0.040057
    43  H    0.109183
    44  H    0.080388
    45  H    0.070825
    46  H    0.097487
    47  H    0.090976
    48  H    0.039318
    49  H    0.114875
    50  H    0.104655
    51  H    0.138349
    52  H    0.088502
    53  H    0.110137
    54  H    0.095249
    55  H    0.099008
    56  H    0.103104
    57  H    0.097548
    58  H    0.080444
    59  H    0.091661
    60  H    0.105632
    61  H    0.090488
    62  H    0.105179
    63  H    0.064891
    64  H    0.116127
    65  H    0.087652
    66  H    0.047103
    67  H    0.112697
    68  H    0.094661
    69  H    0.097977
    70  H    0.077082
    71  H    0.110959
    72  H    0.121649
    73  H    0.293126
    74  H    0.304350
    75  H    0.082121
    76  H    0.079510
    77  H    0.109510
    78  H    0.123675
    79  H    0.124285
    80  H    0.122001
    81  H    0.122113
    82  H    0.106542
    83  H    0.089815
    84  H    0.068179
    85  H    0.102115
    86  H    0.080161
    87  H    0.076555
    88  H    0.061078
    89  H    0.107226
    90  H    0.117139
    91  H    0.112370
    92  H    0.123931
    93  H    0.118086
    94  H    0.109430
    95  H    0.073241
    96  H    0.069448
    97  H    0.060882
    98  H    0.069804
 Sum of Mulliken charges =  -0.00000

 Dipole moment (field-independent basis, Debye):
    X=             -0.3396    Y=             -1.5149    Z=              1.7862  Tot=              2.3666
 Quadrupole moment (field-independent basis, Debye-Ang):
   XX=           -280.9539   YY=           -238.7149   ZZ=           -261.4552
   XY=             -0.7767   XZ=            -10.6314   YZ=              5.0448

 Normal termination of Gaussian 16 at Thu Jul 11 13:21:03 2019.
