 Gaussian 16, Revision A.03,
 Gaussian 16:  ES64L-G16RevA.03 25-Dec-2016

 -------------------------------------
 # td=(NStates=1) CAM-B3LYP/6-31G(d,p)
 -------------------------------------

 --
 TD
 --
 Symbolic Z-matrix:
 Charge =  0 Multiplicity = 1

                         Standard orientation:
 ---------------------------------------------------------------------
 Center     Atomic      Atomic             Coordinates (Angstroms)
 Number     Number       Type             X           Y           Z
 ---------------------------------------------------------------------
      1          8           0       14.722724   -2.047243   -0.359572
      2          8           0      -14.712684    1.968602    0.961969
      3          6           0       11.251615   -1.390200    1.002086
      4          6           0      -12.367605   -1.007023    0.671501
      5          6           0       12.714314   -1.818219    0.939167
      6          6           0      -13.702590   -0.192085    0.721451
      7          6           0       13.359272   -1.790285   -0.404365
      8          6           0      -13.493486    1.283266    0.886317
      9          6           0       10.968944   -0.232573    0.118739
     10          6           0      -11.336541   -0.302922   -0.189867
     11          6           0       13.158104   -0.480803   -1.029418
     12          6           0      -12.708632    1.933999   -0.241593
     13          6           0       11.865056    0.114959   -0.911171
     14          6           0      -11.417555    1.035247   -0.619100
     15          6           0       10.956722   -1.138639    2.487926
     16          6           0       10.419570   -2.705419    0.599864
     17          6           0      -11.940443   -1.281932    2.138098
     18          6           0      -12.693110   -2.436446    0.064069
     19          6           0        9.569254    0.232192    0.311850
     20          6           0      -10.117141   -1.127428   -0.530116
     21          6           0       11.650707    1.188842   -1.934093
     22          6           0      -10.570016    1.815296   -1.507422
     23          6           0        9.368060    1.633693    0.110906
     24          6           0       -8.829250   -0.514201   -0.379731
     25          6           0        8.073587    2.254389    0.215809
     26          6           0       -7.545979   -1.233702   -0.571420
     27          6           0        7.917420    3.733112    0.611086
     28          6           0       -7.640253   -2.665625   -0.989760
     29          6           0        6.942995    1.455038    0.139873
     30          6           0       -6.411226   -0.592228   -0.457515
     31          6           0        5.574393    1.967484    0.195072
     32          6           0       -5.080107   -1.126609   -0.579643
     33          6           0        4.475311    1.151871    0.003432
     34          6           0       -3.928460   -0.317600   -0.347642
     35          6           0        3.118658    1.623449    0.196057
     36          6           0       -2.610083   -0.800620   -0.446508
     37          6           0        2.801551    3.089253    0.518653
     38          6           0       -2.388732   -2.306953   -0.934076
     39          6           0        2.036021    0.810281   -0.165965
     40          6           0       -1.571132    0.125611   -0.385287
     41          6           0        0.722071    1.064625   -0.206692
     42          6           0       -0.129190   -0.051837   -0.431002
     43          1           0       13.416688   -1.064295    1.438220
     44          1           0       12.908650   -2.845855    1.305254
     45          1           0      -14.395732   -0.615478    1.606756
     46          1           0      -14.214032   -0.391541   -0.208454
     47          1           0       12.855492   -2.506332   -1.084418
     48          1           0      -12.816645    1.471107    1.761798
     49          1           0       13.828838    0.370020   -0.629570
     50          1           0       13.433851   -0.243046   -2.096183
     51          1           0      -13.197991    2.108156   -1.115420
     52          1           0      -12.215677    2.869455    0.093939
     53          1           0       10.801200   -2.136601    3.208256
     54          1           0       10.005630   -0.561432    2.603743
     55          1           0       11.773250   -0.467631    3.027574
     56          1           0       10.814066   -3.371056   -0.326527
     57          1           0       10.509027   -3.181112    1.613423
     58          1           0        9.325176   -2.344728    0.462655
     59          1           0      -11.439130   -0.366752    2.595853
     60          1           0      -11.003640   -2.057218    2.148902
     61          1           0      -12.849681   -1.642172    2.648284
     62          1           0      -13.675973   -2.715526    0.453412
     63          1           0      -11.949358   -3.253714    0.004820
     64          1           0      -13.020369   -2.328020   -0.861043
     65          1           0        8.987241   -0.375339    0.636186
     66          1           0      -10.459631   -2.183963   -0.747873
     67          1           0       10.723909    1.360497   -2.132782
     68          1           0       11.960222    2.313588   -1.924283
     69          1           0       12.214090    0.888346   -2.996295
     70          1           0      -11.150567    2.295664   -2.227434
     71          1           0       -9.843564    1.295665   -2.070107
     72          1           0       -9.965626    2.544728   -1.074152
     73          1           0       14.870903   -3.019435    0.161008
     74          1           0      -15.269074    1.667504    1.738848
     75          1           0       10.139236    2.375562   -0.020491
     76          1           0       -8.721226    0.598958    0.094382
     77          1           0        8.984659    4.127893    0.838985
     78          1           0        7.197284    4.233990   -0.170250
     79          1           0        7.499682    3.783319    1.745736
     80          1           0       -8.531382   -3.320332   -0.364085
     81          1           0       -8.176347   -2.520416   -1.939195
     82          1           0       -6.607941   -3.361380   -0.989052
     83          1           0        6.971060    0.359240   -0.153195
     84          1           0       -6.572790    0.461756   -0.414274
     85          1           0        5.770676    2.922472    0.634099
     86          1           0       -4.937357   -2.237038   -0.841981
     87          1           0        4.696736    0.158396   -0.454567
     88          1           0       -4.025201    0.803456   -0.095452
     89          1           0        3.325420    3.443321    1.449337
     90          1           0        1.807591    3.231650    0.646471
     91          1           0        3.133143    3.825406   -0.331136
     92          1           0       -2.986700   -3.131961   -0.486921
     93          1           0       -2.620766   -2.298473   -2.022154
     94          1           0       -1.453956   -2.389648   -0.697565
     95          1           0        2.217832   -0.100153   -0.530469
     96          1           0       -1.707521    1.171772   -0.197923
     97          1           0        0.338509    2.104476   -0.086879
     98          1           0        0.444937   -1.122172   -0.464399
 ---------------------------------------------------------------------

 SCF Done:  E(RCAM-B3LYP) =  -1706.92021573     A.U. after   15 cycles

 Excitation energies and oscillator strengths:

 Excited State   1:      Singlet-A      2.1310 eV  581.81 nm  f=3.6767  <S**2>=0.000
     155 ->158        -0.16652
     156 ->157         0.68538
 This state for optimization and/or second-order correction.
 Total Energy, E(TD-HF/TD-DFT) =  -1706.84190212
 Copying the excited state density for this state as the 1-particle RhoCI density.

 The electronic state is 1-A.
 Alpha  occ. eigenvalues --  -19.22235 -19.21138 -10.30226 -10.29431 -10.28596
 Alpha  occ. eigenvalues --  -10.28527 -10.28407 -10.28073 -10.27915 -10.27886
 Alpha  occ. eigenvalues --  -10.27622 -10.27592 -10.27444 -10.27429 -10.27125
 Alpha  occ. eigenvalues --  -10.27032 -10.27003 -10.26977 -10.26967 -10.26922
 Alpha  occ. eigenvalues --  -10.26877 -10.26728 -10.26677 -10.26663 -10.26581
 Alpha  occ. eigenvalues --  -10.26390 -10.26001 -10.25948 -10.25829 -10.25819
 Alpha  occ. eigenvalues --  -10.25700 -10.25649 -10.25426 -10.25355 -10.25340
 Alpha  occ. eigenvalues --  -10.24902 -10.24896 -10.24640 -10.24589 -10.24411
 Alpha  occ. eigenvalues --  -10.23956 -10.23155  -1.09098  -1.08732  -0.94006
 Alpha  occ. eigenvalues --   -0.92487  -0.91991  -0.91195  -0.90403  -0.89479
 Alpha  occ. eigenvalues --   -0.87733  -0.86884  -0.86756  -0.84828  -0.84193
 Alpha  occ. eigenvalues --   -0.82523  -0.81419  -0.79918  -0.79598  -0.78478
 Alpha  occ. eigenvalues --   -0.76676  -0.76358  -0.76188  -0.75479  -0.75442
 Alpha  occ. eigenvalues --   -0.75107  -0.74513  -0.74027  -0.72854  -0.70934
 Alpha  occ. eigenvalues --   -0.69346  -0.67222  -0.66142  -0.65215  -0.64481
 Alpha  occ. eigenvalues --   -0.63737  -0.62896  -0.62363  -0.60805  -0.59166
 Alpha  occ. eigenvalues --   -0.58571  -0.58361  -0.58090  -0.57197  -0.55932
 Alpha  occ. eigenvalues --   -0.55334  -0.55080  -0.55057  -0.54386  -0.53766
 Alpha  occ. eigenvalues --   -0.53198  -0.52128  -0.51785  -0.51104  -0.50438
 Alpha  occ. eigenvalues --   -0.50381  -0.50025  -0.49639  -0.49309  -0.49209
 Alpha  occ. eigenvalues --   -0.48602  -0.48236  -0.48171  -0.47868  -0.47322
 Alpha  occ. eigenvalues --   -0.46990  -0.46902  -0.46801  -0.46704  -0.46421
 Alpha  occ. eigenvalues --   -0.46101  -0.46068  -0.45744  -0.45376  -0.44831
 Alpha  occ. eigenvalues --   -0.44645  -0.44146  -0.43846  -0.43644  -0.43322
 Alpha  occ. eigenvalues --   -0.43089  -0.42922  -0.42599  -0.42267  -0.41775
 Alpha  occ. eigenvalues --   -0.41518  -0.41394  -0.41150  -0.41075  -0.40357
 Alpha  occ. eigenvalues --   -0.40187  -0.39826  -0.39668  -0.39282  -0.39184
 Alpha  occ. eigenvalues --   -0.38927  -0.38639  -0.38387  -0.38385  -0.38017
 Alpha  occ. eigenvalues --   -0.37889  -0.37430  -0.36728  -0.36282  -0.35957
 Alpha  occ. eigenvalues --   -0.35383  -0.34858  -0.33698  -0.32154  -0.31916
 Alpha  occ. eigenvalues --   -0.31729  -0.29426  -0.27624  -0.25358  -0.22886
 Alpha  occ. eigenvalues --   -0.19162
 Alpha virt. eigenvalues --   -0.05881  -0.01256   0.01868   0.05394   0.07250
 Alpha virt. eigenvalues --    0.08993   0.09476   0.10450   0.11185   0.11705
 Alpha virt. eigenvalues --    0.12253   0.12376   0.12790   0.13102   0.13196

 Mulliken charges:
               1
     1  O   -0.560291
     2  O   -0.564877
     3  C   -0.040253
     4  C   -0.022714
     5  C   -0.184762
     6  C   -0.188436
     7  C    0.193033
     8  C    0.189054
     9  C    0.061350
    10  C    0.050876
    11  C   -0.224608
    12  C   -0.213957
    13  C    0.077254
    14  C    0.022042
    15  C   -0.300279
    16  C   -0.287981
    17  C   -0.271489
    18  C   -0.332027
    19  C   -0.052829
    20  C   -0.134979
    21  C   -0.366410
    22  C   -0.372555
    23  C   -0.119242
    24  C   -0.128221
    25  C    0.063935
    26  C    0.144235
    27  C   -0.376917
    28  C   -0.358124
    29  C   -0.113418
    30  C   -0.117651
    31  C   -0.071545
    32  C   -0.109669
    33  C   -0.133491
    34  C   -0.100158
    35  C    0.083260
    36  C    0.070542
    37  C   -0.356408
    38  C   -0.345946
    39  C   -0.092541
    40  C   -0.130303
    41  C   -0.075179
    42  C   -0.112961
    43  H    0.095995
    44  H    0.068874
    45  H    0.057680
    46  H    0.103736
    47  H    0.066447
    48  H    0.071536
    49  H    0.114081
    50  H    0.102462
    51  H    0.123813
    52  H    0.107947
    53  H    0.080111
    54  H    0.106416
    55  H    0.099069
    56  H    0.098652
    57  H    0.103799
    58  H    0.091291
    59  H    0.099250
    60  H    0.082763
    61  H    0.102861
    62  H    0.096996
    63  H    0.107270
    64  H    0.118096
    65  H    0.063344
    66  H    0.097484
    67  H    0.135388
    68  H    0.104404
    69  H    0.073053
    70  H    0.113954
    71  H    0.120340
    72  H    0.120615
    73  H    0.301271
    74  H    0.304566
    75  H    0.091551
    76  H    0.097765
    77  H    0.106310
    78  H    0.131293
    79  H    0.116871
    80  H    0.078830
    81  H    0.136514
    82  H    0.094261
    83  H    0.069406
    84  H    0.074783
    85  H    0.084007
    86  H    0.082920
    87  H    0.093835
    88  H    0.082352
    89  H    0.111500
    90  H    0.111629
    91  H    0.108495
    92  H    0.112846
    93  H    0.131155
    94  H    0.117905
    95  H    0.069350
    96  H    0.087037
    97  H    0.093161
    98  H    0.087299
 Sum of Mulliken charges =  -0.00000

 Dipole moment (field-independent basis, Debye):
    X=             -0.9353    Y=             -1.0743    Z=              0.9762  Tot=              1.7268
 Quadrupole moment (field-independent basis, Debye-Ang):
   XX=           -275.0606   YY=           -242.5717   ZZ=           -262.7137
   XY=              7.7658   XZ=              1.5572   YZ=              1.4361

 Normal termination of Gaussian 16 at Fri Jul 12 21:56:02 2019.
