 Gaussian 16, Revision A.03,
 Gaussian 16:  ES64L-G16RevA.03 25-Dec-2016

 -------------------------------------
 # td=(NStates=1) CAM-B3LYP/6-31G(d,p)
 -------------------------------------

 --
 TD
 --
 Symbolic Z-matrix:
 Charge =  0 Multiplicity = 1

                         Standard orientation:
 ---------------------------------------------------------------------
 Center     Atomic      Atomic             Coordinates (Angstroms)
 Number     Number       Type             X           Y           Z
 ---------------------------------------------------------------------
      1          8           0       14.815080   -1.955539   -0.042695
      2          8           0      -14.563833    2.208965    1.059165
      3          6           0       11.185216   -1.328261    1.036785
      4          6           0      -12.259608   -0.894074    0.773758
      5          6           0       12.619218   -1.683371    1.144880
      6          6           0      -13.555396   -0.095251    0.883763
      7          6           0       13.374918   -1.771199   -0.169351
      8          6           0      -13.279882    1.499409    1.038507
      9          6           0       10.881159   -0.203212    0.038467
     10          6           0      -11.291424   -0.252774   -0.167615
     11          6           0       13.158999   -0.497257   -1.026795
     12          6           0      -12.618721    1.917908   -0.227916
     13          6           0       11.746322    0.176648   -0.883273
     14          6           0      -11.461050    1.048764   -0.665328
     15          6           0       10.735144   -0.964795    2.496028
     16          6           0       10.333965   -2.582727    0.686594
     17          6           0      -11.607826   -0.952144    2.092761
     18          6           0      -12.688188   -2.372655    0.243209
     19          6           0        9.569371    0.376082   -0.007392
     20          6           0       -9.975037   -1.030957   -0.404155
     21          6           0       11.551902    1.204389   -1.985575
     22          6           0      -10.523207    1.679526   -1.761549
     23          6           0        9.248355    1.706302   -0.056347
     24          6           0       -8.696432   -0.531887   -0.433605
     25          6           0        7.984494    2.294437    0.217125
     26          6           0       -7.595293   -1.339447   -0.523782
     27          6           0        7.882898    3.792039    0.441411
     28          6           0       -7.799940   -2.753580   -0.857622
     29          6           0        6.926815    1.543189    0.051311
     30          6           0       -6.300663   -0.661351   -0.451551
     31          6           0        5.515845    1.987005    0.123389
     32          6           0       -5.021078   -1.304490   -0.750800
     33          6           0        4.466232    1.176312    0.084954
     34          6           0       -3.885574   -0.518645   -0.595055
     35          6           0        3.036757    1.510973    0.148614
     36          6           0       -2.619212   -0.930819   -0.837800
     37          6           0        2.691756    2.978807    0.407847
     38          6           0       -2.289323   -2.427707   -1.169692
     39          6           0        2.062517    0.552433    0.002995
     40          6           0       -1.553751   -0.064188   -0.572148
     41          6           0        0.768056    0.613874   -0.042302
     42          6           0       -0.236928   -0.257094   -0.438382
     43          1           0       13.061318   -0.780647    1.754235
     44          1           0       12.573956   -2.669052    1.627271
     45          1           0      -14.002862   -0.587692    1.804028
     46          1           0      -14.396627   -0.338923    0.063032
     47          1           0       12.948641   -2.477230   -0.812563
     48          1           0      -12.673655    1.661901    1.878057
     49          1           0       14.113175    0.107663   -0.670549
     50          1           0       13.061018   -0.595714   -2.154356
     51          1           0      -13.524200    1.907563   -0.820092
     52          1           0      -12.324677    3.065033   -0.148627
     53          1           0       10.782247   -1.714820    3.234931
     54          1           0        9.625903   -0.822574    2.458534
     55          1           0       11.246168   -0.175847    3.175320
     56          1           0       10.480241   -2.995985   -0.369047
     57          1           0       10.521530   -3.431129    1.210684
     58          1           0        9.124064   -2.474285    0.846887
     59          1           0      -11.128425    0.180300    2.467632
     60          1           0      -10.770421   -1.750158    2.003580
     61          1           0      -12.344331   -1.324391    2.880201
     62          1           0      -13.470835   -2.725619    0.904046
     63          1           0      -11.913601   -3.060344    0.520898
     64          1           0      -13.049825   -2.291848   -0.787741
     65          1           0        8.715381   -0.213078    0.351570
     66          1           0      -10.056864   -2.088789   -0.557632
     67          1           0       10.572410    1.209937   -2.344358
     68          1           0       11.909933    2.281557   -1.840204
     69          1           0       12.064578    0.937176   -2.768467
     70          1           0      -11.156726    2.096596   -2.297284
     71          1           0      -10.006712    1.008811   -2.321232
     72          1           0       -9.851477    2.320660   -1.300918
     73          1           0       14.942862   -2.641334    0.663070
     74          1           0      -15.198562    1.916888    1.750951
     75          1           0       10.203420    2.609121   -0.018360
     76          1           0       -8.503766    0.573737   -0.158102
     77          1           0        8.867472    4.174752    1.137300
     78          1           0        7.723484    4.361646   -0.539966
     79          1           0        7.015773    4.033482    1.201933
     80          1           0       -8.125338   -3.324270   -0.096422
     81          1           0       -8.534776   -2.978494   -1.595683
     82          1           0       -6.908142   -3.177182   -1.003408
     83          1           0        6.804889    0.383352   -0.158466
     84          1           0       -6.244616    0.431679   -0.189135
     85          1           0        5.430970    3.021138    0.286917
     86          1           0       -4.976630   -2.372928   -1.105617
     87          1           0        4.656005    0.100834    0.081804
     88          1           0       -4.184878    0.453808   -0.102519
     89          1           0        3.167661    3.302845    1.346358
     90          1           0        1.632476    3.165552    0.470736
     91          1           0        3.157459    3.544594   -0.366590
     92          1           0       -2.473433   -3.020326   -0.216042
     93          1           0       -2.981186   -2.862436   -1.953304
     94          1           0       -1.183666   -2.561363   -1.691162
     95          1           0        2.353705   -0.347171   -0.419506
     96          1           0       -1.773831    0.917435   -0.117587
     97          1           0        0.101178    1.517285    0.128098
     98          1           0        0.003728   -1.350407   -0.761073
 ---------------------------------------------------------------------

 SCF Done:  E(RCAM-B3LYP) =  -1706.95511743     A.U. after   15 cycles

 Excitation energies and oscillator strengths:

 Excited State   1:      Singlet-A      2.0494 eV  604.98 nm  f=3.8308  <S**2>=0.000
     155 ->158        -0.13756
     156 ->157         0.69663
     156 <-157        -0.10601
 This state for optimization and/or second-order correction.
 Total Energy, E(TD-HF/TD-DFT) =  -1706.87980336
 Copying the excited state density for this state as the 1-particle RhoCI density.

 The electronic state is 1-A.
 Alpha  occ. eigenvalues --  -19.21482 -19.20945 -10.30611 -10.29817 -10.28835
 Alpha  occ. eigenvalues --  -10.28511 -10.28126 -10.27937 -10.27618 -10.27599
 Alpha  occ. eigenvalues --  -10.27469 -10.27213 -10.27104 -10.26998 -10.26948
 Alpha  occ. eigenvalues --  -10.26916 -10.26775 -10.26306 -10.26274 -10.26218
 Alpha  occ. eigenvalues --  -10.26214 -10.26161 -10.26093 -10.26048 -10.26006
 Alpha  occ. eigenvalues --  -10.25992 -10.25987 -10.25948 -10.25812 -10.25716
 Alpha  occ. eigenvalues --  -10.25626 -10.25565 -10.25439 -10.25426 -10.25379
 Alpha  occ. eigenvalues --  -10.25141 -10.25099 -10.24927 -10.24640 -10.23372
 Alpha  occ. eigenvalues --  -10.23243 -10.21823  -1.07895  -1.07257  -0.94031
 Alpha  occ. eigenvalues --   -0.93097  -0.92676  -0.91954  -0.91365  -0.90586
 Alpha  occ. eigenvalues --   -0.88017  -0.87298  -0.86610  -0.85266  -0.84195
 Alpha  occ. eigenvalues --   -0.83338  -0.81926  -0.80514  -0.80205  -0.79297
 Alpha  occ. eigenvalues --   -0.77382  -0.76900  -0.76051  -0.75983  -0.75457
 Alpha  occ. eigenvalues --   -0.75395  -0.75196  -0.74007  -0.73450  -0.71385
 Alpha  occ. eigenvalues --   -0.69199  -0.67555  -0.65907  -0.65530  -0.64482
 Alpha  occ. eigenvalues --   -0.63590  -0.62572  -0.61043  -0.60898  -0.60167
 Alpha  occ. eigenvalues --   -0.59039  -0.58711  -0.57966  -0.57783  -0.56080
 Alpha  occ. eigenvalues --   -0.55844  -0.54924  -0.54432  -0.54136  -0.53548
 Alpha  occ. eigenvalues --   -0.52859  -0.52120  -0.51778  -0.51500  -0.50788
 Alpha  occ. eigenvalues --   -0.50667  -0.50248  -0.49799  -0.49643  -0.49122
 Alpha  occ. eigenvalues --   -0.48967  -0.48600  -0.48422  -0.48228  -0.48060
 Alpha  occ. eigenvalues --   -0.48034  -0.47778  -0.47642  -0.46914  -0.46405
 Alpha  occ. eigenvalues --   -0.46027  -0.45489  -0.45252  -0.44884  -0.44423
 Alpha  occ. eigenvalues --   -0.44365  -0.44124  -0.44060  -0.43317  -0.43027
 Alpha  occ. eigenvalues --   -0.42781  -0.42506  -0.42192  -0.42144  -0.41545
 Alpha  occ. eigenvalues --   -0.41465  -0.41325  -0.41164  -0.41109  -0.40743
 Alpha  occ. eigenvalues --   -0.40397  -0.39854  -0.39804  -0.39454  -0.39134
 Alpha  occ. eigenvalues --   -0.39073  -0.38719  -0.38590  -0.38221  -0.37762
 Alpha  occ. eigenvalues --   -0.37725  -0.36802  -0.36665  -0.36466  -0.36231
 Alpha  occ. eigenvalues --   -0.35998  -0.35566  -0.35097  -0.32813  -0.32279
 Alpha  occ. eigenvalues --   -0.31668  -0.30344  -0.28363  -0.25637  -0.23478
 Alpha  occ. eigenvalues --   -0.18687
 Alpha virt. eigenvalues --   -0.06466  -0.00763   0.02154   0.06325   0.08255
 Alpha virt. eigenvalues --    0.09738   0.10931   0.11531   0.11882   0.12498
 Alpha virt. eigenvalues --    0.12909   0.13071   0.13412   0.13548   0.13603

 Mulliken charges:
               1
     1  O   -0.568360
     2  O   -0.584608
     3  C   -0.027673
     4  C   -0.027486
     5  C   -0.193475
     6  C   -0.196712
     7  C    0.177378
     8  C    0.171900
     9  C    0.125622
    10  C    0.076800
    11  C   -0.230403
    12  C   -0.218037
    13  C    0.012898
    14  C   -0.002659
    15  C   -0.309025
    16  C   -0.309892
    17  C   -0.268002
    18  C   -0.312887
    19  C   -0.148737
    20  C   -0.161813
    21  C   -0.342447
    22  C   -0.327048
    23  C   -0.079066
    24  C   -0.077448
    25  C    0.080364
    26  C    0.108115
    27  C   -0.357707
    28  C   -0.377169
    29  C   -0.091481
    30  C   -0.151300
    31  C   -0.080195
    32  C   -0.085929
    33  C   -0.115521
    34  C   -0.106134
    35  C    0.098983
    36  C    0.101553
    37  C   -0.372320
    38  C   -0.366620
    39  C   -0.122110
    40  C   -0.115239
    41  C   -0.069622
    42  C   -0.076176
    43  H    0.100360
    44  H    0.090665
    45  H    0.070115
    46  H    0.082413
    47  H    0.088546
    48  H    0.094801
    49  H    0.113122
    50  H    0.101701
    51  H    0.134694
    52  H    0.091982
    53  H    0.107566
    54  H    0.096841
    55  H    0.095744
    56  H    0.098503
    57  H    0.115924
    58  H    0.080794
    59  H    0.080184
    60  H    0.098762
    61  H    0.088445
    62  H    0.099892
    63  H    0.101537
    64  H    0.121205
    65  H    0.086584
    66  H    0.080184
    67  H    0.124074
    68  H    0.107899
    69  H    0.104316
    70  H    0.116821
    71  H    0.122371
    72  H    0.115789
    73  H    0.306483
    74  H    0.309057
    75  H    0.055663
    76  H    0.078941
    77  H    0.090286
    78  H    0.133636
    79  H    0.112078
    80  H    0.133041
    81  H    0.129707
    82  H    0.103730
    83  H    0.080479
    84  H    0.088449
    85  H    0.071522
    86  H    0.091324
    87  H    0.077078
    88  H    0.089152
    89  H    0.118175
    90  H    0.116745
    91  H    0.128187
    92  H    0.130600
    93  H    0.112022
    94  H    0.103868
    95  H    0.080332
    96  H    0.064073
    97  H    0.057554
    98  H    0.045677
 Sum of Mulliken charges =  -0.00000

 Dipole moment (field-independent basis, Debye):
    X=             -1.1048    Y=             -2.3539    Z=              2.0634  Tot=              3.3196
 Quadrupole moment (field-independent basis, Debye-Ang):
   XX=           -278.2121   YY=           -242.2909   ZZ=           -258.7460
   XY=             13.2227   XZ=              0.8275   YZ=             -0.4159

 Normal termination of Gaussian 16 at Tue Jul 16 18:37:59 2019.
