 Gaussian 16, Revision A.03,
 Gaussian 16:  ES64L-G16RevA.03 25-Dec-2016

 -------------------------------------
 # td=(NStates=1) CAM-B3LYP/6-31G(d,p)
 -------------------------------------

 --
 TD
 --
 Symbolic Z-matrix:
 Charge =  0 Multiplicity = 1

                         Standard orientation:
 ---------------------------------------------------------------------
 Center     Atomic      Atomic             Coordinates (Angstroms)
 Number     Number       Type             X           Y           Z
 ---------------------------------------------------------------------
      1          8           0       14.563574   -2.440991   -0.385678
      2          8           0      -14.814843    1.763955    0.963120
      3          6           0       11.019949   -1.608211    0.902875
      4          6           0      -12.315359   -1.069773    0.604670
      5          6           0       12.493178   -2.027217    0.873555
      6          6           0      -13.668538   -0.445630    0.718113
      7          6           0       13.192313   -2.073919   -0.430193
      8          6           0      -13.632658    1.043244    0.907340
      9          6           0       10.852935   -0.321576    0.083762
     10          6           0      -11.256872   -0.244334   -0.188814
     11          6           0       13.219995   -0.651114   -0.910950
     12          6           0      -12.783752    1.685972   -0.305728
     13          6           0       11.864714    0.072455   -0.744455
     14          6           0      -11.464570    1.003555   -0.590236
     15          6           0       10.625810   -1.401686    2.370846
     16          6           0       10.178275   -2.754055    0.271323
     17          6           0      -11.798900   -1.465931    1.938472
     18          6           0      -12.596803   -2.417411   -0.288672
     19          6           0        9.523053    0.357011    0.140510
     20          6           0      -10.021047   -0.996032   -0.326363
     21          6           0       11.678081    1.200244   -1.702308
     22          6           0      -10.671351    1.784738   -1.570560
     23          6           0        9.404533    1.700081    0.241249
     24          6           0       -8.731606   -0.431227   -0.342350
     25          6           0        8.105842    2.366136    0.320520
     26          6           0       -7.509433   -1.151510   -0.545441
     27          6           0        8.005092    3.855808    0.698730
     28          6           0       -7.551257   -2.607964   -0.803727
     29          6           0        6.934189    1.567191    0.227043
     30          6           0       -6.311239   -0.465316   -0.394259
     31          6           0        5.670462    2.200228    0.205016
     32          6           0       -4.998085   -1.012875   -0.528176
     33          6           0        4.502401    1.522457   -0.229690
     34          6           0       -3.850651   -0.333273   -0.193490
     35          6           0        3.192016    1.950008   -0.093038
     36          6           0       -2.478448   -0.654034   -0.400377
     37          6           0        2.981372    3.404179    0.384633
     38          6           0       -2.237169   -2.071504   -0.913452
     39          6           0        2.156117    1.022854   -0.217915
     40          6           0       -1.512006    0.274641   -0.155036
     41          6           0        0.788384    1.229252   -0.125047
     42          6           0       -0.148186    0.185355   -0.213905
     43          1           0       13.024358   -1.420698    1.509820
     44          1           0       12.658646   -3.093295    1.247267
     45          1           0      -14.212701   -0.969166    1.513422
     46          1           0      -14.313262   -0.738106   -0.116515
     47          1           0       12.659656   -2.658056   -1.282026
     48          1           0      -12.828943    1.457299    1.720471
     49          1           0       14.238623   -0.141130   -0.666944
     50          1           0       13.360572   -0.736362   -1.921366
     51          1           0      -13.489782    1.513773   -1.302248
     52          1           0      -12.834206    2.780580   -0.276646
     53          1           0       10.868044   -2.406368    2.942999
     54          1           0        9.659943   -1.420252    2.495915
     55          1           0       11.377230   -0.577534    2.832589
     56          1           0       10.533701   -3.119662   -0.777517
     57          1           0       10.146910   -3.541588    1.005254
     58          1           0        8.985033   -2.451671   -0.097604
     59          1           0      -11.558701   -0.565521    2.624392
     60          1           0      -10.687786   -1.955142    1.582564
     61          1           0      -12.346635   -2.152111    2.660964
     62          1           0      -13.561522   -2.819654    0.115481
     63          1           0      -11.806021   -3.140323   -0.171863
     64          1           0      -12.722034   -2.224260   -1.322307
     65          1           0        8.591381   -0.289155    0.351624
     66          1           0       -9.873681   -2.080740   -0.421527
     67          1           0       10.629154    1.258077   -2.184548
     68          1           0       12.257868    2.111731   -1.076474
     69          1           0       12.246060    1.144420   -2.601893
     70          1           0      -11.273092    2.417575   -2.159516
     71          1           0       -9.794504    1.363264   -1.937605
     72          1           0      -10.054332    2.515621   -0.787643
     73          1           0       14.398267   -3.086108    0.557702
     74          1           0      -15.381134    1.150835    1.524129
     75          1           0       10.327684    2.350441    0.325756
     76          1           0       -8.572984    0.684899    0.046601
     77          1           0        9.032337    4.428060    0.548676
     78          1           0        7.279241    4.141764    0.035251
     79          1           0        7.841840    4.231540    1.666019
     80          1           0       -8.089541   -3.334760   -0.075081
     81          1           0       -8.366570   -2.835592   -1.509222
     82          1           0       -6.618092   -3.085483   -1.011821
     83          1           0        6.969397    0.606259   -0.262260
     84          1           0       -6.496194    0.540629    0.040663
     85          1           0        5.458757    2.978103    0.704323
     86          1           0       -4.907401   -2.107005   -0.952112
     87          1           0        4.623532    0.456693   -0.413076
     88          1           0       -3.777156    0.696107    0.280058
     89          1           0        3.299436    3.404865    1.545279
     90          1           0        1.883110    3.752312    0.270267
     91          1           0        3.706111    4.013495   -0.100906
     92          1           0       -2.403135   -2.682252   -0.025941
     93          1           0       -3.149650   -2.236872   -1.545732
     94          1           0       -1.250866   -2.338431   -1.229570
     95          1           0        2.416179    0.041589   -0.644259
     96          1           0       -1.723852    1.066041    0.305978
     97          1           0        0.314174    2.124956    0.261012
     98          1           0        0.212014   -0.932250   -0.506628
 ---------------------------------------------------------------------

 SCF Done:  E(RCAM-B3LYP) =  -1706.93204697     A.U. after   15 cycles

 Excitation energies and oscillator strengths:

 Excited State   1:      Singlet-A      2.0333 eV  609.77 nm  f=3.7987  <S**2>=0.000
     155 ->158        -0.16005
     156 ->157         0.68864
 This state for optimization and/or second-order correction.
 Total Energy, E(TD-HF/TD-DFT) =  -1706.85732525
 Copying the excited state density for this state as the 1-particle RhoCI density.

 The electronic state is 1-A.
 Alpha  occ. eigenvalues --  -19.22741 -19.22736 -10.31663 -10.29953 -10.28138
 Alpha  occ. eigenvalues --  -10.28034 -10.27942 -10.27831 -10.27544 -10.27320
 Alpha  occ. eigenvalues --  -10.27310 -10.27201 -10.27092 -10.27091 -10.27083
 Alpha  occ. eigenvalues --  -10.26845 -10.26814 -10.26776 -10.26731 -10.26641
 Alpha  occ. eigenvalues --  -10.26601 -10.26596 -10.26507 -10.26339 -10.26293
 Alpha  occ. eigenvalues --  -10.26207 -10.26144 -10.26129 -10.26111 -10.25943
 Alpha  occ. eigenvalues --  -10.25762 -10.25697 -10.25604 -10.25496 -10.25473
 Alpha  occ. eigenvalues --  -10.25449 -10.25367 -10.25333 -10.24915 -10.24823
 Alpha  occ. eigenvalues --  -10.24381 -10.23990  -1.10930  -1.08081  -0.93885
 Alpha  occ. eigenvalues --   -0.93685  -0.92561  -0.91693  -0.90890  -0.89842
 Alpha  occ. eigenvalues --   -0.87727  -0.87382  -0.86846  -0.85297  -0.84500
 Alpha  occ. eigenvalues --   -0.83097  -0.81791  -0.80310  -0.79536  -0.79072
 Alpha  occ. eigenvalues --   -0.77153  -0.76653  -0.76444  -0.75960  -0.75735
 Alpha  occ. eigenvalues --   -0.75648  -0.75301  -0.74865  -0.73671  -0.71226
 Alpha  occ. eigenvalues --   -0.68684  -0.67202  -0.65656  -0.64735  -0.64281
 Alpha  occ. eigenvalues --   -0.63899  -0.63363  -0.61721  -0.60896  -0.59653
 Alpha  occ. eigenvalues --   -0.59498  -0.58240  -0.57906  -0.57231  -0.56552
 Alpha  occ. eigenvalues --   -0.55989  -0.55367  -0.55244  -0.54574  -0.53957
 Alpha  occ. eigenvalues --   -0.53205  -0.53030  -0.52354  -0.52075  -0.51110
 Alpha  occ. eigenvalues --   -0.50894  -0.50753  -0.49794  -0.49514  -0.49001
 Alpha  occ. eigenvalues --   -0.48560  -0.48451  -0.48371  -0.47915  -0.47819
 Alpha  occ. eigenvalues --   -0.47707  -0.47612  -0.47329  -0.46901  -0.46679
 Alpha  occ. eigenvalues --   -0.46464  -0.46019  -0.45839  -0.45223  -0.45008
 Alpha  occ. eigenvalues --   -0.44505  -0.44403  -0.44206  -0.43749  -0.43457
 Alpha  occ. eigenvalues --   -0.43394  -0.43271  -0.42812  -0.42609  -0.42357
 Alpha  occ. eigenvalues --   -0.42181  -0.41767  -0.41233  -0.40907  -0.40610
 Alpha  occ. eigenvalues --   -0.40546  -0.39993  -0.39916  -0.39610  -0.39522
 Alpha  occ. eigenvalues --   -0.39348  -0.39161  -0.38523  -0.38379  -0.38028
 Alpha  occ. eigenvalues --   -0.37720  -0.37336  -0.36834  -0.36645  -0.35866
 Alpha  occ. eigenvalues --   -0.35495  -0.34764  -0.33852  -0.32484  -0.31944
 Alpha  occ. eigenvalues --   -0.31180  -0.29869  -0.28238  -0.25925  -0.22997
 Alpha  occ. eigenvalues --   -0.18966
 Alpha virt. eigenvalues --   -0.06338  -0.01713   0.01827   0.05597   0.07838
 Alpha virt. eigenvalues --    0.08472   0.09366   0.11136   0.11618   0.11683
 Alpha virt. eigenvalues --    0.12024   0.12363   0.12671   0.12982   0.13341

 Mulliken charges:
               1
     1  O   -0.552114
     2  O   -0.538387
     3  C   -0.019326
     4  C   -0.011375
     5  C   -0.208793
     6  C   -0.211423
     7  C    0.186763
     8  C    0.179334
     9  C    0.069473
    10  C    0.100321
    11  C   -0.224466
    12  C   -0.245352
    13  C    0.031240
    14  C    0.065538
    15  C   -0.279094
    16  C   -0.293934
    17  C   -0.276053
    18  C   -0.316327
    19  C   -0.125509
    20  C   -0.145483
    21  C   -0.351106
    22  C   -0.342685
    23  C   -0.079358
    24  C   -0.130230
    25  C    0.056615
    26  C    0.155112
    27  C   -0.365159
    28  C   -0.397909
    29  C   -0.119130
    30  C   -0.127569
    31  C   -0.079513
    32  C   -0.123577
    33  C   -0.133352
    34  C   -0.094641
    35  C    0.117922
    36  C    0.113964
    37  C   -0.368955
    38  C   -0.373505
    39  C   -0.128498
    40  C   -0.100139
    41  C   -0.087376
    42  C   -0.087356
    43  H    0.116481
    44  H    0.059853
    45  H    0.083241
    46  H    0.106676
    47  H    0.074630
    48  H    0.056399
    49  H    0.111632
    50  H    0.116912
    51  H    0.076304
    52  H    0.116524
    53  H    0.073771
    54  H    0.117943
    55  H    0.100019
    56  H    0.106739
    57  H    0.109484
    58  H    0.064369
    59  H    0.099879
    60  H    0.072359
    61  H    0.098183
    62  H    0.092144
    63  H    0.100272
    64  H    0.119727
    65  H    0.094545
    66  H    0.080470
    67  H    0.122015
    68  H    0.090793
    69  H    0.108786
    70  H    0.124501
    71  H    0.132649
    72  H    0.082096
    73  H    0.288979
    74  H    0.309490
    75  H    0.090908
    76  H    0.077268
    77  H    0.088479
    78  H    0.135170
    79  H    0.134549
    80  H    0.113865
    81  H    0.120372
    82  H    0.115675
    83  H    0.091536
    84  H    0.085146
    85  H    0.076711
    86  H    0.087766
    87  H    0.074595
    88  H    0.079066
    89  H    0.108146
    90  H    0.107623
    91  H    0.129241
    92  H    0.129634
    93  H    0.114998
    94  H    0.115676
    95  H    0.085942
    96  H    0.055969
    97  H    0.082285
    98  H    0.052921
 Sum of Mulliken charges =  -0.00000

 Dipole moment (field-independent basis, Debye):
    X=             -1.4900    Y=             -1.5698    Z=              1.9094  Tot=              2.8862
 Quadrupole moment (field-independent basis, Debye-Ang):
   XX=           -270.9101   YY=           -247.9694   ZZ=           -263.0583
   XY=             25.7469   XZ=              6.7523   YZ=              0.2195

 Normal termination of Gaussian 16 at Tue Jul  9 13:50:10 2019.
