 Gaussian 16, Revision A.03,
 Gaussian 16:  ES64L-G16RevA.03 25-Dec-2016

 -------------------------------------
 # td=(NStates=1) CAM-B3LYP/6-31G(d,p)
 -------------------------------------

 --
 TD
 --
 Symbolic Z-matrix:
 Charge =  0 Multiplicity = 1

                         Standard orientation:
 ---------------------------------------------------------------------
 Center     Atomic      Atomic             Coordinates (Angstroms)
 Number     Number       Type             X           Y           Z
 ---------------------------------------------------------------------
      1          8           0       14.656941   -2.364163   -0.253045
      2          8           0      -14.756413    1.780145    1.043625
      3          6           0       11.087613   -1.559955    0.950230
      4          6           0      -12.377469   -1.033830    0.558466
      5          6           0       12.627562   -1.988126    1.085789
      6          6           0      -13.708742   -0.439039    0.664662
      7          6           0       13.403604   -1.931480   -0.285813
      8          6           0      -13.555660    1.092535    0.977397
      9          6           0       10.993892   -0.210497    0.069856
     10          6           0      -11.313523   -0.262567   -0.120486
     11          6           0       13.316078   -0.568824   -0.878877
     12          6           0      -12.776965    1.823468   -0.244599
     13          6           0       12.022265    0.201575   -0.796607
     14          6           0      -11.457040    0.966557   -0.603811
     15          6           0       10.526569   -1.417609    2.379043
     16          6           0       10.326348   -2.679754    0.288078
     17          6           0      -11.931992   -1.385385    2.128402
     18          6           0      -12.558738   -2.414746   -0.071630
     19          6           0        9.737072    0.323444    0.366883
     20          6           0      -10.091759   -0.941590   -0.533031
     21          6           0       11.799916    1.259313   -1.839904
     22          6           0      -10.532314    1.838440   -1.446733
     23          6           0        9.370445    1.720843    0.152213
     24          6           0       -8.806865   -0.538513   -0.370600
     25          6           0        8.077511    2.331931    0.330579
     26          6           0       -7.586511   -1.249875   -0.701721
     27          6           0        8.035952    3.733418    0.593697
     28          6           0       -7.628812   -2.637691   -1.100995
     29          6           0        6.978214    1.600402    0.040363
     30          6           0       -6.388056   -0.532376   -0.293980
     31          6           0        5.605908    2.057186    0.147091
     32          6           0       -5.042464   -0.956850   -0.551956
     33          6           0        4.421583    1.337903   -0.058819
     34          6           0       -3.962727   -0.171114   -0.350111
     35          6           0        3.050094    1.746391    0.038083
     36          6           0       -2.644122   -0.544299   -0.619010
     37          6           0        2.949206    3.156282    0.529414
     38          6           0       -2.314655   -2.061535   -1.006701
     39          6           0        2.147891    0.808170   -0.280492
     40          6           0       -1.591063    0.280278   -0.259933
     41          6           0        0.711366    0.980995   -0.111116
     42          6           0       -0.271425    0.119103   -0.447250
     43          1           0       13.067605   -1.306605    1.723670
     44          1           0       12.752839   -2.864950    1.395246
     45          1           0      -14.386893   -0.951104    1.599111
     46          1           0      -14.163424   -0.506381   -0.233003
     47          1           0       12.702647   -2.448410   -0.870955
     48          1           0      -12.816020    1.172787    1.846302
     49          1           0       14.000096    0.097558   -0.311948
     50          1           0       13.759013   -0.393984   -1.942065
     51          1           0      -13.478031    2.120836   -0.982057
     52          1           0      -12.521978    2.848918    0.417492
     53          1           0       11.015679   -2.254673    2.868293
     54          1           0        9.288396   -1.441768    2.438704
     55          1           0       10.944179   -0.560912    2.921463
     56          1           0       10.738700   -2.883221   -0.712518
     57          1           0       10.490542   -3.413525    0.813840
     58          1           0        9.207534   -2.522571    0.160489
     59          1           0      -11.974361   -0.430660    2.505851
     60          1           0      -10.984003   -1.936228    2.053374
     61          1           0      -12.703298   -1.839032    2.626562
     62          1           0      -13.673068   -2.957158    0.264020
     63          1           0      -11.854454   -3.346878    0.014654
     64          1           0      -12.725373   -2.198850   -1.235257
     65          1           0        8.972878   -0.353918    0.772926
     66          1           0      -10.215139   -1.963367   -0.682870
     67          1           0       10.601897    1.537007   -1.694550
     68          1           0       12.423560    2.219761   -1.454140
     69          1           0       12.160582    1.058660   -2.956543
     70          1           0      -10.966424    2.598212   -2.073866
     71          1           0       -9.799922    1.201494   -2.204371
     72          1           0       -9.934235    2.296548   -0.637612
     73          1           0       14.580535   -3.416139   -0.269821
     74          1           0      -15.025283    1.535544    1.999532
     75          1           0       10.301947    2.320184    0.049133
     76          1           0       -8.667910    0.537432   -0.230482
     77          1           0        9.043261    4.139200    1.134174
     78          1           0        7.707165    4.145007   -0.519204
     79          1           0        7.389115    3.750499    1.418429
     80          1           0       -7.958252   -3.349363   -0.053007
     81          1           0       -8.395149   -2.779130   -1.805272
     82          1           0       -6.661723   -2.992122   -1.400183
     83          1           0        7.120225    0.606313   -0.100869
     84          1           0       -6.490169    0.491388    0.103068
     85          1           0        5.723072    3.117394    0.563378
     86          1           0       -5.034982   -1.951914   -0.825305
     87          1           0        4.493079    0.241269   -0.280131
     88          1           0       -4.184738    0.736737    0.150167
     89          1           0        3.203236    3.357662    1.742746
     90          1           0        1.841919    3.677391    0.265268
     91          1           0        3.490961    3.946311   -0.193959
     92          1           0       -2.871623   -2.899317   -0.420921
     93          1           0       -2.560317   -2.305505   -1.872976
     94          1           0       -1.277345   -2.332198   -0.932070
     95          1           0        2.428401   -0.078061   -0.677757
     96          1           0       -2.005630    1.170298   -0.006347
     97          1           0        0.570747    2.081149    0.166014
     98          1           0        0.216592   -0.770977   -0.714901
 ---------------------------------------------------------------------

 SCF Done:  E(RCAM-B3LYP) =  -1706.84041986     A.U. after   15 cycles

 Excitation energies and oscillator strengths:

 Excited State   1:      Singlet-A      2.2459 eV  552.05 nm  f=3.8751  <S**2>=0.000
     155 ->158        -0.19693
     156 ->157         0.67415
 This state for optimization and/or second-order correction.
 Total Energy, E(TD-HF/TD-DFT) =  -1706.75788439
 Copying the excited state density for this state as the 1-particle RhoCI density.

 The electronic state is 1-A.
 Alpha  occ. eigenvalues --  -19.23359 -19.22657 -10.30900 -10.29584 -10.29355
 Alpha  occ. eigenvalues --  -10.27737 -10.27700 -10.27662 -10.27523 -10.27479
 Alpha  occ. eigenvalues --  -10.27449 -10.27412 -10.27310 -10.27280 -10.26874
 Alpha  occ. eigenvalues --  -10.26806 -10.26707 -10.26673 -10.26488 -10.26406
 Alpha  occ. eigenvalues --  -10.26281 -10.26248 -10.26239 -10.26218 -10.26210
 Alpha  occ. eigenvalues --  -10.25737 -10.25734 -10.25707 -10.25576 -10.25559
 Alpha  occ. eigenvalues --  -10.25469 -10.25449 -10.25315 -10.25187 -10.25151
 Alpha  occ. eigenvalues --  -10.24749 -10.24743 -10.24334 -10.24016 -10.23369
 Alpha  occ. eigenvalues --  -10.23137 -10.22773  -1.12607  -1.10585  -0.93963
 Alpha  occ. eigenvalues --   -0.92944  -0.92455  -0.91802  -0.91098  -0.90171
 Alpha  occ. eigenvalues --   -0.87683  -0.87159  -0.86407  -0.85062  -0.84003
 Alpha  occ. eigenvalues --   -0.82799  -0.81510  -0.79888  -0.78954  -0.78554
 Alpha  occ. eigenvalues --   -0.77110  -0.77011  -0.76705  -0.75745  -0.75698
 Alpha  occ. eigenvalues --   -0.75541  -0.74705  -0.73788  -0.73542  -0.70513
 Alpha  occ. eigenvalues --   -0.68740  -0.66998  -0.65425  -0.64766  -0.64252
 Alpha  occ. eigenvalues --   -0.63296  -0.62518  -0.62074  -0.61775  -0.60965
 Alpha  occ. eigenvalues --   -0.59798  -0.58990  -0.58846  -0.58140  -0.56642
 Alpha  occ. eigenvalues --   -0.55312  -0.55020  -0.54677  -0.54266  -0.53861
 Alpha  occ. eigenvalues --   -0.53399  -0.52232  -0.51807  -0.51411  -0.51033
 Alpha  occ. eigenvalues --   -0.50545  -0.50256  -0.50157  -0.49792  -0.49183
 Alpha  occ. eigenvalues --   -0.49063  -0.48908  -0.48545  -0.47995  -0.47885
 Alpha  occ. eigenvalues --   -0.47506  -0.47311  -0.47086  -0.46899  -0.46616
 Alpha  occ. eigenvalues --   -0.46262  -0.46028  -0.45901  -0.45552  -0.45069
 Alpha  occ. eigenvalues --   -0.44763  -0.44612  -0.44131  -0.43336  -0.43114
 Alpha  occ. eigenvalues --   -0.43063  -0.42683  -0.42365  -0.42157  -0.41797
 Alpha  occ. eigenvalues --   -0.41715  -0.41322  -0.41016  -0.40926  -0.40890
 Alpha  occ. eigenvalues --   -0.40434  -0.40209  -0.40065  -0.39657  -0.39594
 Alpha  occ. eigenvalues --   -0.39563  -0.38898  -0.38084  -0.37788  -0.37120
 Alpha  occ. eigenvalues --   -0.37073  -0.36949  -0.36724  -0.35788  -0.35430
 Alpha  occ. eigenvalues --   -0.34656  -0.34023  -0.33639  -0.32415  -0.31389
 Alpha  occ. eigenvalues --   -0.31334  -0.30008  -0.28109  -0.25740  -0.22266
 Alpha  occ. eigenvalues --   -0.19451
 Alpha virt. eigenvalues --   -0.05463  -0.01732   0.02065   0.05637   0.07571
 Alpha virt. eigenvalues --    0.09376   0.10048   0.10314   0.11503   0.11942
 Alpha virt. eigenvalues --    0.12481   0.12664   0.12937   0.13370   0.13464

 Mulliken charges:
               1
     1  O   -0.532207
     2  O   -0.535124
     3  C   -0.059334
     4  C   -0.025827
     5  C   -0.181703
     6  C   -0.150360
     7  C    0.168238
     8  C    0.126419
     9  C    0.076570
    10  C    0.106456
    11  C   -0.225500
    12  C   -0.224298
    13  C    0.065009
    14  C    0.030898
    15  C   -0.296480
    16  C   -0.268966
    17  C   -0.295466
    18  C   -0.295935
    19  C   -0.096068
    20  C   -0.148089
    21  C   -0.363079
    22  C   -0.349586
    23  C   -0.167389
    24  C   -0.076780
    25  C    0.065646
    26  C    0.093772
    27  C   -0.367423
    28  C   -0.353095
    29  C   -0.071448
    30  C   -0.129983
    31  C   -0.105574
    32  C   -0.060940
    33  C   -0.140262
    34  C   -0.118245
    35  C    0.173658
    36  C    0.095011
    37  C   -0.365026
    38  C   -0.367743
    39  C   -0.130543
    40  C   -0.102396
    41  C   -0.085616
    42  C   -0.070099
    43  H    0.102831
    44  H    0.070257
    45  H    0.052341
    46  H    0.105592
    47  H    0.074113
    48  H    0.075192
    49  H    0.114073
    50  H    0.091542
    51  H    0.126896
    52  H    0.078332
    53  H    0.101393
    54  H    0.081483
    55  H    0.112033
    56  H    0.097940
    57  H    0.107432
    58  H    0.090306
    59  H    0.098439
    60  H    0.108160
    61  H    0.105189
    62  H    0.065343
    63  H    0.101640
    64  H    0.083099
    65  H    0.087342
    66  H    0.071655
    67  H    0.113839
    68  H    0.093519
    69  H    0.104871
    70  H    0.118340
    71  H    0.096910
    72  H    0.127946
    73  H    0.318627
    74  H    0.308745
    75  H    0.101043
    76  H    0.074961
    77  H    0.096687
    78  H    0.129471
    79  H    0.140481
    80  H    0.084126
    81  H    0.132306
    82  H    0.117283
    83  H    0.064314
    84  H    0.077922
    85  H    0.074460
    86  H    0.071165
    87  H    0.075430
    88  H    0.086504
    89  H    0.114761
    90  H    0.076459
    91  H    0.120779
    92  H    0.096234
    93  H    0.132344
    94  H    0.109214
    95  H    0.077414
    96  H    0.075008
    97  H    0.067264
    98  H    0.077862
 Sum of Mulliken charges =  -0.00000

 Dipole moment (field-independent basis, Debye):
    X=              1.1659    Y=             -2.1239    Z=              1.1612  Tot=              2.6868
 Quadrupole moment (field-independent basis, Debye-Ang):
   XX=           -267.5650   YY=           -240.7943   ZZ=           -259.3056
   XY=             -7.3070   XZ=            -13.0365   YZ=              5.3931

 Normal termination of Gaussian 16 at Thu Jul 18 01:51:21 2019.
