 Gaussian 16, Revision A.03,
 Gaussian 16:  ES64L-G16RevA.03 25-Dec-2016

 -------------------------------------
 # td=(NStates=1) CAM-B3LYP/6-31G(d,p)
 -------------------------------------

 --
 TD
 --
 Symbolic Z-matrix:
 Charge =  0 Multiplicity = 1

                         Standard orientation:
 ---------------------------------------------------------------------
 Center     Atomic      Atomic             Coordinates (Angstroms)
 Number     Number       Type             X           Y           Z
 ---------------------------------------------------------------------
      1          8           0       14.727577   -2.199671   -0.164483
      2          8           0      -14.933755    1.662399    0.976738
      3          6           0       11.171155   -1.575343    0.796763
      4          6           0      -12.359142   -1.127772    0.483437
      5          6           0       12.625041   -1.947400    0.917659
      6          6           0      -13.719849   -0.418265    0.560079
      7          6           0       13.395178   -1.868206   -0.293925
      8          6           0      -13.648315    1.089805    0.891087
      9          6           0       10.943077   -0.331298    0.006752
     10          6           0      -11.313599   -0.246143   -0.206889
     11          6           0       13.380399   -0.461412   -0.929671
     12          6           0      -12.819892    1.759522   -0.131135
     13          6           0       11.922365    0.125715   -0.867326
     14          6           0      -11.551814    0.969430   -0.642043
     15          6           0       10.696578   -1.489258    2.298370
     16          6           0       10.246393   -2.724107    0.217690
     17          6           0      -11.818021   -1.321948    2.000169
     18          6           0      -12.494395   -2.461399   -0.099275
     19          6           0        9.685100    0.274623    0.265971
     20          6           0      -10.079367   -0.902860   -0.504460
     21          6           0       11.724446    1.323846   -1.846227
     22          6           0      -10.600160    1.883244   -1.384315
     23          6           0        9.411550    1.654074   -0.005114
     24          6           0       -8.713897   -0.369598   -0.335286
     25          6           0        8.108046    2.304428    0.148689
     26          6           0       -7.514038   -1.046346   -0.687816
     27          6           0        8.158949    3.753760    0.579484
     28          6           0       -7.598255   -2.507159   -1.225356
     29          6           0        6.839521    1.622676    0.111560
     30          6           0       -6.337248   -0.501019   -0.388540
     31          6           0        5.610392    2.127724    0.246917
     32          6           0       -5.013518   -1.032587   -0.561864
     33          6           0        4.412162    1.333980    0.153477
     34          6           0       -3.946398   -0.232313   -0.352488
     35          6           0        3.082265    1.728514    0.276458
     36          6           0       -2.609721   -0.652362   -0.444350
     37          6           0        2.871029    3.146164    0.413628
     38          6           0       -2.360476   -2.150749   -0.732437
     39          6           0        2.154205    0.803433   -0.126061
     40          6           0       -1.674210    0.201704   -0.163016
     41          6           0        0.775460    0.890313    0.056090
     42          6           0       -0.242204   -0.019403   -0.176924
     43          1           0       12.932050   -1.232080    1.588609
     44          1           0       12.671045   -2.968898    1.399430
     45          1           0      -14.194798   -0.926027    1.448866
     46          1           0      -14.367825   -0.331894   -0.329353
     47          1           0       12.883158   -2.701936   -1.004438
     48          1           0      -13.200703    1.219652    1.932641
     49          1           0       14.196413    0.221924   -0.405076
     50          1           0       13.500016   -0.494277   -1.975923
     51          1           0      -13.533703    1.865092   -1.118125
     52          1           0      -12.233596    2.691870    0.299371
     53          1           0       10.755430   -2.353441    2.897993
     54          1           0        9.553591   -1.219505    2.429824
     55          1           0       11.214678   -0.638193    2.690130
     56          1           0       10.623075   -2.836318   -0.872642
     57          1           0       10.620894   -3.658077    0.865017
     58          1           0        9.296438   -2.329551    0.314041
     59          1           0      -11.888258   -0.285697    2.552680
     60          1           0      -10.825754   -1.655043    1.738950
     61          1           0      -12.485001   -1.887258    2.526884
     62          1           0      -13.300215   -3.024514    0.657507
     63          1           0      -11.658206   -3.158245    0.137124
     64          1           0      -12.771349   -2.471818   -1.207825
     65          1           0        8.919376   -0.276401    0.692302
     66          1           0       -9.938608   -2.005157   -0.804232
     67          1           0       10.679645    1.562223   -1.865930
     68          1           0       12.305448    2.180351   -1.402762
     69          1           0       12.119305    1.076717   -2.717478
     70          1           0      -11.160913    2.603239   -2.086989
     71          1           0       -9.854057    1.320688   -1.717520
     72          1           0      -10.102224    2.446169   -0.675481
     73          1           0       14.580983   -3.155442    0.290272
     74          1           0      -15.213728    1.282693    1.835611
     75          1           0       10.224759    2.349601   -0.354780
     76          1           0       -8.713805    0.694527    0.008693
     77          1           0        9.050507    4.395985    0.442580
     78          1           0        7.374430    4.503475    0.186193
     79          1           0        7.861849    3.802891    1.667322
     80          1           0       -7.805051   -3.069152   -0.233987
     81          1           0       -8.359158   -2.836353   -2.120977
     82          1           0       -6.644099   -2.553454   -1.633863
     83          1           0        7.161627    0.384225   -0.147587
     84          1           0       -6.499155    0.546753   -0.104760
     85          1           0        5.685426    3.157845    0.314929
     86          1           0       -5.056931   -2.080186   -0.743869
     87          1           0        4.549727    0.361094   -0.311847
     88          1           0       -4.430081    0.772496   -0.125681
     89          1           0        3.108160    3.529069    1.552419
     90          1           0        1.838500    3.533789    0.277566
     91          1           0        3.437333    3.927087   -0.130486
     92          1           0       -2.992119   -2.693987   -0.026539
     93          1           0       -2.853839   -2.408733   -1.769336
     94          1           0       -1.312921   -2.374207   -0.780643
     95          1           0        2.531479   -0.233153   -0.393306
     96          1           0       -1.947417    1.288899   -0.033336
     97          1           0        0.403612    1.889692    0.347922
     98          1           0        0.121255   -1.086923   -0.416730
 ---------------------------------------------------------------------

 SCF Done:  E(RCAM-B3LYP) =  -1706.97493383     A.U. after   15 cycles

 Excitation energies and oscillator strengths:

 Excited State   1:      Singlet-A      2.0619 eV  601.32 nm  f=3.4692  <S**2>=0.000
     155 ->158        -0.15114
     156 ->157         0.69042
 This state for optimization and/or second-order correction.
 Total Energy, E(TD-HF/TD-DFT) =  -1706.89916198
 Copying the excited state density for this state as the 1-particle RhoCI density.

 The electronic state is 1-A.
 Alpha  occ. eigenvalues --  -19.22266 -19.21453 -10.30735 -10.30272 -10.28457
 Alpha  occ. eigenvalues --  -10.27695 -10.27487 -10.27399 -10.27361 -10.27268
 Alpha  occ. eigenvalues --  -10.27141 -10.27119 -10.27026 -10.26937 -10.26921
 Alpha  occ. eigenvalues --  -10.26918 -10.26881 -10.26868 -10.26827 -10.26792
 Alpha  occ. eigenvalues --  -10.26625 -10.26619 -10.26525 -10.26513 -10.26454
 Alpha  occ. eigenvalues --  -10.26447 -10.26437 -10.26362 -10.26306 -10.26269
 Alpha  occ. eigenvalues --  -10.26067 -10.26002 -10.25886 -10.25769 -10.25407
 Alpha  occ. eigenvalues --  -10.25058 -10.25013 -10.24710 -10.24684 -10.24390
 Alpha  occ. eigenvalues --  -10.24126 -10.23790  -1.10313  -1.10237  -0.94162
 Alpha  occ. eigenvalues --   -0.93840  -0.93101  -0.92602  -0.90876  -0.90048
 Alpha  occ. eigenvalues --   -0.87431  -0.87174  -0.86542  -0.85629  -0.84752
 Alpha  occ. eigenvalues --   -0.83566  -0.82456  -0.79869  -0.79666  -0.78448
 Alpha  occ. eigenvalues --   -0.77242  -0.76813  -0.76517  -0.75950  -0.75816
 Alpha  occ. eigenvalues --   -0.75471  -0.75427  -0.74859  -0.73941  -0.70869
 Alpha  occ. eigenvalues --   -0.69437  -0.67305  -0.65405  -0.65036  -0.63842
 Alpha  occ. eigenvalues --   -0.63716  -0.62789  -0.61750  -0.60821  -0.60416
 Alpha  occ. eigenvalues --   -0.59073  -0.58918  -0.58582  -0.57736  -0.56580
 Alpha  occ. eigenvalues --   -0.56045  -0.55579  -0.55214  -0.54278  -0.53770
 Alpha  occ. eigenvalues --   -0.53000  -0.52808  -0.52231  -0.51344  -0.51023
 Alpha  occ. eigenvalues --   -0.50651  -0.50166  -0.50070  -0.49744  -0.49681
 Alpha  occ. eigenvalues --   -0.49042  -0.48978  -0.48820  -0.48548  -0.48250
 Alpha  occ. eigenvalues --   -0.47374  -0.47360  -0.47230  -0.46920  -0.46679
 Alpha  occ. eigenvalues --   -0.46441  -0.46188  -0.45661  -0.45527  -0.45307
 Alpha  occ. eigenvalues --   -0.44719  -0.44613  -0.44445  -0.44239  -0.43662
 Alpha  occ. eigenvalues --   -0.43282  -0.43204  -0.43035  -0.42752  -0.42483
 Alpha  occ. eigenvalues --   -0.42075  -0.41891  -0.41378  -0.41137  -0.40941
 Alpha  occ. eigenvalues --   -0.40589  -0.40153  -0.40080  -0.39889  -0.39211
 Alpha  occ. eigenvalues --   -0.38986  -0.38653  -0.38197  -0.37961  -0.37948
 Alpha  occ. eigenvalues --   -0.37814  -0.37444  -0.37035  -0.36293  -0.36256
 Alpha  occ. eigenvalues --   -0.35717  -0.35183  -0.33830  -0.32825  -0.31644
 Alpha  occ. eigenvalues --   -0.31603  -0.30330  -0.28388  -0.26096  -0.22734
 Alpha  occ. eigenvalues --   -0.19300
 Alpha virt. eigenvalues --   -0.06440  -0.01879   0.01614   0.05137   0.07891
 Alpha virt. eigenvalues --    0.09815   0.10196   0.10863   0.11504   0.12017
 Alpha virt. eigenvalues --    0.12381   0.13055   0.13148   0.13258   0.13835

 Mulliken charges:
               1
     1  O   -0.542627
     2  O   -0.542065
     3  C   -0.079777
     4  C   -0.024131
     5  C   -0.163687
     6  C   -0.173573
     7  C    0.183474
     8  C    0.148112
     9  C    0.121804
    10  C    0.119211
    11  C   -0.208514
    12  C   -0.205296
    13  C   -0.016111
    14  C    0.011288
    15  C   -0.306785
    16  C   -0.265198
    17  C   -0.299106
    18  C   -0.279544
    19  C   -0.103180
    20  C   -0.175336
    21  C   -0.353949
    22  C   -0.354584
    23  C   -0.141279
    24  C   -0.125558
    25  C    0.071678
    26  C    0.084308
    27  C   -0.393347
    28  C   -0.358934
    29  C   -0.084403
    30  C   -0.126777
    31  C   -0.082530
    32  C   -0.082828
    33  C   -0.145223
    34  C   -0.109336
    35  C    0.180486
    36  C    0.117648
    37  C   -0.389291
    38  C   -0.356885
    39  C   -0.134307
    40  C   -0.117660
    41  C   -0.086423
    42  C   -0.102400
    43  H    0.107257
    44  H    0.067431
    45  H    0.066531
    46  H    0.104227
    47  H    0.038788
    48  H    0.059798
    49  H    0.114602
    50  H    0.118936
    51  H    0.100122
    52  H    0.101346
    53  H    0.109593
    54  H    0.077538
    55  H    0.111026
    56  H    0.094071
    57  H    0.081264
    58  H    0.111050
    59  H    0.083978
    60  H    0.117539
    61  H    0.106487
    62  H    0.067154
    63  H    0.102921
    64  H    0.107767
    65  H    0.092947
    66  H    0.083102
    67  H    0.128377
    68  H    0.111654
    69  H    0.113325
    70  H    0.105450
    71  H    0.126572
    72  H    0.125000
    73  H    0.300071
    74  H    0.308781
    75  H    0.103131
    76  H    0.073614
    77  H    0.114521
    78  H    0.102287
    79  H    0.130718
    80  H    0.125045
    81  H    0.104808
    82  H    0.118878
    83  H    0.048238
    84  H    0.073618
    85  H    0.084287
    86  H    0.087710
    87  H    0.090024
    88  H    0.091288
    89  H    0.092579
    90  H    0.111431
    91  H    0.132605
    92  H    0.131263
    93  H    0.107713
    94  H    0.115555
    95  H    0.082445
    96  H    0.083594
    97  H    0.074324
    98  H    0.068250
 Sum of Mulliken charges =  -0.00000

 Dipole moment (field-independent basis, Debye):
    X=              0.6958    Y=             -0.7719    Z=              1.3828  Tot=              1.7298
 Quadrupole moment (field-independent basis, Debye-Ang):
   XX=           -299.3640   YY=           -242.7085   ZZ=           -261.5528
   XY=             15.2747   XZ=             -8.3022   YZ=              0.0605

 Normal termination of Gaussian 16 at Wed Jul 17 04:39:19 2019.
