 Gaussian 16, Revision A.03,
 Gaussian 16:  ES64L-G16RevA.03 25-Dec-2016

 -------------------------------------
 # td=(NStates=1) CAM-B3LYP/6-31G(d,p)
 -------------------------------------

 --
 TD
 --
 Symbolic Z-matrix:
 Charge =  0 Multiplicity = 1

                         Standard orientation:
 ---------------------------------------------------------------------
 Center     Atomic      Atomic             Coordinates (Angstroms)
 Number     Number       Type             X           Y           Z
 ---------------------------------------------------------------------
      1          8           0       14.770942   -2.148994   -0.155212
      2          8           0      -14.775749    1.905426    1.053175
      3          6           0       11.251047   -1.448230    1.051802
      4          6           0      -12.304910   -1.064129    0.629246
      5          6           0       12.709907   -1.756599    1.141261
      6          6           0      -13.629754   -0.305029    0.675216
      7          6           0       13.383466   -1.842703   -0.299321
      8          6           0      -13.469400    1.208137    0.971373
      9          6           0       10.942869   -0.260919    0.061284
     10          6           0      -11.229118   -0.232278   -0.203928
     11          6           0       13.135038   -0.603345   -0.973889
     12          6           0      -12.716018    1.908010   -0.028121
     13          6           0       11.833052    0.024754   -0.968306
     14          6           0      -11.490888    1.099113   -0.581773
     15          6           0       10.927924   -1.047341    2.441948
     16          6           0       10.390630   -2.650398    0.679575
     17          6           0      -11.714109   -1.360272    2.027888
     18          6           0      -12.577031   -2.336411   -0.135292
     19          6           0        9.684088    0.411415    0.203708
     20          6           0      -10.102660   -0.900014   -0.396824
     21          6           0       11.543332    1.152097   -2.001279
     22          6           0      -10.477914    1.843723   -1.407246
     23          6           0        9.382095    1.685648   -0.042827
     24          6           0       -8.751623   -0.463323   -0.336560
     25          6           0        8.102481    2.252524    0.085986
     26          6           0       -7.598990   -1.327113   -0.569273
     27          6           0        7.960925    3.790966    0.309982
     28          6           0       -7.882123   -2.672406   -1.159569
     29          6           0        6.883484    1.557925   -0.001266
     30          6           0       -6.390738   -0.584646   -0.421182
     31          6           0        5.532368    2.066173    0.128861
     32          6           0       -5.031008   -1.096527   -0.450839
     33          6           0        4.381826    1.199803    0.019629
     34          6           0       -3.912659   -0.300870   -0.395574
     35          6           0        3.035630    1.606177    0.131231
     36          6           0       -2.651966   -0.771855   -0.562300
     37          6           0        2.730649    3.093635    0.537999
     38          6           0       -2.307691   -2.132281   -1.092324
     39          6           0        2.063416    0.692390   -0.051893
     40          6           0       -1.604564    0.080984   -0.194701
     41          6           0        0.742795    0.859313   -0.035956
     42          6           0       -0.283128   -0.068019   -0.293956
     43          1           0       13.284945   -0.693335    1.582724
     44          1           0       12.963196   -2.574037    1.713310
     45          1           0      -14.296162   -0.650437    1.321333
     46          1           0      -14.254884   -0.683013   -0.162107
     47          1           0       12.747740   -2.708729   -0.814333
     48          1           0      -13.001961    1.424526    1.932652
     49          1           0       13.801196   -0.022892   -0.560848
     50          1           0       13.547758   -0.376194   -2.071858
     51          1           0      -13.400196    2.098211   -0.938416
     52          1           0      -12.277681    2.704255    0.449216
     53          1           0       10.983420   -1.800032    3.207405
     54          1           0        9.981575   -0.829087    2.477412
     55          1           0       11.509850   -0.039203    2.376494
     56          1           0       10.765140   -3.086982   -0.280984
     57          1           0       10.450067   -3.532987    1.334036
     58          1           0        9.342842   -2.610586    0.644070
     59          1           0      -11.533308   -0.281004    2.489960
     60          1           0      -10.775145   -1.528127    1.808638
     61          1           0      -12.276929   -2.214854    2.684237
     62          1           0      -13.368473   -2.922518    0.305946
     63          1           0      -11.778858   -3.087917   -0.195700
     64          1           0      -12.911163   -2.206690   -1.214177
     65          1           0        8.955806   -0.256439    1.045721
     66          1           0      -10.174775   -1.883737   -0.629880
     67          1           0       10.423449    1.366004   -1.990327
     68          1           0       11.973571    2.215869   -1.719877
     69          1           0       12.009121    0.846661   -2.989250
     70          1           0      -10.903673    2.354960   -2.282549
     71          1           0       -9.839648    1.091703   -1.912192
     72          1           0       -9.941882    2.520787   -0.657414
     73          1           0       14.857028   -3.162870    0.057503
     74          1           0      -15.360070    1.242960    1.684225
     75          1           0       10.030914    2.275574   -0.318996
     76          1           0       -8.638242    0.453006   -0.035104
     77          1           0        8.981653    4.308786    0.151789
     78          1           0        7.282503    4.302767   -0.214703
     79          1           0        7.583299    3.746462    1.553881
     80          1           0       -8.141377   -3.519594   -0.433680
     81          1           0       -8.796839   -2.659238   -2.028680
     82          1           0       -7.004104   -2.901802   -1.793558
     83          1           0        6.832044    0.546142   -0.234786
     84          1           0       -6.568737    0.456100   -0.251542
     85          1           0        5.449681    3.275768    0.301899
     86          1           0       -4.872596   -2.082646   -0.856254
     87          1           0        4.541173    0.123686   -0.376587
     88          1           0       -4.137194    0.630983   -0.112695
     89          1           0        3.254747    3.347132    1.404254
     90          1           0        1.726573    3.358747    0.595822
     91          1           0        3.159281    3.749573   -0.101355
     92          1           0       -2.578672   -2.999221   -0.455071
     93          1           0       -2.837355   -2.192924   -1.996418
     94          1           0       -1.165443   -2.464031   -1.421213
     95          1           0        2.538440   -0.304975   -0.277227
     96          1           0       -1.763636    1.074002    0.255248
     97          1           0        0.323558    1.860093    0.326534
     98          1           0        0.392487   -0.998580   -0.516990
 ---------------------------------------------------------------------

 SCF Done:  E(RCAM-B3LYP) =  -1706.85279101     A.U. after   16 cycles

 Excitation energies and oscillator strengths:

 Excited State   1:      Singlet-A      1.8418 eV  673.19 nm  f=4.0127  <S**2>=0.000
     155 ->158        -0.15085
     156 ->157         0.69277
     156 <-157        -0.10156
 This state for optimization and/or second-order correction.
 Total Energy, E(TD-HF/TD-DFT) =  -1706.78510783
 Copying the excited state density for this state as the 1-particle RhoCI density.

 The electronic state is 1-A.
 Alpha  occ. eigenvalues --  -19.22524 -19.21242 -10.31440 -10.29691 -10.28530
 Alpha  occ. eigenvalues --  -10.27938 -10.27904 -10.27825 -10.27647 -10.27627
 Alpha  occ. eigenvalues --  -10.27624 -10.27378 -10.27370 -10.27355 -10.27337
 Alpha  occ. eigenvalues --  -10.27278 -10.27052 -10.27044 -10.26867 -10.26444
 Alpha  occ. eigenvalues --  -10.26377 -10.26234 -10.26173 -10.25975 -10.25963
 Alpha  occ. eigenvalues --  -10.25899 -10.25542 -10.25421 -10.25201 -10.25067
 Alpha  occ. eigenvalues --  -10.24995 -10.24870 -10.24718 -10.24670 -10.24599
 Alpha  occ. eigenvalues --  -10.24519 -10.24417 -10.24385 -10.23864 -10.23804
 Alpha  occ. eigenvalues --  -10.23661 -10.22910  -1.08662  -1.05614  -0.94694
 Alpha  occ. eigenvalues --   -0.93566  -0.92884  -0.91861  -0.90959  -0.89868
 Alpha  occ. eigenvalues --   -0.88723  -0.87613  -0.86851  -0.85996  -0.85346
 Alpha  occ. eigenvalues --   -0.83354  -0.81891  -0.80050  -0.79546  -0.79234
 Alpha  occ. eigenvalues --   -0.77303  -0.77299  -0.76978  -0.76706  -0.76323
 Alpha  occ. eigenvalues --   -0.76231  -0.76172  -0.75349  -0.73126  -0.70863
 Alpha  occ. eigenvalues --   -0.69482  -0.67678  -0.65776  -0.64990  -0.64195
 Alpha  occ. eigenvalues --   -0.63856  -0.63121  -0.61794  -0.60982  -0.60660
 Alpha  occ. eigenvalues --   -0.59560  -0.59122  -0.58861  -0.57484  -0.56364
 Alpha  occ. eigenvalues --   -0.56236  -0.55423  -0.55241  -0.55166  -0.54116
 Alpha  occ. eigenvalues --   -0.53845  -0.52732  -0.52458  -0.52002  -0.51403
 Alpha  occ. eigenvalues --   -0.50874  -0.50070  -0.49668  -0.49408  -0.49109
 Alpha  occ. eigenvalues --   -0.48821  -0.48771  -0.48484  -0.47983  -0.47955
 Alpha  occ. eigenvalues --   -0.47841  -0.47713  -0.47006  -0.46759  -0.46717
 Alpha  occ. eigenvalues --   -0.45904  -0.45795  -0.45552  -0.45324  -0.44732
 Alpha  occ. eigenvalues --   -0.44671  -0.44336  -0.44156  -0.43790  -0.43412
 Alpha  occ. eigenvalues --   -0.43332  -0.42836  -0.42665  -0.42386  -0.42251
 Alpha  occ. eigenvalues --   -0.41809  -0.41336  -0.41003  -0.40616  -0.40382
 Alpha  occ. eigenvalues --   -0.40260  -0.40180  -0.40115  -0.39757  -0.39632
 Alpha  occ. eigenvalues --   -0.38869  -0.38686  -0.38457  -0.38402  -0.38090
 Alpha  occ. eigenvalues --   -0.37424  -0.37229  -0.36921  -0.36788  -0.36530
 Alpha  occ. eigenvalues --   -0.35918  -0.35439  -0.34387  -0.32709  -0.31807
 Alpha  occ. eigenvalues --   -0.30896  -0.30031  -0.28336  -0.25370  -0.22575
 Alpha  occ. eigenvalues --   -0.18318
 Alpha virt. eigenvalues --   -0.06975  -0.01842   0.01480   0.04963   0.07500
 Alpha virt. eigenvalues --    0.09628   0.10590   0.10738   0.11460   0.11715
 Alpha virt. eigenvalues --    0.12244   0.12689   0.13085   0.13277   0.13729

 Mulliken charges:
               1
     1  O   -0.567448
     2  O   -0.580052
     3  C   -0.024656
     4  C   -0.000139
     5  C   -0.157326
     6  C   -0.184858
     7  C    0.159906
     8  C    0.161253
     9  C    0.047924
    10  C    0.083233
    11  C   -0.200405
    12  C   -0.182894
    13  C    0.070358
    14  C   -0.005039
    15  C   -0.260763
    16  C   -0.315692
    17  C   -0.281586
    18  C   -0.331051
    19  C   -0.102139
    20  C   -0.145029
    21  C   -0.368228
    22  C   -0.362789
    23  C   -0.065287
    24  C   -0.082278
    25  C    0.054039
    26  C    0.114426
    27  C   -0.347369
    28  C   -0.373176
    29  C   -0.101192
    30  C   -0.133901
    31  C   -0.096715
    32  C   -0.110154
    33  C   -0.155851
    34  C   -0.071728
    35  C    0.139248
    36  C    0.123725
    37  C   -0.372937
    38  C   -0.381716
    39  C   -0.119476
    40  C   -0.144736
    41  C   -0.101519
    42  C   -0.054392
    43  H    0.061659
    44  H    0.088074
    45  H    0.077231
    46  H    0.093812
    47  H    0.056318
    48  H    0.089882
    49  H    0.143613
    50  H    0.076221
    51  H    0.118853
    52  H    0.115211
    53  H    0.099783
    54  H    0.092014
    55  H    0.094200
    56  H    0.094800
    57  H    0.090289
    58  H    0.115201
    59  H    0.079759
    60  H    0.122829
    61  H    0.088734
    62  H    0.097067
    63  H    0.100396
    64  H    0.104063
    65  H    0.068094
    66  H    0.071386
    67  H    0.129002
    68  H    0.107572
    69  H    0.106104
    70  H    0.107313
    71  H    0.125835
    72  H    0.108490
    73  H    0.320255
    74  H    0.296807
    75  H    0.065121
    76  H    0.063279
    77  H    0.095268
    78  H    0.135935
    79  H    0.093264
    80  H    0.124814
    81  H    0.100144
    82  H    0.117803
    83  H    0.075299
    84  H    0.088311
    85  H    0.075572
    86  H    0.077506
    87  H    0.089019
    88  H    0.077329
    89  H    0.127180
    90  H    0.113328
    91  H    0.127468
    92  H    0.124881
    93  H    0.129993
    94  H    0.101682
    95  H    0.074033
    96  H    0.080822
    97  H    0.065887
    98  H    0.063602
 Sum of Mulliken charges =  -0.00000

 Dipole moment (field-independent basis, Debye):
    X=              1.4021    Y=             -2.4074    Z=              0.2968  Tot=              2.8017
 Quadrupole moment (field-independent basis, Debye-Ang):
   XX=           -278.7637   YY=           -239.9536   ZZ=           -263.2506
   XY=             14.6559   XZ=             -5.6807   YZ=             -0.7393

 Normal termination of Gaussian 16 at Thu Jul 18 06:30:19 2019.
