 Gaussian 16, Revision A.03,
 Gaussian 16:  ES64L-G16RevA.03 25-Dec-2016

 -------------------------------------
 # td=(NStates=1) CAM-B3LYP/6-31G(d,p)
 -------------------------------------

 --
 TD
 --
 Symbolic Z-matrix:
 Charge =  0 Multiplicity = 1

                         Standard orientation:
 ---------------------------------------------------------------------
 Center     Atomic      Atomic             Coordinates (Angstroms)
 Number     Number       Type             X           Y           Z
 ---------------------------------------------------------------------
      1          8           0       14.733762   -2.273345   -0.192374
      2          8           0      -14.824720    1.866551    0.941201
      3          6           0       11.160730   -1.520265    0.966382
      4          6           0      -12.438114   -1.025149    0.569784
      5          6           0       12.675931   -1.902279    1.031125
      6          6           0      -13.780185   -0.287903    0.544736
      7          6           0       13.377351   -1.923206   -0.224728
      8          6           0      -13.690528    1.136267    0.925372
      9          6           0       11.000480   -0.309121   -0.058798
     10          6           0      -11.310754   -0.221734   -0.203503
     11          6           0       13.330651   -0.596808   -0.971529
     12          6           0      -12.781169    1.915356   -0.124449
     13          6           0       11.991543    0.180055   -0.866217
     14          6           0      -11.485906    1.117834   -0.502693
     15          6           0       10.763409   -1.126502    2.357317
     16          6           0       10.377542   -2.685754    0.396290
     17          6           0      -11.982127   -1.463254    2.017493
     18          6           0      -12.656007   -2.380531   -0.206219
     19          6           0        9.676887    0.453691    0.211047
     20          6           0      -10.074969   -1.016518   -0.444321
     21          6           0       11.799005    1.321298   -1.882076
     22          6           0      -10.553335    1.935707   -1.190449
     23          6           0        9.413377    1.781699    0.133669
     24          6           0       -8.789309   -0.512973   -0.377415
     25          6           0        8.141773    2.257228    0.220270
     26          6           0       -7.643176   -1.159368   -0.723224
     27          6           0        7.976617    3.823837    0.551066
     28          6           0       -7.655913   -2.605743   -1.300727
     29          6           0        6.918110    1.557385   -0.022896
     30          6           0       -6.407806   -0.596104   -0.420164
     31          6           0        5.614989    2.023508    0.103394
     32          6           0       -5.093197   -1.108150   -0.529578
     33          6           0        4.540725    1.242814   -0.215235
     34          6           0       -4.001390   -0.336049   -0.277172
     35          6           0        3.303282    1.655119   -0.001828
     36          6           0       -2.648817   -0.715311   -0.383158
     37          6           0        2.891709    3.182111    0.361456
     38          6           0       -2.396622   -2.211096   -0.774328
     39          6           0        2.161557    0.757727   -0.144965
     40          6           0       -1.529638    0.123699   -0.102376
     41          6           0        0.722807    0.920351    0.058126
     42          6           0       -0.154344   -0.052248   -0.053953
     43          1           0       13.037545   -1.170657    1.782949
     44          1           0       12.785630   -2.832903    1.433506
     45          1           0      -14.457328   -0.762511    1.156240
     46          1           0      -14.194535   -0.319769   -0.592492
     47          1           0       12.888319   -2.611170   -0.893976
     48          1           0      -13.388093    1.236137    1.844276
     49          1           0       14.083498   -0.032826   -0.314455
     50          1           0       13.572066   -0.681772   -1.927058
     51          1           0      -13.336663    2.318543   -1.114233
     52          1           0      -12.271633    2.811851    0.486325
     53          1           0       10.810984   -2.057765    3.023607
     54          1           0        9.743684   -0.979627    2.521833
     55          1           0       11.462691   -0.278090    2.637534
     56          1           0       10.745385   -3.093338   -0.530229
     57          1           0       10.504901   -3.511960    1.168376
     58          1           0        9.328235   -2.462829    0.271419
     59          1           0      -11.982026   -0.563828    2.710423
     60          1           0      -10.966104   -1.905721    2.128696
     61          1           0      -12.736152   -2.328513    2.334307
     62          1           0      -13.535830   -2.869220    0.211817
     63          1           0      -11.794305   -3.135393   -0.165816
     64          1           0      -12.863764   -2.167876   -1.240862
     65          1           0        8.897737   -0.274093    0.399370
     66          1           0      -10.132491   -2.139592   -0.676091
     67          1           0       10.715090    1.324207   -1.760749
     68          1           0       12.045156    2.173293   -1.610206
     69          1           0       12.248973    1.095283   -2.816654
     70          1           0      -11.077892    2.485663   -1.911665
     71          1           0       -9.836417    1.307019   -1.666581
     72          1           0      -10.124402    2.593403   -0.517722
     73          1           0       14.807219   -3.008673    0.410058
     74          1           0      -15.401766    1.539552    1.815251
     75          1           0       10.298034    2.423892   -0.004920
     76          1           0       -8.684113    0.545153    0.049616
     77          1           0        8.806055    4.247864    0.782643
     78          1           0        7.407330    4.265009   -0.368465
     79          1           0        7.308626    4.049768    1.460215
     80          1           0       -8.204903   -3.473028   -0.538742
     81          1           0       -7.979982   -2.628548   -2.332404
     82          1           0       -6.718552   -3.093318   -1.155303
     83          1           0        7.029590    0.591461   -0.424971
     84          1           0       -6.409754    0.471608    0.036967
     85          1           0        5.529431    3.126298    0.319223
     86          1           0       -5.069399   -2.203165   -0.854758
     87          1           0        4.363051    0.186658   -0.571179
     88          1           0       -4.276426    0.625979   -0.068682
     89          1           0        3.321674    3.293429    1.453164
     90          1           0        1.843928    3.413267    0.167823
     91          1           0        3.635785    3.853121   -0.198104
     92          1           0       -2.691055   -2.871544    0.081421
     93          1           0       -2.868956   -2.446258   -1.630634
     94          1           0       -1.274360   -2.468420   -0.789185
     95          1           0        2.339690   -0.244946   -0.717491
     96          1           0       -1.906628    1.214554    0.073530
     97          1           0        0.405704    2.027808    0.325589
     98          1           0        0.354164   -1.126838   -0.356333
 ---------------------------------------------------------------------

 SCF Done:  E(RCAM-B3LYP) =  -1706.97475348     A.U. after   15 cycles

 Excitation energies and oscillator strengths:

 Excited State   1:      Singlet-A      1.9849 eV  624.64 nm  f=3.9156  <S**2>=0.000
     155 ->158        -0.15551
     156 ->157         0.69045
 This state for optimization and/or second-order correction.
 Total Energy, E(TD-HF/TD-DFT) =  -1706.90181020
 Copying the excited state density for this state as the 1-particle RhoCI density.

 The electronic state is 1-A.
 Alpha  occ. eigenvalues --  -19.21704 -19.21081 -10.29089 -10.28532 -10.27933
 Alpha  occ. eigenvalues --  -10.27870 -10.27778 -10.27757 -10.27708 -10.27641
 Alpha  occ. eigenvalues --  -10.27404 -10.27345 -10.27322 -10.27294 -10.27269
 Alpha  occ. eigenvalues --  -10.27187 -10.27089 -10.27003 -10.26927 -10.26684
 Alpha  occ. eigenvalues --  -10.26584 -10.26533 -10.26415 -10.26413 -10.26190
 Alpha  occ. eigenvalues --  -10.26105 -10.26055 -10.26040 -10.25972 -10.25703
 Alpha  occ. eigenvalues --  -10.25596 -10.25524 -10.25446 -10.25192 -10.25115
 Alpha  occ. eigenvalues --  -10.24895 -10.24648 -10.24400 -10.24156 -10.24147
 Alpha  occ. eigenvalues --  -10.23070 -10.22441  -1.10627  -1.10277  -0.93451
 Alpha  occ. eigenvalues --   -0.92381  -0.92304  -0.91495  -0.90549  -0.89897
 Alpha  occ. eigenvalues --   -0.88140  -0.87320  -0.87132  -0.85127  -0.84120
 Alpha  occ. eigenvalues --   -0.83013  -0.81884  -0.80120  -0.79492  -0.77776
 Alpha  occ. eigenvalues --   -0.77428  -0.77122  -0.76203  -0.76120  -0.75957
 Alpha  occ. eigenvalues --   -0.75530  -0.74685  -0.74428  -0.73000  -0.71008
 Alpha  occ. eigenvalues --   -0.69481  -0.67521  -0.66101  -0.65396  -0.64286
 Alpha  occ. eigenvalues --   -0.63318  -0.62525  -0.60838  -0.60094  -0.59867
 Alpha  occ. eigenvalues --   -0.59260  -0.59061  -0.58757  -0.57823  -0.56552
 Alpha  occ. eigenvalues --   -0.55457  -0.55397  -0.54741  -0.54607  -0.53431
 Alpha  occ. eigenvalues --   -0.53354  -0.52885  -0.52290  -0.51574  -0.51278
 Alpha  occ. eigenvalues --   -0.50714  -0.50378  -0.49879  -0.49841  -0.49585
 Alpha  occ. eigenvalues --   -0.49368  -0.49025  -0.48815  -0.48163  -0.47948
 Alpha  occ. eigenvalues --   -0.47916  -0.47641  -0.47478  -0.47193  -0.46891
 Alpha  occ. eigenvalues --   -0.46579  -0.46339  -0.45080  -0.44860  -0.44748
 Alpha  occ. eigenvalues --   -0.44646  -0.44537  -0.44093  -0.43658  -0.43376
 Alpha  occ. eigenvalues --   -0.43196  -0.42680  -0.42616  -0.42502  -0.42255
 Alpha  occ. eigenvalues --   -0.41866  -0.41326  -0.41099  -0.40524  -0.40498
 Alpha  occ. eigenvalues --   -0.40084  -0.40046  -0.39840  -0.39553  -0.39327
 Alpha  occ. eigenvalues --   -0.39126  -0.38588  -0.38442  -0.38152  -0.37915
 Alpha  occ. eigenvalues --   -0.37631  -0.37362  -0.37050  -0.36506  -0.36007
 Alpha  occ. eigenvalues --   -0.35710  -0.34421  -0.34049  -0.32416  -0.31903
 Alpha  occ. eigenvalues --   -0.31441  -0.30001  -0.28490  -0.26443  -0.22571
 Alpha  occ. eigenvalues --   -0.18849
 Alpha virt. eigenvalues --   -0.06562  -0.02035   0.02544   0.05754   0.08717
 Alpha virt. eigenvalues --    0.09372   0.10066   0.10900   0.12424   0.12455
 Alpha virt. eigenvalues --    0.12585   0.13121   0.13243   0.13574   0.13921

 Mulliken charges:
               1
     1  O   -0.552052
     2  O   -0.556712
     3  C   -0.016104
     4  C   -0.008249
     5  C   -0.179643
     6  C   -0.174427
     7  C    0.169297
     8  C    0.218330
     9  C    0.033820
    10  C    0.064683
    11  C   -0.203575
    12  C   -0.224493
    13  C    0.002934
    14  C    0.033745
    15  C   -0.294325
    16  C   -0.301560
    17  C   -0.297876
    18  C   -0.307041
    19  C   -0.105450
    20  C   -0.144156
    21  C   -0.353894
    22  C   -0.358821
    23  C   -0.122098
    24  C   -0.114164
    25  C    0.070856
    26  C    0.119928
    27  C   -0.359141
    28  C   -0.360776
    29  C   -0.107260
    30  C   -0.142262
    31  C   -0.111322
    32  C   -0.064586
    33  C   -0.078890
    34  C   -0.101511
    35  C    0.113866
    36  C    0.084597
    37  C   -0.358991
    38  C   -0.364695
    39  C   -0.179787
    40  C   -0.136001
    41  C   -0.051548
    42  C   -0.072099
    43  H    0.089536
    44  H    0.080877
    45  H    0.078607
    46  H    0.081339
    47  H    0.071745
    48  H    0.072649
    49  H    0.109081
    50  H    0.107944
    51  H    0.110535
    52  H    0.088114
    53  H    0.085707
    54  H    0.113830
    55  H    0.110870
    56  H    0.115537
    57  H    0.084349
    58  H    0.103546
    59  H    0.092122
    60  H    0.115254
    61  H    0.080691
    62  H    0.094109
    63  H    0.091728
    64  H    0.108194
    65  H    0.086006
    66  H    0.090888
    67  H    0.125289
    68  H    0.128946
    69  H    0.109528
    70  H    0.108533
    71  H    0.122490
    72  H    0.122031
    73  H    0.298554
    74  H    0.293513
    75  H    0.101971
    76  H    0.087397
    77  H    0.111270
    78  H    0.112502
    79  H    0.107448
    80  H    0.076240
    81  H    0.134609
    82  H    0.116229
    83  H    0.077204
    84  H    0.070047
    85  H    0.093663
    86  H    0.080995
    87  H    0.093762
    88  H    0.077283
    89  H    0.113098
    90  H    0.119296
    91  H    0.110748
    92  H    0.116991
    93  H    0.130757
    94  H    0.093784
    95  H    0.067256
    96  H    0.071218
    97  H    0.077769
    98  H    0.077775
 Sum of Mulliken charges =  -0.00000

 Dipole moment (field-independent basis, Debye):
    X=              0.4052    Y=             -1.2177    Z=              1.7396  Tot=              2.1617
 Quadrupole moment (field-independent basis, Debye-Ang):
   XX=           -267.7145   YY=           -243.7260   ZZ=           -259.5704
   XY=              7.5667   XZ=             -5.5839   YZ=              0.9702

 Normal termination of Gaussian 16 at Fri Jul 12 08:23:30 2019.
