 Gaussian 16, Revision A.03,
 Gaussian 16:  ES64L-G16RevA.03 25-Dec-2016

 -------------------------------------
 # td=(NStates=1) CAM-B3LYP/6-31G(d,p)
 -------------------------------------

 --
 TD
 --
 Symbolic Z-matrix:
 Charge =  0 Multiplicity = 1

                         Standard orientation:
 ---------------------------------------------------------------------
 Center     Atomic      Atomic             Coordinates (Angstroms)
 Number     Number       Type             X           Y           Z
 ---------------------------------------------------------------------
      1          8           0       14.690123   -2.160551   -0.438020
      2          8           0      -14.842792    1.773408    0.833055
      3          6           0       11.217495   -1.526454    0.916822
      4          6           0      -12.330938   -1.031373    0.423877
      5          6           0       12.632581   -1.904245    0.762704
      6          6           0      -13.737712   -0.348565    0.455663
      7          6           0       13.263071   -1.971100   -0.575866
      8          6           0      -13.552878    1.115957    0.730398
      9          6           0       10.948180   -0.307728   -0.083241
     10          6           0      -11.340472   -0.267860   -0.301663
     11          6           0       13.258186   -0.565452   -1.167136
     12          6           0      -12.701832    1.838837   -0.316786
     13          6           0       11.901889    0.112037   -0.959755
     14          6           0      -11.463628    1.097166   -0.701410
     15          6           0       10.750622   -1.224123    2.345790
     16          6           0       10.309056   -2.740647    0.423150
     17          6           0      -11.896185   -1.272149    1.886962
     18          6           0      -12.551363   -2.461732   -0.267677
     19          6           0        9.658433    0.391674    0.210181
     20          6           0       -9.964263   -0.886500   -0.484038
     21          6           0       11.577357    1.212331   -1.940946
     22          6           0      -10.630708    1.757132   -1.689678
     23          6           0        9.394014    1.673755    0.179345
     24          6           0       -8.655519   -0.384256   -0.334988
     25          6           0        8.034159    2.278317    0.246744
     26          6           0       -7.568329   -1.206871   -0.480216
     27          6           0        8.028102    3.785651    0.626608
     28          6           0       -7.703481   -2.627170   -1.043296
     29          6           0        6.880043    1.555176    0.097477
     30          6           0       -6.326278   -0.553998   -0.256091
     31          6           0        5.575274    2.189236    0.197345
     32          6           0       -5.047862   -1.017515   -0.273986
     33          6           0        4.442616    1.492004   -0.041136
     34          6           0       -3.852596   -0.324799   -0.082830
     35          6           0        3.107436    1.849644    0.102709
     36          6           0       -2.561061   -0.819116   -0.135475
     37          6           0        2.793509    3.227203    0.502690
     38          6           0       -2.289471   -2.266406   -0.419312
     39          6           0        2.127873    0.806894    0.078982
     40          6           0       -1.526388    0.058482    0.167467
     41          6           0        0.749261    0.917080    0.272819
     42          6           0       -0.180306   -0.218766    0.105229
     43          1           0       13.102887   -1.062447    1.447071
     44          1           0       12.786230   -3.002481    1.276123
     45          1           0      -14.606311   -0.731868    1.050136
     46          1           0      -14.224566   -0.243440   -0.627690
     47          1           0       12.787120   -2.680619   -1.257615
     48          1           0      -12.985525    1.141935    1.706804
     49          1           0       14.035442    0.242194   -0.655815
     50          1           0       13.567548   -0.516331   -2.278521
     51          1           0      -13.352143    2.031196   -1.402346
     52          1           0      -12.506259    2.924169   -0.150390
     53          1           0       11.111345   -2.136785    2.812918
     54          1           0        9.663727   -1.264432    2.442742
     55          1           0       11.277148   -0.124923    2.525314
     56          1           0       10.772816   -2.912639   -0.634639
     57          1           0       10.511864   -3.625214    1.152108
     58          1           0        9.270075   -2.629446    0.318854
     59          1           0      -11.793967   -0.405158    2.636066
     60          1           0      -10.885085   -1.709239    1.802898
     61          1           0      -12.619931   -2.041488    2.277475
     62          1           0      -13.275576   -3.020997    0.336501
     63          1           0      -11.401209   -2.957971   -0.187637
     64          1           0      -12.830923   -2.245027   -1.165347
     65          1           0        8.803165   -0.391757    0.505726
     66          1           0      -10.228708   -1.823456   -0.815482
     67          1           0       10.485495    1.269977   -1.782518
     68          1           0       11.734337    2.302847   -1.659975
     69          1           0       11.953299    1.197250   -3.134200
     70          1           0      -10.990455    2.395475   -2.493143
     71          1           0       -9.772297    1.036006   -2.209126
     72          1           0      -10.085081    2.523398   -1.061212
     73          1           0       15.080612   -3.016342   -0.119725
     74          1           0      -15.451359    1.586345    1.683248
     75          1           0       10.364956    2.200706   -0.033036
     76          1           0       -8.722962    0.562643    0.194295
     77          1           0        9.028504    4.023936    0.728536
     78          1           0        7.966615    4.601037   -0.388531
     79          1           0        7.134510    3.944202    1.438920
     80          1           0       -8.202407   -3.078544   -0.211390
     81          1           0       -8.472119   -2.688647   -1.896415
     82          1           0       -6.783518   -3.251525   -1.388512
     83          1           0        6.842512    0.501421   -0.142746
     84          1           0       -6.463195    0.503873    0.091135
     85          1           0        5.562247    3.326102    0.462763
     86          1           0       -4.967587   -2.149042   -0.412322
     87          1           0        4.597848    0.208897   -0.013299
     88          1           0       -3.924177    0.847760    0.055406
     89          1           0        3.327713    3.789233    1.369576
     90          1           0        1.779483    3.519667    0.567210
     91          1           0        3.291592    3.852769   -0.292619
     92          1           0       -2.800340   -2.793458    0.245685
     93          1           0       -2.664376   -2.487895   -1.318645
     94          1           0       -1.309450   -2.449552   -0.336332
     95          1           0        2.416199   -0.226249   -0.009569
     96          1           0       -1.803756    0.935729    0.297535
     97          1           0        0.330366    1.930036    0.669377
     98          1           0        0.151647   -1.225194   -0.240510
 ---------------------------------------------------------------------

 SCF Done:  E(RCAM-B3LYP) =  -1706.88927638     A.U. after   15 cycles

 Excitation energies and oscillator strengths:

 Excited State   1:      Singlet-A      1.8821 eV  658.76 nm  f=3.8363  <S**2>=0.000
     155 ->158        -0.13446
     156 ->157         0.69958
     156 <-157        -0.11505
 This state for optimization and/or second-order correction.
 Total Energy, E(TD-HF/TD-DFT) =  -1706.82011076
 Copying the excited state density for this state as the 1-particle RhoCI density.

 The electronic state is 1-A.
 Alpha  occ. eigenvalues --  -19.21022 -19.20566 -10.31193 -10.30732 -10.28096
 Alpha  occ. eigenvalues --  -10.27963 -10.27902 -10.27881 -10.27759 -10.27737
 Alpha  occ. eigenvalues --  -10.27612 -10.27288 -10.27227 -10.27171 -10.27140
 Alpha  occ. eigenvalues --  -10.27040 -10.26999 -10.26922 -10.26892 -10.26885
 Alpha  occ. eigenvalues --  -10.26696 -10.26509 -10.26486 -10.26442 -10.26375
 Alpha  occ. eigenvalues --  -10.26282 -10.26230 -10.26147 -10.26141 -10.26118
 Alpha  occ. eigenvalues --  -10.26059 -10.26039 -10.26034 -10.26012 -10.25710
 Alpha  occ. eigenvalues --  -10.25693 -10.25638 -10.25602 -10.25453 -10.25405
 Alpha  occ. eigenvalues --  -10.24129 -10.22594  -1.07512  -1.06078  -0.93669
 Alpha  occ. eigenvalues --   -0.93415  -0.92742  -0.91715  -0.91033  -0.89879
 Alpha  occ. eigenvalues --   -0.87275  -0.87040  -0.86658  -0.85472  -0.84545
 Alpha  occ. eigenvalues --   -0.82998  -0.82290  -0.80414  -0.79582  -0.79379
 Alpha  occ. eigenvalues --   -0.77573  -0.76299  -0.76070  -0.75725  -0.75228
 Alpha  occ. eigenvalues --   -0.74780  -0.74742  -0.74640  -0.73213  -0.71040
 Alpha  occ. eigenvalues --   -0.68792  -0.67662  -0.65357  -0.64211  -0.63914
 Alpha  occ. eigenvalues --   -0.62836  -0.62747  -0.61717  -0.60157  -0.59554
 Alpha  occ. eigenvalues --   -0.59339  -0.58750  -0.58626  -0.57490  -0.56698
 Alpha  occ. eigenvalues --   -0.55561  -0.54820  -0.54630  -0.54150  -0.53560
 Alpha  occ. eigenvalues --   -0.53063  -0.52919  -0.51946  -0.51336  -0.51173
 Alpha  occ. eigenvalues --   -0.50735  -0.50705  -0.50307  -0.49640  -0.48960
 Alpha  occ. eigenvalues --   -0.48414  -0.47963  -0.47839  -0.47502  -0.47331
 Alpha  occ. eigenvalues --   -0.47278  -0.46973  -0.46488  -0.46226  -0.46149
 Alpha  occ. eigenvalues --   -0.45862  -0.45272  -0.45155  -0.44938  -0.44666
 Alpha  occ. eigenvalues --   -0.44589  -0.44274  -0.44055  -0.43839  -0.43434
 Alpha  occ. eigenvalues --   -0.42976  -0.42789  -0.42075  -0.41982  -0.41579
 Alpha  occ. eigenvalues --   -0.41347  -0.41163  -0.40972  -0.40810  -0.40432
 Alpha  occ. eigenvalues --   -0.40192  -0.40077  -0.40022  -0.39721  -0.39129
 Alpha  occ. eigenvalues --   -0.38968  -0.38805  -0.38236  -0.37999  -0.37890
 Alpha  occ. eigenvalues --   -0.37274  -0.36846  -0.36481  -0.35956  -0.35276
 Alpha  occ. eigenvalues --   -0.35214  -0.34862  -0.33213  -0.32944  -0.31990
 Alpha  occ. eigenvalues --   -0.31074  -0.29151  -0.27528  -0.25795  -0.23235
 Alpha  occ. eigenvalues --   -0.18290
 Alpha virt. eigenvalues --   -0.06938  -0.01228   0.01998   0.05155   0.07092
 Alpha virt. eigenvalues --    0.09400   0.10346   0.10739   0.11111   0.11338
 Alpha virt. eigenvalues --    0.12156   0.12477   0.12838   0.13338   0.13540

 Mulliken charges:
               1
     1  O   -0.581948
     2  O   -0.594743
     3  C   -0.021198
     4  C   -0.053536
     5  C   -0.168652
     6  C   -0.173225
     7  C    0.196259
     8  C    0.186358
     9  C    0.040239
    10  C    0.039762
    11  C   -0.203956
    12  C   -0.216462
    13  C    0.055952
    14  C    0.089517
    15  C   -0.273142
    16  C   -0.295903
    17  C   -0.284507
    18  C   -0.275753
    19  C   -0.087764
    20  C   -0.151667
    21  C   -0.390843
    22  C   -0.368799
    23  C   -0.132157
    24  C   -0.092112
    25  C    0.070174
    26  C    0.108131
    27  C   -0.339772
    28  C   -0.370406
    29  C   -0.094640
    30  C   -0.120078
    31  C   -0.086463
    32  C   -0.100801
    33  C   -0.121492
    34  C   -0.123240
    35  C    0.133442
    36  C    0.086794
    37  C   -0.385193
    38  C   -0.347151
    39  C   -0.120344
    40  C   -0.051328
    41  C   -0.106604
    42  C   -0.108666
    43  H    0.095454
    44  H    0.051202
    45  H    0.086004
    46  H    0.081851
    47  H    0.099747
    48  H    0.073676
    49  H    0.111244
    50  H    0.102724
    51  H    0.075618
    52  H    0.113717
    53  H    0.102330
    54  H    0.110871
    55  H    0.090693
    56  H    0.084226
    57  H    0.081727
    58  H    0.109347
    59  H    0.099403
    60  H    0.104447
    61  H    0.090308
    62  H    0.105640
    63  H    0.071564
    64  H    0.125002
    65  H    0.069272
    66  H    0.072726
    67  H    0.133849
    68  H    0.106588
    69  H    0.088138
    70  H    0.122038
    71  H    0.107613
    72  H    0.105320
    73  H    0.301098
    74  H    0.310733
    75  H    0.093348
    76  H    0.102716
    77  H    0.127320
    78  H    0.069700
    79  H    0.117605
    80  H    0.134457
    81  H    0.121931
    82  H    0.110952
    83  H    0.088102
    84  H    0.074920
    85  H    0.083990
    86  H    0.070326
    87  H    0.054879
    88  H    0.073864
    89  H    0.115214
    90  H    0.115628
    91  H    0.117269
    92  H    0.132362
    93  H    0.130435
    94  H    0.102269
    95  H    0.085158
    96  H    0.048360
    97  H    0.085989
    98  H    0.094948
 Sum of Mulliken charges =  -0.00000

 Dipole moment (field-independent basis, Debye):
    X=             -1.0518    Y=             -1.7891    Z=              1.4277  Tot=              2.5190
 Quadrupole moment (field-independent basis, Debye-Ang):
   XX=           -268.4111   YY=           -241.2869   ZZ=           -264.4222
   XY=              1.6070   XZ=            -13.5390   YZ=              2.6733

 Normal termination of Gaussian 16 at Tue Jul 16 01:44:36 2019.
