 Gaussian 16, Revision A.03,
 Gaussian 16:  ES64L-G16RevA.03 25-Dec-2016

 -------------------------------------
 # td=(NStates=1) CAM-B3LYP/6-31G(d,p)
 -------------------------------------

 --
 TD
 --
 Symbolic Z-matrix:
 Charge =  0 Multiplicity = 1

                         Standard orientation:
 ---------------------------------------------------------------------
 Center     Atomic      Atomic             Coordinates (Angstroms)
 Number     Number       Type             X           Y           Z
 ---------------------------------------------------------------------
      1          8           0       14.636259   -2.277383   -0.262626
      2          8           0      -14.729514    2.127722    0.926695
      3          6           0       11.111971   -1.460948    1.115545
      4          6           0      -12.360829   -0.997491    0.725266
      5          6           0       12.688162   -1.814197    1.163265
      6          6           0      -13.715967   -0.120278    0.641256
      7          6           0       13.284820   -1.887286   -0.242010
      8          6           0      -13.544236    1.337375    0.993016
      9          6           0       10.986375   -0.318574    0.164212
     10          6           0      -11.245206   -0.311172   -0.030635
     11          6           0       13.275167   -0.610205   -1.007686
     12          6           0      -12.656151    1.883995   -0.168494
     13          6           0       11.952361    0.051783   -0.784746
     14          6           0      -11.347637    1.043015   -0.545267
     15          6           0       10.784090   -0.750928    2.541304
     16          6           0       10.323521   -2.592720    0.654424
     17          6           0      -11.950589   -1.102655    2.203020
     18          6           0      -12.716905   -2.287828    0.005981
     19          6           0        9.779733    0.437120    0.261792
     20          6           0      -10.005522   -1.090424   -0.369041
     21          6           0       11.603006    1.141732   -1.836283
     22          6           0      -10.466524    1.768806   -1.502573
     23          6           0        9.334553    1.793037    0.091788
     24          6           0       -8.797283   -0.653813   -0.354645
     25          6           0        8.041066    2.400607    0.135066
     26          6           0       -7.541057   -1.397752   -0.605370
     27          6           0        7.898417    3.819186    0.351142
     28          6           0       -7.507728   -2.854333   -0.986411
     29          6           0        6.893647    1.581918    0.095594
     30          6           0       -6.328666   -0.741072   -0.452595
     31          6           0        5.516428    2.033890    0.162867
     32          6           0       -5.098151   -1.150427   -0.712139
     33          6           0        4.397714    1.268820   -0.069772
     34          6           0       -3.883578   -0.422224   -0.462183
     35          6           0        3.049068    1.665350    0.021277
     36          6           0       -2.561428   -0.863751   -0.616108
     37          6           0        2.722606    3.143561    0.240963
     38          6           0       -2.304215   -2.432741   -0.968006
     39          6           0        2.060945    0.735257   -0.217776
     40          6           0       -1.536029   -0.017794   -0.381015
     41          6           0        0.688298    0.874517   -0.177588
     42          6           0       -0.159132   -0.189827   -0.435389
     43          1           0       13.210466   -1.070976    1.514711
     44          1           0       12.693015   -2.810124    1.631875
     45          1           0      -14.295391   -0.497379    1.390152
     46          1           0      -14.084078   -0.388497   -0.234938
     47          1           0       12.779477   -2.628709   -0.836198
     48          1           0      -12.985242    1.400564    1.961052
     49          1           0       14.145242    0.128507   -0.823406
     50          1           0       13.272425   -0.828261   -2.131663
     51          1           0      -13.172330    1.950835   -1.187037
     52          1           0      -12.366853    2.879678    0.067468
     53          1           0       10.824414   -1.486665    3.347044
     54          1           0        9.743931   -0.565049    2.712005
     55          1           0       11.472757    0.181869    2.541722
     56          1           0       10.647355   -2.844883   -0.123590
     57          1           0       10.414043   -3.295879    1.463622
     58          1           0        9.200703   -2.483349    0.643284
     59          1           0      -11.837714    0.064565    2.520013
     60          1           0      -11.091028   -1.744892    2.242284
     61          1           0      -12.754518   -1.430360    2.923631
     62          1           0      -13.497285   -2.879298    0.697008
     63          1           0      -11.885766   -2.904874   -0.062666
     64          1           0      -13.065817   -2.087911   -1.008373
     65          1           0        9.046682   -0.179351    0.689403
     66          1           0      -10.300699   -2.169045   -0.254110
     67          1           0       10.512775    1.398894   -1.771203
     68          1           0       12.043766    2.113122   -1.733064
     69          1           0       11.903865    1.098541   -2.941913
     70          1           0      -10.826450    2.170620   -2.356798
     71          1           0       -9.715946    1.068733   -1.876825
     72          1           0       -9.781416    2.452151   -0.816183
     73          1           0       14.877838   -3.124890    0.381688
     74          1           0      -15.264682    1.806996    1.699861
     75          1           0       10.227028    2.446269   -0.057076
     76          1           0       -8.496924    0.364236   -0.036353
     77          1           0        8.909254    4.202824    0.337526
     78          1           0        7.275974    4.388095   -0.414724
     79          1           0        7.487789    3.749304    1.411929
     80          1           0       -8.243273   -3.217873   -0.246146
     81          1           0       -7.899180   -3.076579   -1.891707
     82          1           0       -6.357974   -3.271129   -1.089339
     83          1           0        7.098713    0.574555   -0.380937
     84          1           0       -6.518636    0.365217   -0.387879
     85          1           0        5.272926    3.149497    0.482028
     86          1           0       -5.106150   -2.191035   -1.258336
     87          1           0        4.697963    0.277577   -0.451435
     88          1           0       -4.084860    0.539420   -0.015337
     89          1           0        2.697140    3.362116    1.439474
     90          1           0        1.739427    3.553241   -0.213988
     91          1           0        3.814306    3.849094   -0.072431
     92          1           0       -2.521655   -2.965459   -0.139104
     93          1           0       -3.048492   -2.583758   -1.805928
     94          1           0       -1.174512   -2.534952   -1.433307
     95          1           0        2.604119   -0.224611   -0.478957
     96          1           0       -1.820065    0.985253    0.087059
     97          1           0        0.100625    1.928260    0.049440
     98          1           0        0.238271   -1.236120   -0.868125
 ---------------------------------------------------------------------

 SCF Done:  E(RCAM-B3LYP) =  -1706.90147302     A.U. after   15 cycles

 Excitation energies and oscillator strengths:

 Excited State   1:      Singlet-A      1.9932 eV  622.03 nm  f=3.8325  <S**2>=0.000
     155 ->158         0.17100
     156 ->157         0.68506
 This state for optimization and/or second-order correction.
 Total Energy, E(TD-HF/TD-DFT) =  -1706.82822398
 Copying the excited state density for this state as the 1-particle RhoCI density.

 The electronic state is 1-A.
 Alpha  occ. eigenvalues --  -19.22048 -19.21266 -10.30810 -10.29690 -10.29075
 Alpha  occ. eigenvalues --  -10.28001 -10.27717 -10.27672 -10.27672 -10.27636
 Alpha  occ. eigenvalues --  -10.27386 -10.27244 -10.27203 -10.27186 -10.27114
 Alpha  occ. eigenvalues --  -10.26850 -10.26827 -10.26647 -10.26607 -10.26590
 Alpha  occ. eigenvalues --  -10.26535 -10.26109 -10.26060 -10.26045 -10.25986
 Alpha  occ. eigenvalues --  -10.25950 -10.25899 -10.25853 -10.25807 -10.25799
 Alpha  occ. eigenvalues --  -10.25743 -10.25706 -10.25650 -10.25482 -10.25391
 Alpha  occ. eigenvalues --  -10.25174 -10.25130 -10.24989 -10.24639 -10.24638
 Alpha  occ. eigenvalues --  -10.23122 -10.22960  -1.09335  -1.07665  -0.94198
 Alpha  occ. eigenvalues --   -0.93080  -0.91937  -0.91465  -0.90683  -0.89833
 Alpha  occ. eigenvalues --   -0.87315  -0.87115  -0.86142  -0.85424  -0.84870
 Alpha  occ. eigenvalues --   -0.83034  -0.81758  -0.80282  -0.80118  -0.78187
 Alpha  occ. eigenvalues --   -0.77440  -0.76951  -0.76483  -0.76186  -0.75909
 Alpha  occ. eigenvalues --   -0.75692  -0.74761  -0.74397  -0.73068  -0.70675
 Alpha  occ. eigenvalues --   -0.69080  -0.67389  -0.66015  -0.64982  -0.64736
 Alpha  occ. eigenvalues --   -0.63537  -0.62315  -0.60643  -0.59525  -0.59001
 Alpha  occ. eigenvalues --   -0.58802  -0.58603  -0.58463  -0.57194  -0.56234
 Alpha  occ. eigenvalues --   -0.55480  -0.55174  -0.54478  -0.54061  -0.53736
 Alpha  occ. eigenvalues --   -0.53286  -0.52687  -0.52492  -0.51961  -0.51463
 Alpha  occ. eigenvalues --   -0.50953  -0.50750  -0.50250  -0.49917  -0.49519
 Alpha  occ. eigenvalues --   -0.49489  -0.49273  -0.48765  -0.48416  -0.48281
 Alpha  occ. eigenvalues --   -0.47872  -0.47321  -0.47224  -0.46707  -0.45971
 Alpha  occ. eigenvalues --   -0.45305  -0.45140  -0.45100  -0.44918  -0.44733
 Alpha  occ. eigenvalues --   -0.44605  -0.44266  -0.43961  -0.43722  -0.43352
 Alpha  occ. eigenvalues --   -0.43178  -0.43001  -0.42501  -0.42122  -0.42036
 Alpha  occ. eigenvalues --   -0.41773  -0.41715  -0.41394  -0.41044  -0.40972
 Alpha  occ. eigenvalues --   -0.40394  -0.40350  -0.40139  -0.39717  -0.39495
 Alpha  occ. eigenvalues --   -0.38919  -0.38119  -0.37997  -0.37886  -0.37384
 Alpha  occ. eigenvalues --   -0.37093  -0.36549  -0.36212  -0.36115  -0.36028
 Alpha  occ. eigenvalues --   -0.35557  -0.34514  -0.34049  -0.32542  -0.32452
 Alpha  occ. eigenvalues --   -0.31437  -0.29648  -0.27654  -0.25572  -0.22331
 Alpha  occ. eigenvalues --   -0.18623
 Alpha virt. eigenvalues --   -0.06136  -0.01884   0.01965   0.05381   0.07616
 Alpha virt. eigenvalues --    0.09759   0.10263   0.10451   0.11297   0.11467
 Alpha virt. eigenvalues --    0.12073   0.12508   0.12649   0.12803   0.13637

 Mulliken charges:
               1
     1  O   -0.584257
     2  O   -0.549310
     3  C   -0.049096
     4  C   -0.055651
     5  C   -0.173356
     6  C   -0.150437
     7  C    0.186449
     8  C    0.151573
     9  C    0.066869
    10  C    0.057763
    11  C   -0.226693
    12  C   -0.212648
    13  C    0.052770
    14  C    0.026544
    15  C   -0.310630
    16  C   -0.265469
    17  C   -0.282559
    18  C   -0.306235
    19  C   -0.101062
    20  C   -0.131865
    21  C   -0.392479
    22  C   -0.360719
    23  C   -0.147607
    24  C   -0.077282
    25  C    0.101836
    26  C    0.086868
    27  C   -0.366326
    28  C   -0.357945
    29  C   -0.144858
    30  C   -0.116401
    31  C   -0.092709
    32  C   -0.093625
    33  C   -0.118679
    34  C   -0.123588
    35  C    0.143964
    36  C    0.081743
    37  C   -0.355201
    38  C   -0.344514
    39  C   -0.122788
    40  C   -0.120183
    41  C   -0.101484
    42  C   -0.060269
    43  H    0.108475
    44  H    0.082308
    45  H    0.073986
    46  H    0.102188
    47  H    0.079256
    48  H    0.077756
    49  H    0.121089
    50  H    0.116849
    51  H    0.108886
    52  H    0.106158
    53  H    0.089662
    54  H    0.112697
    55  H    0.113452
    56  H    0.107321
    57  H    0.098641
    58  H    0.103135
    59  H    0.087451
    60  H    0.109184
    61  H    0.093806
    62  H    0.085432
    63  H    0.108005
    64  H    0.119087
    65  H    0.073053
    66  H    0.066645
    67  H    0.125295
    68  H    0.113116
    69  H    0.093839
    70  H    0.126132
    71  H    0.121610
    72  H    0.106598
    73  H    0.298155
    74  H    0.304062
    75  H    0.083577
    76  H    0.088911
    77  H    0.109065
    78  H    0.122893
    79  H    0.136025
    80  H    0.115395
    81  H    0.136019
    82  H    0.091536
    83  H    0.083808
    84  H    0.071625
    85  H    0.068225
    86  H    0.065234
    87  H    0.080703
    88  H    0.083756
    89  H    0.105173
    90  H    0.118331
    91  H    0.073656
    92  H    0.146198
    93  H    0.116620
    94  H    0.089216
    95  H    0.082503
    96  H    0.070456
    97  H    0.087098
    98  H    0.080196
 Sum of Mulliken charges =  -0.00000

 Dipole moment (field-independent basis, Debye):
    X=             -0.6444    Y=             -2.0674    Z=              1.6079  Tot=              2.6972
 Quadrupole moment (field-independent basis, Debye-Ang):
   XX=           -251.4076   YY=           -246.8621   ZZ=           -259.5453
   XY=              7.3593   XZ=             -1.6703   YZ=             -0.7484

 Normal termination of Gaussian 16 at Thu Jul 11 05:29:26 2019.
