 Gaussian 16, Revision A.03,
 Gaussian 16:  ES64L-G16RevA.03 25-Dec-2016

 -------------------------------------
 # td=(NStates=1) CAM-B3LYP/6-31G(d,p)
 -------------------------------------

 --
 TD
 --
 Symbolic Z-matrix:
 Charge =  0 Multiplicity = 1

                         Standard orientation:
 ---------------------------------------------------------------------
 Center     Atomic      Atomic             Coordinates (Angstroms)
 Number     Number       Type             X           Y           Z
 ---------------------------------------------------------------------
      1          8           0       14.678641   -2.269816   -0.188326
      2          8           0      -14.586621    2.098181    1.286843
      3          6           0       11.289305   -1.428341    1.131900
      4          6           0      -12.275988   -1.006445    0.654287
      5          6           0       12.734160   -1.880814    1.192632
      6          6           0      -13.621659   -0.225927    0.968255
      7          6           0       13.305429   -1.861942   -0.264992
      8          6           0      -13.352182    1.271151    1.171492
      9          6           0       10.910043   -0.280640    0.068132
     10          6           0      -11.281338   -0.247644   -0.221885
     11          6           0       13.225996   -0.465346   -0.795555
     12          6           0      -12.655542    1.887957    0.031326
     13          6           0       11.865112    0.237341   -0.776076
     14          6           0      -11.474620    1.109827   -0.452922
     15          6           0       10.836998   -0.905214    2.529421
     16          6           0       10.361545   -2.665828    0.792331
     17          6           0      -11.624328   -1.258016    2.082150
     18          6           0      -12.587964   -2.370717    0.017124
     19          6           0        9.703670    0.367526    0.248055
     20          6           0      -10.068007   -0.951057   -0.589410
     21          6           0       11.574019    1.238658   -1.792948
     22          6           0      -10.651782    1.782657   -1.500102
     23          6           0        9.337892    1.707159    0.004907
     24          6           0       -8.841031   -0.556353   -0.482807
     25          6           0        8.133197    2.392404    0.067325
     26          6           0       -7.594975   -1.251891   -0.710080
     27          6           0        7.950558    3.865036    0.341599
     28          6           0       -7.791062   -2.729370   -1.000816
     29          6           0        6.903496    1.606462   -0.014212
     30          6           0       -6.421848   -0.662597   -0.638004
     31          6           0        5.514447    1.986655    0.112474
     32          6           0       -5.087377   -1.250848   -0.721037
     33          6           0        4.414645    1.204828   -0.122656
     34          6           0       -3.984744   -0.438615   -0.635740
     35          6           0        3.048230    1.630038    0.038713
     36          6           0       -2.641894   -0.924714   -0.647464
     37          6           0        2.861268    3.000203    0.361557
     38          6           0       -2.330207   -2.378762   -1.111607
     39          6           0        1.953201    0.719224   -0.321289
     40          6           0       -1.640239    0.040504   -0.400165
     41          6           0        0.576832    0.933237   -0.272829
     42          6           0       -0.286355   -0.149360   -0.547500
     43          1           0       13.398552   -1.223574    1.644289
     44          1           0       12.758201   -2.741349    1.693873
     45          1           0      -14.320809   -0.607795    1.888315
     46          1           0      -14.283741   -0.280952    0.018214
     47          1           0       12.940218   -2.423733   -1.089864
     48          1           0      -12.632406    1.496891    1.972666
     49          1           0       13.903792    0.199400   -0.281132
     50          1           0       13.619597   -0.666138   -1.846946
     51          1           0      -13.334889    2.042433   -0.701896
     52          1           0      -12.276441    2.832213    0.307820
     53          1           0       11.405790   -1.585493    3.322463
     54          1           0        9.765543   -1.083788    2.685701
     55          1           0       11.324348    0.217184    2.714144
     56          1           0       10.688042   -3.017567   -0.055523
     57          1           0       10.230870   -3.487470    1.479233
     58          1           0        9.318747   -2.321368    0.831579
     59          1           0      -11.350171   -0.291335    2.468389
     60          1           0      -10.481456   -1.564463    1.925419
     61          1           0      -12.116698   -1.715116    2.854568
     62          1           0      -13.472307   -2.914806    0.580828
     63          1           0      -11.838999   -3.029552    0.099358
     64          1           0      -12.831373   -2.302906   -1.019584
     65          1           0        8.928311   -0.341354    0.770379
     66          1           0       -9.945072   -2.011594   -0.826265
     67          1           0       10.483923    1.622971   -1.790489
     68          1           0       12.250968    2.070765   -1.588657
     69          1           0       11.761103    0.762745   -2.784866
     70          1           0      -11.299616    2.281296   -2.244477
     71          1           0       -9.777705    1.398013   -1.938824
     72          1           0      -10.197281    2.596905   -0.969620
     73          1           0       14.680562   -3.339858   -0.085972
     74          1           0      -15.023836    1.497540    2.028447
     75          1           0       10.083559    2.342986   -0.370536
     76          1           0       -8.621324    0.616000   -0.243544
     77          1           0        8.783867    4.445710    0.518557
     78          1           0        7.307537    4.527344   -0.365950
     79          1           0        7.373808    4.090340    1.411169
     80          1           0       -8.045422   -3.281504   -0.005494
     81          1           0       -8.569741   -2.938324   -1.687912
     82          1           0       -6.975381   -3.178220   -1.263029
     83          1           0        7.060407    0.605527   -0.277493
     84          1           0       -6.453597    0.496560   -0.305624
     85          1           0        5.415623    2.989113    0.609182
     86          1           0       -4.904157   -2.209363   -1.007787
     87          1           0        4.464290    0.264120   -0.507156
     88          1           0       -4.047654    0.618523   -0.261143
     89          1           0        3.310292    3.333559    1.163833
     90          1           0        1.759610    3.180928    0.581988
     91          1           0        3.256924    3.528199   -0.475625
     92          1           0       -3.036452   -3.060440   -0.549996
     93          1           0       -2.417289   -2.259882   -2.196683
     94          1           0       -1.242098   -2.700963   -0.821972
     95          1           0        2.372775   -0.376280   -0.956292
     96          1           0       -1.860676    0.990579   -0.084613
     97          1           0        0.192157    1.787692    0.493075
     98          1           0        0.059612   -1.049807   -1.008174
 ---------------------------------------------------------------------

 SCF Done:  E(RCAM-B3LYP) =  -1706.95883948     A.U. after   15 cycles

 Excitation energies and oscillator strengths:

 Excited State   1:      Singlet-A      1.9634 eV  631.48 nm  f=3.4258  <S**2>=0.000
     155 ->158         0.15132
     156 ->157         0.69208
 This state for optimization and/or second-order correction.
 Total Energy, E(TD-HF/TD-DFT) =  -1706.88668584
 Copying the excited state density for this state as the 1-particle RhoCI density.

 The electronic state is 1-A.
 Alpha  occ. eigenvalues --  -19.21949 -19.21521 -10.30090 -10.29990 -10.28828
 Alpha  occ. eigenvalues --  -10.28333 -10.27924 -10.27845 -10.27787 -10.27762
 Alpha  occ. eigenvalues --  -10.27697 -10.27680 -10.27486 -10.26965 -10.26864
 Alpha  occ. eigenvalues --  -10.26834 -10.26809 -10.26672 -10.26602 -10.26514
 Alpha  occ. eigenvalues --  -10.26422 -10.26410 -10.26390 -10.26367 -10.26099
 Alpha  occ. eigenvalues --  -10.25867 -10.25629 -10.25552 -10.25482 -10.25475
 Alpha  occ. eigenvalues --  -10.25351 -10.25344 -10.25327 -10.25091 -10.24655
 Alpha  occ. eigenvalues --  -10.24123 -10.23950 -10.23875 -10.23728 -10.23704
 Alpha  occ. eigenvalues --  -10.23500 -10.23386  -1.07494  -1.06777  -0.93580
 Alpha  occ. eigenvalues --   -0.93452  -0.92191  -0.91562  -0.90809  -0.89600
 Alpha  occ. eigenvalues --   -0.87864  -0.87326  -0.87033  -0.85665  -0.85025
 Alpha  occ. eigenvalues --   -0.83255  -0.82251  -0.80654  -0.79866  -0.78875
 Alpha  occ. eigenvalues --   -0.77324  -0.77249  -0.76649  -0.76607  -0.76059
 Alpha  occ. eigenvalues --   -0.75842  -0.75515  -0.74734  -0.73404  -0.70599
 Alpha  occ. eigenvalues --   -0.68880  -0.67142  -0.65710  -0.65001  -0.64394
 Alpha  occ. eigenvalues --   -0.63119  -0.62736  -0.62117  -0.60632  -0.59917
 Alpha  occ. eigenvalues --   -0.59428  -0.58609  -0.58437  -0.57409  -0.56057
 Alpha  occ. eigenvalues --   -0.55620  -0.54974  -0.54409  -0.54112  -0.53613
 Alpha  occ. eigenvalues --   -0.53302  -0.52769  -0.51752  -0.51716  -0.51210
 Alpha  occ. eigenvalues --   -0.50895  -0.50663  -0.50185  -0.50070  -0.49955
 Alpha  occ. eigenvalues --   -0.49834  -0.49498  -0.48689  -0.48274  -0.48039
 Alpha  occ. eigenvalues --   -0.47744  -0.47475  -0.46874  -0.46660  -0.46291
 Alpha  occ. eigenvalues --   -0.46208  -0.45907  -0.45739  -0.45507  -0.45173
 Alpha  occ. eigenvalues --   -0.44989  -0.44668  -0.44017  -0.43806  -0.43493
 Alpha  occ. eigenvalues --   -0.43110  -0.42779  -0.42591  -0.42414  -0.41839
 Alpha  occ. eigenvalues --   -0.41629  -0.41487  -0.41366  -0.41099  -0.40841
 Alpha  occ. eigenvalues --   -0.40491  -0.40158  -0.39958  -0.39734  -0.39546
 Alpha  occ. eigenvalues --   -0.39112  -0.38811  -0.38498  -0.37788  -0.37365
 Alpha  occ. eigenvalues --   -0.37347  -0.37009  -0.36899  -0.36762  -0.36036
 Alpha  occ. eigenvalues --   -0.35675  -0.35515  -0.34850  -0.32666  -0.32458
 Alpha  occ. eigenvalues --   -0.31636  -0.30110  -0.28357  -0.25577  -0.22945
 Alpha  occ. eigenvalues --   -0.18707
 Alpha virt. eigenvalues --   -0.06422  -0.01416   0.02102   0.05375   0.07523
 Alpha virt. eigenvalues --    0.09959   0.10110   0.10581   0.10781   0.11945
 Alpha virt. eigenvalues --    0.12503   0.13001   0.13193   0.13535   0.14196

 Mulliken charges:
               1
     1  O   -0.576848
     2  O   -0.561654
     3  C   -0.024984
     4  C   -0.003942
     5  C   -0.162524
     6  C   -0.190761
     7  C    0.146687
     8  C    0.139727
     9  C    0.096939
    10  C    0.064795
    11  C   -0.225831
    12  C   -0.204958
    13  C    0.042110
    14  C    0.020296
    15  C   -0.283748
    16  C   -0.308180
    17  C   -0.314778
    18  C   -0.301873
    19  C   -0.100795
    20  C   -0.130434
    21  C   -0.368401
    22  C   -0.361152
    23  C   -0.146634
    24  C   -0.075355
    25  C    0.099403
    26  C    0.138608
    27  C   -0.376057
    28  C   -0.374623
    29  C   -0.124949
    30  C   -0.151182
    31  C   -0.094252
    32  C   -0.093151
    33  C   -0.078671
    34  C   -0.091083
    35  C    0.082990
    36  C    0.065103
    37  C   -0.365313
    38  C   -0.367974
    39  C   -0.111670
    40  C   -0.103830
    41  C   -0.114132
    42  C   -0.059280
    43  H    0.112918
    44  H    0.094085
    45  H    0.066760
    46  H    0.098613
    47  H    0.087294
    48  H    0.090593
    49  H    0.120402
    50  H    0.096869
    51  H    0.131292
    52  H    0.115755
    53  H    0.074876
    54  H    0.105014
    55  H    0.089378
    56  H    0.111727
    57  H    0.097211
    58  H    0.095895
    59  H    0.103480
    60  H    0.086069
    61  H    0.110494
    62  H    0.078679
    63  H    0.117013
    64  H    0.106960
    65  H    0.071369
    66  H    0.073220
    67  H    0.124382
    68  H    0.117584
    69  H    0.110701
    70  H    0.109107
    71  H    0.127497
    72  H    0.107922
    73  H    0.307293
    74  H    0.301527
    75  H    0.087953
    76  H    0.046166
    77  H    0.119168
    78  H    0.114501
    79  H    0.095629
    80  H    0.109281
    81  H    0.127667
    82  H    0.110295
    83  H    0.074392
    84  H    0.071238
    85  H    0.077658
    86  H    0.083882
    87  H    0.071051
    88  H    0.085228
    89  H    0.130776
    90  H    0.087515
    91  H    0.138143
    92  H    0.122766
    93  H    0.144173
    94  H    0.106699
    95  H    0.051116
    96  H    0.075944
    97  H    0.092820
    98  H    0.086320
 Sum of Mulliken charges =  -0.00000

 Dipole moment (field-independent basis, Debye):
    X=              0.9554    Y=             -2.4923    Z=              0.4055  Tot=              2.6998
 Quadrupole moment (field-independent basis, Debye-Ang):
   XX=           -291.7964   YY=           -240.8344   ZZ=           -260.6488
   XY=             10.0265   XZ=            -10.0941   YZ=              2.7388

 Normal termination of Gaussian 16 at Mon Jul 15 09:25:18 2019.
