 Gaussian 16, Revision A.03,
 Gaussian 16:  ES64L-G16RevA.03 25-Dec-2016

 -------------------------------------
 # td=(NStates=1) CAM-B3LYP/6-31G(d,p)
 -------------------------------------

 --
 TD
 --
 Symbolic Z-matrix:
 Charge =  0 Multiplicity = 1

                         Standard orientation:
 ---------------------------------------------------------------------
 Center     Atomic      Atomic             Coordinates (Angstroms)
 Number     Number       Type             X           Y           Z
 ---------------------------------------------------------------------
      1          8           0       14.603101   -2.372970   -0.273481
      2          8           0      -14.720655    1.729192    1.079949
      3          6           0       11.091025   -1.520820    1.011774
      4          6           0      -12.315038   -1.132047    0.737497
      5          6           0       12.569908   -1.902748    1.043649
      6          6           0      -13.706904   -0.365827    0.670182
      7          6           0       13.230500   -1.873288   -0.308554
      8          6           0      -13.497366    1.182426    0.958680
      9          6           0       10.944810   -0.317014    0.115390
     10          6           0      -11.273340   -0.339915   -0.132701
     11          6           0       13.255282   -0.469428   -0.939504
     12          6           0      -12.669152    1.778720   -0.181466
     13          6           0       11.888116    0.053740   -0.766969
     14          6           0      -11.507564    0.991935   -0.437303
     15          6           0       10.653646   -1.281941    2.366707
     16          6           0       10.393081   -2.761891    0.328633
     17          6           0      -11.896613   -1.409972    2.134613
     18          6           0      -12.747421   -2.476703    0.126388
     19          6           0        9.621890    0.251629    0.146025
     20          6           0      -10.056495   -0.999070   -0.287095
     21          6           0       11.723668    1.227763   -1.721796
     22          6           0      -10.683910    1.647415   -1.587863
     23          6           0        9.424273    1.616981    0.270002
     24          6           0       -8.740602   -0.401639   -0.481813
     25          6           0        8.093570    2.314551    0.200812
     26          6           0       -7.517142   -1.141613   -0.651894
     27          6           0        7.982685    3.687050    0.614544
     28          6           0       -7.580040   -2.668244   -0.875229
     29          6           0        6.924488    1.496845    0.049400
     30          6           0       -6.314776   -0.459754   -0.543521
     31          6           0        5.688807    1.950680    0.230621
     32          6           0       -4.992199   -0.892832   -0.784232
     33          6           0        4.507469    1.238420   -0.080723
     34          6           0       -3.885564   -0.128907   -0.557737
     35          6           0        3.217414    1.750553    0.108053
     36          6           0       -2.569010   -0.462002   -0.735815
     37          6           0        3.006064    3.031988    0.672204
     38          6           0       -2.293524   -1.963807   -1.156140
     39          6           0        2.053361    0.887904   -0.132947
     40          6           0       -1.552683    0.371437   -0.297305
     41          6           0        0.652907    1.211966   -0.285496
     42          6           0       -0.207560    0.220934   -0.520367
     43          1           0       13.159569   -1.298281    1.765234
     44          1           0       12.585743   -2.902373    1.660270
     45          1           0      -14.388720   -0.814685    1.386751
     46          1           0      -14.396012   -0.504220   -0.368021
     47          1           0       12.745616   -2.493557   -1.027629
     48          1           0      -13.060961    1.289661    2.049232
     49          1           0       14.090853    0.062802   -0.532964
     50          1           0       13.565010   -0.609119   -1.932441
     51          1           0      -13.518746    1.566084   -0.988804
     52          1           0      -12.589006    2.738305    0.122433
     53          1           0       10.523312   -2.072226    3.232764
     54          1           0        9.537662   -0.919530    2.271758
     55          1           0       11.342004   -0.408151    2.852421
     56          1           0       10.581791   -3.135670   -0.806211
     57          1           0       10.794308   -3.545036    0.979364
     58          1           0        9.088674   -2.636028    0.455217
     59          1           0      -11.804536   -0.467812    2.601587
     60          1           0      -10.892413   -1.993224    2.119754
     61          1           0      -12.527980   -2.095873    2.588733
     62          1           0      -13.460131   -2.972193    0.674594
     63          1           0      -11.852532   -3.071901    0.064548
     64          1           0      -13.107713   -2.351366   -0.851724
     65          1           0        8.982936   -0.350346    0.479343
     66          1           0      -10.100225   -1.938382   -0.516757
     67          1           0       10.777476    1.475539   -1.832474
     68          1           0       12.235570    2.222400   -1.522292
     69          1           0       11.753291    0.934123   -2.693075
     70          1           0      -11.288237    2.364410   -2.138918
     71          1           0      -10.055963    1.031651   -2.279186
     72          1           0      -10.029156    2.364942   -1.214263
     73          1           0       14.378469   -3.237701    0.072306
     74          1           0      -15.297740    1.470060    1.758744
     75          1           0       10.296562    2.394110    0.636915
     76          1           0       -8.565332    0.649965   -0.466347
     77          1           0        8.883837    4.234575    0.765679
     78          1           0        7.261943    4.468750   -0.003351
     79          1           0        7.438427    3.853238    1.603464
     80          1           0       -8.186291   -3.055133   -0.082518
     81          1           0       -8.039724   -2.939861   -1.825056
     82          1           0       -6.536154   -3.359097   -0.953872
     83          1           0        6.999769    0.418117   -0.241339
     84          1           0       -6.495930    0.620275   -0.139883
     85          1           0        5.485337    3.065194    0.559666
     86          1           0       -4.855293   -1.902649   -1.269849
     87          1           0        4.727663    0.298067   -0.581495
     88          1           0       -4.058330    0.846061   -0.158838
     89          1           0        3.506834    3.220074    1.570080
     90          1           0        2.000942    3.203383    0.786582
     91          1           0        3.349130    4.060797    0.054815
     92          1           0       -2.505040   -2.677712   -0.088116
     93          1           0       -3.107909   -2.215755   -1.902166
     94          1           0       -1.208734   -2.073390   -1.512040
     95          1           0        2.484129   -0.159754   -0.276430
     96          1           0       -1.878371    1.317481   -0.120983
     97          1           0        0.550223    2.198060   -0.075510
     98          1           0        0.124190   -0.677714   -1.073677
 ---------------------------------------------------------------------

 SCF Done:  E(RCAM-B3LYP) =  -1706.88965606     A.U. after   16 cycles

 Excitation energies and oscillator strengths:

 Excited State   1:      Singlet-A      1.7692 eV  700.78 nm  f=3.6709  <S**2>=0.000
     155 ->158         0.15359
     156 ->157         0.69334
     156 <-157        -0.10638
 This state for optimization and/or second-order correction.
 Total Energy, E(TD-HF/TD-DFT) =  -1706.82463818
 Copying the excited state density for this state as the 1-particle RhoCI density.

 The electronic state is 1-A.
 Alpha  occ. eigenvalues --  -19.20192 -19.20180 -10.30886 -10.29363 -10.28646
 Alpha  occ. eigenvalues --  -10.28253 -10.28115 -10.27943 -10.27766 -10.27494
 Alpha  occ. eigenvalues --  -10.27345 -10.27319 -10.27262 -10.27225 -10.27163
 Alpha  occ. eigenvalues --  -10.27001 -10.26964 -10.26911 -10.26880 -10.26705
 Alpha  occ. eigenvalues --  -10.26471 -10.26380 -10.26141 -10.26110 -10.26102
 Alpha  occ. eigenvalues --  -10.26063 -10.25950 -10.25799 -10.25637 -10.25633
 Alpha  occ. eigenvalues --  -10.25559 -10.25438 -10.25385 -10.25369 -10.25047
 Alpha  occ. eigenvalues --  -10.25029 -10.24338 -10.24249 -10.23896 -10.23787
 Alpha  occ. eigenvalues --  -10.22779 -10.22036  -1.11776  -1.08368  -0.94812
 Alpha  occ. eigenvalues --   -0.93485  -0.92867  -0.91897  -0.90609  -0.89789
 Alpha  occ. eigenvalues --   -0.88135  -0.88010  -0.87759  -0.85978  -0.85065
 Alpha  occ. eigenvalues --   -0.83316  -0.82205  -0.80109  -0.79671  -0.78113
 Alpha  occ. eigenvalues --   -0.76829  -0.76594  -0.76406  -0.76301  -0.75856
 Alpha  occ. eigenvalues --   -0.75348  -0.74979  -0.74700  -0.73365  -0.71269
 Alpha  occ. eigenvalues --   -0.69840  -0.68192  -0.66441  -0.65542  -0.64657
 Alpha  occ. eigenvalues --   -0.64070  -0.62919  -0.62541  -0.60310  -0.59839
 Alpha  occ. eigenvalues --   -0.59650  -0.58521  -0.58353  -0.58041  -0.57180
 Alpha  occ. eigenvalues --   -0.56343  -0.55729  -0.55497  -0.54815  -0.54153
 Alpha  occ. eigenvalues --   -0.53492  -0.53074  -0.52170  -0.52109  -0.51602
 Alpha  occ. eigenvalues --   -0.50706  -0.50587  -0.50418  -0.49691  -0.49197
 Alpha  occ. eigenvalues --   -0.48912  -0.48543  -0.48290  -0.48022  -0.47773
 Alpha  occ. eigenvalues --   -0.47627  -0.47184  -0.46866  -0.46408  -0.46093
 Alpha  occ. eigenvalues --   -0.45787  -0.45637  -0.45435  -0.45125  -0.44783
 Alpha  occ. eigenvalues --   -0.44694  -0.44478  -0.44113  -0.43880  -0.43802
 Alpha  occ. eigenvalues --   -0.43577  -0.43389  -0.42808  -0.42627  -0.42356
 Alpha  occ. eigenvalues --   -0.42295  -0.41236  -0.41218  -0.40946  -0.40775
 Alpha  occ. eigenvalues --   -0.40621  -0.40225  -0.40142  -0.39937  -0.39575
 Alpha  occ. eigenvalues --   -0.39534  -0.38989  -0.38474  -0.38380  -0.38160
 Alpha  occ. eigenvalues --   -0.37955  -0.37615  -0.36257  -0.36186  -0.35475
 Alpha  occ. eigenvalues --   -0.35074  -0.34037  -0.33166  -0.32250  -0.31851
 Alpha  occ. eigenvalues --   -0.30205  -0.29699  -0.28197  -0.25737  -0.22434
 Alpha  occ. eigenvalues --   -0.18419
 Alpha virt. eigenvalues --   -0.07279  -0.02707   0.01251   0.04824   0.07421
 Alpha virt. eigenvalues --    0.09197   0.10432   0.11099   0.11345   0.11925
 Alpha virt. eigenvalues --    0.12831   0.12866   0.12905   0.13856   0.14089

 Mulliken charges:
               1
     1  O   -0.565689
     2  O   -0.552510
     3  C   -0.028746
     4  C   -0.031597
     5  C   -0.201252
     6  C   -0.187915
     7  C    0.136007
     8  C    0.166902
     9  C    0.105119
    10  C    0.078795
    11  C   -0.205129
    12  C   -0.209267
    13  C    0.018219
    14  C    0.053066
    15  C   -0.293836
    16  C   -0.271550
    17  C   -0.279269
    18  C   -0.303817
    19  C   -0.103778
    20  C   -0.119656
    21  C   -0.358767
    22  C   -0.375625
    23  C   -0.103744
    24  C   -0.112707
    25  C    0.107785
    26  C    0.116238
    27  C   -0.394611
    28  C   -0.372337
    29  C   -0.116690
    30  C   -0.145326
    31  C   -0.065769
    32  C   -0.083280
    33  C   -0.128688
    34  C   -0.088296
    35  C    0.118775
    36  C    0.089507
    37  C   -0.376881
    38  C   -0.339588
    39  C   -0.140483
    40  C   -0.110546
    41  C   -0.067484
    42  C   -0.071303
    43  H    0.103257
    44  H    0.065199
    45  H    0.071916
    46  H    0.064987
    47  H    0.087613
    48  H    0.047535
    49  H    0.125901
    50  H    0.118452
    51  H    0.122729
    52  H    0.123200
    53  H    0.101381
    54  H    0.088529
    55  H    0.097174
    56  H    0.106029
    57  H    0.106151
    58  H    0.054346
    59  H    0.106653
    60  H    0.090342
    61  H    0.104985
    62  H    0.106985
    63  H    0.084574
    64  H    0.107215
    65  H    0.077553
    66  H    0.080403
    67  H    0.116455
    68  H    0.105494
    69  H    0.105583
    70  H    0.104750
    71  H    0.121739
    72  H    0.117263
    73  H    0.298696
    74  H    0.305858
    75  H    0.081490
    76  H    0.089386
    77  H    0.115861
    78  H    0.097516
    79  H    0.122289
    80  H    0.131316
    81  H    0.126217
    82  H    0.085376
    83  H    0.087127
    84  H    0.074154
    85  H    0.074801
    86  H    0.081633
    87  H    0.082600
    88  H    0.077372
    89  H    0.135902
    90  H    0.108670
    91  H    0.077411
    92  H    0.093999
    93  H    0.117254
    94  H    0.105358
    95  H    0.072200
    96  H    0.078522
    97  H    0.085758
    98  H    0.094564
 Sum of Mulliken charges =  -0.00000

 Dipole moment (field-independent basis, Debye):
    X=             -3.2407    Y=             -0.7922    Z=              1.5445  Tot=              3.6763
 Quadrupole moment (field-independent basis, Debye-Ang):
   XX=           -287.3040   YY=           -243.1399   ZZ=           -259.5602
   XY=              8.7429   XZ=             -3.8654   YZ=              3.9523

 Normal termination of Gaussian 16 at Sun Jul 14 17:26:43 2019.
