 Gaussian 16, Revision A.03,
 Gaussian 16:  ES64L-G16RevA.03 25-Dec-2016

 -------------------------------------
 # td=(NStates=1) CAM-B3LYP/6-31G(d,p)
 -------------------------------------

 --
 TD
 --
 Symbolic Z-matrix:
 Charge =  0 Multiplicity = 1

                         Standard orientation:
 ---------------------------------------------------------------------
 Center     Atomic      Atomic             Coordinates (Angstroms)
 Number     Number       Type             X           Y           Z
 ---------------------------------------------------------------------
      1          8           0       14.739421   -2.146411   -0.419932
      2          8           0      -14.767863    1.941150    0.719659
      3          6           0       11.247853   -1.420235    0.831570
      4          6           0      -12.366149   -0.977412    0.560210
      5          6           0       12.730449   -1.851377    0.921430
      6          6           0      -13.781927   -0.231346    0.450128
      7          6           0       13.369544   -1.918730   -0.515556
      8          6           0      -13.527972    1.241227    0.633560
      9          6           0       11.044792   -0.237890   -0.037882
     10          6           0      -11.281773   -0.301338   -0.251809
     11          6           0       13.272027   -0.484600   -1.199657
     12          6           0      -12.727730    1.850874   -0.537160
     13          6           0       11.849513    0.076824   -0.989878
     14          6           0      -11.535496    0.930831   -0.775906
     15          6           0       10.951124   -0.988488    2.262952
     16          6           0       10.327506   -2.654383    0.473986
     17          6           0      -11.996084   -1.126560    1.933855
     18          6           0      -12.576540   -2.466746   -0.031484
     19          6           0        9.669585    0.455883    0.111324
     20          6           0      -10.011884   -0.959620   -0.411233
     21          6           0       11.610195    1.205455   -2.018700
     22          6           0      -10.482624    1.733616   -1.623044
     23          6           0        9.337152    1.754383    0.004682
     24          6           0       -8.741077   -0.477819   -0.258558
     25          6           0        8.071614    2.255942    0.273300
     26          6           0       -7.490685   -1.260643   -0.405679
     27          6           0        7.909061    3.747715    0.557846
     28          6           0       -7.642371   -2.780975   -0.639296
     29          6           0        6.914841    1.552522    0.155112
     30          6           0       -6.393824   -0.538862   -0.289269
     31          6           0        5.611841    1.940395    0.443669
     32          6           0       -5.010208   -1.075877   -0.370107
     33          6           0        4.464416    1.263464    0.191213
     34          6           0       -3.956663   -0.301002   -0.187230
     35          6           0        3.129192    1.568634    0.322677
     36          6           0       -2.650676   -0.790509   -0.343444
     37          6           0        2.770547    3.005647    0.635456
     38          6           0       -2.418260   -2.187050   -0.630285
     39          6           0        2.132734    0.713708    0.140894
     40          6           0       -1.650985    0.158335   -0.149885
     41          6           0        0.724025    0.872652    0.102649
     42          6           0       -0.284234   -0.056618   -0.128726
     43          1           0       13.377296   -1.146041    1.603805
     44          1           0       12.709486   -3.080066    1.368515
     45          1           0      -14.517102   -0.623176    1.301016
     46          1           0      -14.265399   -0.445790   -0.500199
     47          1           0       12.738373   -2.662130   -1.138120
     48          1           0      -13.136789    1.530516    1.461792
     49          1           0       14.212859    0.174247   -0.784709
     50          1           0       13.552211   -0.726855   -2.214645
     51          1           0      -13.345983    2.014797   -1.582433
     52          1           0      -12.486180    2.813538   -0.294858
     53          1           0       11.275202   -1.777410    2.958742
     54          1           0        9.834373   -1.020600    2.417720
     55          1           0       11.475956   -0.095077    2.598754
     56          1           0       10.469363   -3.180098   -0.561503
     57          1           0       10.416030   -3.388026    1.103217
     58          1           0        9.326015   -2.486211    0.629379
     59          1           0      -12.109624   -0.073649    2.246423
     60          1           0      -10.947012   -1.538721    2.225907
     61          1           0      -12.799586   -1.800381    2.572961
     62          1           0      -13.427661   -2.979058    0.504605
     63          1           0      -11.737897   -3.063823    0.149823
     64          1           0      -12.730088   -2.448690   -1.051005
     65          1           0        8.733486   -0.125869    0.329697
     66          1           0      -10.064084   -1.927979   -0.649720
     67          1           0       10.321015    1.223479   -2.220005
     68          1           0       11.875279    2.144662   -1.626420
     69          1           0       12.048922    1.089314   -3.018318
     70          1           0      -10.849951    2.198432   -2.483936
     71          1           0       -9.780428    1.016160   -2.123388
     72          1           0       -9.807270    2.504238   -1.024984
     73          1           0       14.982413   -3.022375   -0.102531
     74          1           0      -15.341995    1.526540    1.302871
     75          1           0       10.091687    2.555363   -0.194947
     76          1           0       -8.465939    0.706066    0.031754
     77          1           0        8.926157    4.209680    0.707772
     78          1           0        7.320442    4.216287   -0.287659
     79          1           0        7.423852    3.942751    1.623621
     80          1           0       -8.318282   -3.415545    0.032181
     81          1           0       -7.948200   -3.041143   -1.862895
     82          1           0       -6.646985   -3.162599   -0.525595
     83          1           0        7.049556    0.591552   -0.288081
     84          1           0       -6.374259    0.557632   -0.257330
     85          1           0        5.557871    3.014152    0.850302
     86          1           0       -4.866694   -2.097869   -0.522735
     87          1           0        4.805314    0.319613   -0.001574
     88          1           0       -4.341360    0.733188    0.057755
     89          1           0        3.133459    3.260197    1.650514
     90          1           0        1.707652    3.379449    0.697558
     91          1           0        3.313378    3.788347    0.073030
     92          1           0       -2.828754   -2.821462   -0.043859
     93          1           0       -2.623358   -2.550949   -1.576684
     94          1           0       -1.466637   -2.366525   -0.568253
     95          1           0        2.414439   -0.259231   -0.283762
     96          1           0       -1.900067    1.118916   -0.190645
     97          1           0        0.419640    1.964272    0.241417
     98          1           0        0.178293   -1.064098   -0.428487
 ---------------------------------------------------------------------

 SCF Done:  E(RCAM-B3LYP) =  -1706.98061496     A.U. after   14 cycles

 Excitation energies and oscillator strengths:

 Excited State   1:      Singlet-A      2.4526 eV  505.51 nm  f=3.7208  <S**2>=0.000
     155 ->158         0.15839
     156 ->157         0.68670
 This state for optimization and/or second-order correction.
 Total Energy, E(TD-HF/TD-DFT) =  -1706.89048233
 Copying the excited state density for this state as the 1-particle RhoCI density.

 The electronic state is 1-A.
 Alpha  occ. eigenvalues --  -19.21201 -19.18874 -10.31086 -10.28479 -10.28325
 Alpha  occ. eigenvalues --  -10.27495 -10.27462 -10.27414 -10.27389 -10.27307
 Alpha  occ. eigenvalues --  -10.27209 -10.26949 -10.26853 -10.26823 -10.26798
 Alpha  occ. eigenvalues --  -10.26794 -10.26733 -10.26558 -10.26479 -10.26375
 Alpha  occ. eigenvalues --  -10.26317 -10.26220 -10.26187 -10.25958 -10.25949
 Alpha  occ. eigenvalues --  -10.25842 -10.25821 -10.25623 -10.25569 -10.25565
 Alpha  occ. eigenvalues --  -10.25541 -10.25411 -10.25097 -10.25074 -10.24836
 Alpha  occ. eigenvalues --  -10.24787 -10.24712 -10.24710 -10.24325 -10.23999
 Alpha  occ. eigenvalues --  -10.23554 -10.22344  -1.09951  -1.09116  -0.93795
 Alpha  occ. eigenvalues --   -0.93617  -0.93310  -0.92658  -0.91255  -0.90522
 Alpha  occ. eigenvalues --   -0.87597  -0.86601  -0.86260  -0.85749  -0.84769
 Alpha  occ. eigenvalues --   -0.83261  -0.82442  -0.80193  -0.79563  -0.79119
 Alpha  occ. eigenvalues --   -0.77691  -0.76871  -0.76190  -0.76168  -0.75901
 Alpha  occ. eigenvalues --   -0.75544  -0.74908  -0.74404  -0.73698  -0.71140
 Alpha  occ. eigenvalues --   -0.69210  -0.68163  -0.66270  -0.65204  -0.64694
 Alpha  occ. eigenvalues --   -0.63785  -0.62872  -0.62346  -0.61556  -0.60743
 Alpha  occ. eigenvalues --   -0.59430  -0.58540  -0.58108  -0.58014  -0.56496
 Alpha  occ. eigenvalues --   -0.55582  -0.55274  -0.55069  -0.54470  -0.54236
 Alpha  occ. eigenvalues --   -0.53141  -0.52780  -0.52039  -0.51497  -0.50841
 Alpha  occ. eigenvalues --   -0.50697  -0.50288  -0.49814  -0.49525  -0.49292
 Alpha  occ. eigenvalues --   -0.49119  -0.48881  -0.48345  -0.47984  -0.47647
 Alpha  occ. eigenvalues --   -0.47590  -0.47230  -0.46778  -0.46669  -0.46402
 Alpha  occ. eigenvalues --   -0.45982  -0.45743  -0.45330  -0.44934  -0.44629
 Alpha  occ. eigenvalues --   -0.44244  -0.44188  -0.43681  -0.43441  -0.43195
 Alpha  occ. eigenvalues --   -0.43071  -0.42480  -0.42448  -0.42176  -0.42096
 Alpha  occ. eigenvalues --   -0.42023  -0.41986  -0.41743  -0.41207  -0.41085
 Alpha  occ. eigenvalues --   -0.40859  -0.40488  -0.40238  -0.39488  -0.39336
 Alpha  occ. eigenvalues --   -0.39209  -0.38914  -0.38754  -0.38423  -0.37630
 Alpha  occ. eigenvalues --   -0.37197  -0.37163  -0.37057  -0.36266  -0.35865
 Alpha  occ. eigenvalues --   -0.35160  -0.34114  -0.33456  -0.32406  -0.31538
 Alpha  occ. eigenvalues --   -0.31240  -0.30404  -0.29288  -0.26630  -0.24126
 Alpha  occ. eigenvalues --   -0.20182
 Alpha virt. eigenvalues --   -0.05296  -0.00701   0.02693   0.06119   0.08214
 Alpha virt. eigenvalues --    0.09881   0.11419   0.12060   0.12430   0.12661
 Alpha virt. eigenvalues --    0.12950   0.13485   0.13691   0.13886   0.14172

 Mulliken charges:
               1
     1  O   -0.553802
     2  O   -0.586318
     3  C   -0.026886
     4  C   -0.032873
     5  C   -0.167784
     6  C   -0.199434
     7  C    0.169346
     8  C    0.199680
     9  C    0.127107
    10  C    0.098654
    11  C   -0.214609
    12  C   -0.203351
    13  C    0.026541
    14  C    0.023889
    15  C   -0.306955
    16  C   -0.308962
    17  C   -0.268953
    18  C   -0.317103
    19  C   -0.129260
    20  C   -0.153382
    21  C   -0.352733
    22  C   -0.362124
    23  C   -0.084047
    24  C   -0.078666
    25  C    0.090543
    26  C    0.128284
    27  C   -0.374538
    28  C   -0.356590
    29  C   -0.115153
    30  C   -0.141269
    31  C   -0.081562
    32  C   -0.085153
    33  C   -0.121964
    34  C   -0.093845
    35  C    0.178114
    36  C    0.084875
    37  C   -0.399594
    38  C   -0.363709
    39  C   -0.146385
    40  C   -0.100014
    41  C   -0.087608
    42  C   -0.092915
    43  H    0.096211
    44  H    0.035878
    45  H    0.066367
    46  H    0.114384
    47  H    0.071164
    48  H    0.096403
    49  H    0.107123
    50  H    0.115673
    51  H    0.093972
    52  H    0.125909
    53  H    0.094735
    54  H    0.091939
    55  H    0.113100
    56  H    0.091416
    57  H    0.115858
    58  H    0.107044
    59  H    0.093245
    60  H    0.103585
    61  H    0.069862
    62  H    0.089040
    63  H    0.102583
    64  H    0.108125
    65  H    0.086480
    66  H    0.082706
    67  H    0.076747
    68  H    0.128130
    69  H    0.107641
    70  H    0.109563
    71  H    0.108936
    72  H    0.094677
    73  H    0.303157
    74  H    0.288789
    75  H    0.083874
    76  H    0.069011
    77  H    0.099352
    78  H    0.131133
    79  H    0.111600
    80  H    0.123653
    81  H    0.092050
    82  H    0.115486
    83  H    0.072956
    84  H    0.088488
    85  H    0.066205
    86  H    0.073546
    87  H    0.070415
    88  H    0.079226
    89  H    0.116600
    90  H    0.111401
    91  H    0.118667
    92  H    0.129607
    93  H    0.129908
    94  H    0.112389
    95  H    0.071275
    96  H    0.081578
    97  H    0.065630
    98  H    0.076013
 Sum of Mulliken charges =  -0.00000

 Dipole moment (field-independent basis, Debye):
    X=              1.3483    Y=             -2.6254    Z=              0.5869  Tot=              3.0092
 Quadrupole moment (field-independent basis, Debye-Ang):
   XX=           -276.9506   YY=           -240.5381   ZZ=           -262.7054
   XY=              9.6865   XZ=             -4.0948   YZ=              2.1298

 Normal termination of Gaussian 16 at Sun Jul 14 10:35:05 2019.
