 Gaussian 16, Revision A.03,
 Gaussian 16:  ES64L-G16RevA.03 25-Dec-2016

 -------------------------------------
 # td=(NStates=1) CAM-B3LYP/6-31G(d,p)
 -------------------------------------

 --
 TD
 --
 Symbolic Z-matrix:
 Charge =  0 Multiplicity = 1

                         Standard orientation:
 ---------------------------------------------------------------------
 Center     Atomic      Atomic             Coordinates (Angstroms)
 Number     Number       Type             X           Y           Z
 ---------------------------------------------------------------------
      1          8           0       14.699841   -2.233795   -0.255067
      2          8           0      -14.670461    2.000828    1.097594
      3          6           0       11.160720   -1.568326    1.014732
      4          6           0      -12.444800   -1.096939    0.695157
      5          6           0       12.600017   -2.002626    1.098970
      6          6           0      -13.715847   -0.317410    0.665999
      7          6           0       13.313041   -1.826788   -0.330638
      8          6           0      -13.511103    1.259878    0.998216
      9          6           0       10.979673   -0.369183   -0.046555
     10          6           0      -11.340760   -0.281837   -0.144183
     11          6           0       13.260332   -0.464795   -0.998673
     12          6           0      -12.733134    1.857594   -0.170313
     13          6           0       11.911933    0.158291   -0.866745
     14          6           0      -11.441746    0.993000   -0.529934
     15          6           0       10.679048   -1.189674    2.345552
     16          6           0       10.280264   -2.739990    0.416651
     17          6           0      -11.855868   -1.476549    2.005352
     18          6           0      -12.803366   -2.304451   -0.055457
     19          6           0        9.731206    0.339556    0.080537
     20          6           0      -10.059223   -0.996951   -0.397330
     21          6           0       11.771081    1.286387   -1.757130
     22          6           0      -10.580142    1.621571   -1.626723
     23          6           0        9.433909    1.614535    0.139687
     24          6           0       -8.760860   -0.553776   -0.398834
     25          6           0        8.112055    2.249401    0.358203
     26          6           0       -7.601475   -1.197850   -0.514458
     27          6           0        8.030410    3.726710    0.721925
     28          6           0       -7.719958   -2.715120   -0.886848
     29          6           0        6.937746    1.476758    0.098335
     30          6           0       -6.416832   -0.453816   -0.518749
     31          6           0        5.643236    1.845218    0.256259
     32          6           0       -5.099606   -0.994756   -0.592614
     33          6           0        4.497311    1.243721   -0.028366
     34          6           0       -3.883006   -0.169523   -0.566933
     35          6           0        3.247031    1.771261    0.083956
     36          6           0       -2.553683   -0.692712   -0.604018
     37          6           0        2.874517    3.289708    0.366585
     38          6           0       -2.340288   -2.060745   -0.966035
     39          6           0        2.157462    0.760136   -0.110404
     40          6           0       -1.532276    0.229740   -0.338565
     41          6           0        0.749804    1.017312   -0.035391
     42          6           0       -0.169690    0.040919   -0.276179
     43          1           0       12.903290   -1.276580    1.656062
     44          1           0       12.909977   -2.926906    1.606869
     45          1           0      -14.483241   -0.698663    1.420758
     46          1           0      -14.253387   -0.413815   -0.360329
     47          1           0       12.830810   -2.807266   -1.027569
     48          1           0      -12.763847    1.482325    1.770991
     49          1           0       13.931982    0.179332   -0.658064
     50          1           0       13.333753   -0.626949   -2.133385
     51          1           0      -13.566655    1.988486   -1.042362
     52          1           0      -12.412119    2.812985    0.141569
     53          1           0       10.921358   -2.103851    2.854857
     54          1           0        9.615837   -0.841602    2.373204
     55          1           0       11.193903   -0.327951    2.823145
     56          1           0       10.576458   -3.035037   -0.750078
     57          1           0       10.150168   -3.557561    1.228928
     58          1           0        9.287706   -2.405897    0.219541
     59          1           0      -11.611844   -0.538560    2.598113
     60          1           0      -10.903240   -2.061950    1.774899
     61          1           0      -12.614805   -2.134832    2.599873
     62          1           0      -13.586367   -2.996940    0.459732
     63          1           0      -11.837577   -2.998362   -0.196852
     64          1           0      -13.344276   -1.964474   -1.061021
     65          1           0        8.827702   -0.183143    0.357965
     66          1           0      -10.274159   -1.950443   -0.696460
     67          1           0       10.715419    1.681439   -1.959513
     68          1           0       12.249069    2.148561   -1.390923
     69          1           0       12.255423    1.266259   -2.642372
     70          1           0      -11.313675    2.338367   -2.303486
     71          1           0       -9.968082    0.894545   -2.118292
     72          1           0      -10.075447    2.344044   -1.044160
     73          1           0       14.749090   -3.018615    0.406062
     74          1           0      -15.326156    1.492276    1.783219
     75          1           0       10.251794    2.488291    0.082222
     76          1           0       -8.622089    0.386082    0.074290
     77          1           0        9.121569    4.067228    0.813854
     78          1           0        7.510503    4.377052   -0.159587
     79          1           0        7.485807    4.015008    1.710381
     80          1           0       -8.184877   -3.284597   -0.015856
     81          1           0       -8.270893   -3.032576   -1.831708
     82          1           0       -6.661278   -3.168329   -1.062641
     83          1           0        7.064412    0.385280   -0.370468
     84          1           0       -6.586645    0.583413   -0.302249
     85          1           0        5.482971    2.856709    0.686487
     86          1           0       -4.753272   -2.191834   -0.476514
     87          1           0        4.696295    0.264920   -0.370471
     88          1           0       -3.896820    0.873356   -0.477075
     89          1           0        2.933857    3.608833    1.380341
     90          1           0        1.853674    3.416922    0.108420
     91          1           0        3.481802    3.970463   -0.276955
     92          1           0       -2.672507   -2.983224   -0.276909
     93          1           0       -3.035437   -2.196013   -1.991651
     94          1           0       -1.247417   -2.235493   -1.221282
     95          1           0        2.404359   -0.287351   -0.394890
     96          1           0       -1.920745    1.379373   -0.153508
     97          1           0        0.473057    2.051541    0.013738
     98          1           0       -0.103025   -1.087796   -0.429343
 ---------------------------------------------------------------------

 SCF Done:  E(RCAM-B3LYP) =  -1706.94808307     A.U. after   16 cycles

 Excitation energies and oscillator strengths:

 Excited State   1:      Singlet-A      1.9086 eV  649.59 nm  f=3.8932  <S**2>=0.000
     155 ->158         0.14425
     156 ->157         0.69551
     156 <-157        -0.10102
 This state for optimization and/or second-order correction.
 Total Energy, E(TD-HF/TD-DFT) =  -1706.87794188
 Copying the excited state density for this state as the 1-particle RhoCI density.

 The electronic state is 1-A.
 Alpha  occ. eigenvalues --  -19.22415 -19.20834 -10.32437 -10.29920 -10.28948
 Alpha  occ. eigenvalues --  -10.28637 -10.28441 -10.28274 -10.28226 -10.28041
 Alpha  occ. eigenvalues --  -10.27614 -10.27418 -10.27340 -10.26958 -10.26949
 Alpha  occ. eigenvalues --  -10.26893 -10.26831 -10.26792 -10.26756 -10.26707
 Alpha  occ. eigenvalues --  -10.26676 -10.26577 -10.26532 -10.26530 -10.26483
 Alpha  occ. eigenvalues --  -10.26369 -10.26354 -10.26183 -10.26042 -10.25900
 Alpha  occ. eigenvalues --  -10.25737 -10.25299 -10.25186 -10.25153 -10.25150
 Alpha  occ. eigenvalues --  -10.25100 -10.24891 -10.24797 -10.24751 -10.24535
 Alpha  occ. eigenvalues --  -10.24491 -10.23750  -1.09169  -1.07079  -0.94177
 Alpha  occ. eigenvalues --   -0.93533  -0.92402  -0.91824  -0.91239  -0.89738
 Alpha  occ. eigenvalues --   -0.89089  -0.87732  -0.87055  -0.85183  -0.84097
 Alpha  occ. eigenvalues --   -0.82601  -0.81482  -0.80511  -0.78840  -0.78121
 Alpha  occ. eigenvalues --   -0.77645  -0.76978  -0.76577  -0.76052  -0.75926
 Alpha  occ. eigenvalues --   -0.75437  -0.75408  -0.73878  -0.72705  -0.70810
 Alpha  occ. eigenvalues --   -0.68508  -0.67027  -0.65536  -0.64509  -0.63907
 Alpha  occ. eigenvalues --   -0.62948  -0.62355  -0.61153  -0.60860  -0.59494
 Alpha  occ. eigenvalues --   -0.59287  -0.58034  -0.57708  -0.57306  -0.56279
 Alpha  occ. eigenvalues --   -0.55581  -0.55351  -0.54824  -0.54265  -0.53722
 Alpha  occ. eigenvalues --   -0.53116  -0.52456  -0.52442  -0.51994  -0.51618
 Alpha  occ. eigenvalues --   -0.50836  -0.50183  -0.49485  -0.49077  -0.48915
 Alpha  occ. eigenvalues --   -0.48807  -0.48736  -0.48417  -0.47874  -0.47661
 Alpha  occ. eigenvalues --   -0.47217  -0.47083  -0.46923  -0.46623  -0.46467
 Alpha  occ. eigenvalues --   -0.46384  -0.45746  -0.45614  -0.45256  -0.45046
 Alpha  occ. eigenvalues --   -0.44561  -0.44235  -0.44154  -0.43338  -0.43010
 Alpha  occ. eigenvalues --   -0.42715  -0.42553  -0.42333  -0.41703  -0.41548
 Alpha  occ. eigenvalues --   -0.41390  -0.41279  -0.41077  -0.41064  -0.40692
 Alpha  occ. eigenvalues --   -0.40471  -0.40209  -0.40147  -0.39546  -0.39310
 Alpha  occ. eigenvalues --   -0.39239  -0.39151  -0.38712  -0.38602  -0.38377
 Alpha  occ. eigenvalues --   -0.37873  -0.37702  -0.37186  -0.36070  -0.35774
 Alpha  occ. eigenvalues --   -0.35238  -0.34654  -0.34012  -0.32486  -0.31709
 Alpha  occ. eigenvalues --   -0.30263  -0.30062  -0.28432  -0.26532  -0.22875
 Alpha  occ. eigenvalues --   -0.18640
 Alpha virt. eigenvalues --   -0.06887  -0.01789   0.02207   0.05952   0.08050
 Alpha virt. eigenvalues --    0.09406   0.10295   0.10817   0.11053   0.11718
 Alpha virt. eigenvalues --    0.12054   0.12691   0.13007   0.13447   0.13782

 Mulliken charges:
               1
     1  O   -0.577703
     2  O   -0.556231
     3  C   -0.005046
     4  C    0.018407
     5  C   -0.192787
     6  C   -0.198216
     7  C    0.187175
     8  C    0.180691
     9  C    0.062422
    10  C    0.068411
    11  C   -0.208028
    12  C   -0.214537
    13  C    0.047016
    14  C    0.001194
    15  C   -0.301957
    16  C   -0.297174
    17  C   -0.277804
    18  C   -0.284112
    19  C   -0.130739
    20  C   -0.153251
    21  C   -0.381739
    22  C   -0.336591
    23  C   -0.094466
    24  C   -0.096966
    25  C    0.074699
    26  C    0.133409
    27  C   -0.363498
    28  C   -0.371767
    29  C   -0.121777
    30  C   -0.127019
    31  C   -0.078016
    32  C   -0.115828
    33  C   -0.072500
    34  C   -0.107797
    35  C    0.064252
    36  C    0.150700
    37  C   -0.367954
    38  C   -0.391200
    39  C   -0.126896
    40  C   -0.124383
    41  C   -0.095412
    42  C   -0.061575
    43  H    0.114195
    44  H    0.084241
    45  H    0.064235
    46  H    0.096766
    47  H    0.037426
    48  H    0.074440
    49  H    0.132252
    50  H    0.117593
    51  H    0.091398
    52  H    0.108605
    53  H    0.102988
    54  H    0.109618
    55  H    0.107035
    56  H    0.092404
    57  H    0.085803
    58  H    0.109193
    59  H    0.101986
    60  H    0.106368
    61  H    0.084546
    62  H    0.092454
    63  H    0.078002
    64  H    0.092682
    65  H    0.081335
    66  H    0.078552
    67  H    0.119922
    68  H    0.122206
    69  H    0.112158
    70  H    0.090045
    71  H    0.129809
    72  H    0.122503
    73  H    0.304045
    74  H    0.307336
    75  H    0.064163
    76  H    0.076416
    77  H    0.104558
    78  H    0.110762
    79  H    0.121139
    80  H    0.111996
    81  H    0.121513
    82  H    0.093260
    83  H    0.071499
    84  H    0.093705
    85  H    0.061563
    86  H    0.087484
    87  H    0.073334
    88  H    0.079328
    89  H    0.134330
    90  H    0.118466
    91  H    0.122511
    92  H    0.115450
    93  H    0.108770
    94  H    0.107768
    95  H    0.090125
    96  H    0.059187
    97  H    0.089569
    98  H    0.075558
 Sum of Mulliken charges =  -0.00000

 Dipole moment (field-independent basis, Debye):
    X=              0.3956    Y=             -0.5409    Z=              1.9697  Tot=              2.0806
 Quadrupole moment (field-independent basis, Debye-Ang):
   XX=           -275.3603   YY=           -245.5704   ZZ=           -262.7694
   XY=             22.6692   XZ=              0.8602   YZ=             -1.6791

 Normal termination of Gaussian 16 at Mon Jul  8 15:23:11 2019.
