 Gaussian 16, Revision A.03,
 Gaussian 16:  ES64L-G16RevA.03 25-Dec-2016

 -------------------------------------
 # td=(NStates=1) CAM-B3LYP/6-31G(d,p)
 -------------------------------------

 --
 TD
 --
 Symbolic Z-matrix:
 Charge =  0 Multiplicity = 1

                         Standard orientation:
 ---------------------------------------------------------------------
 Center     Atomic      Atomic             Coordinates (Angstroms)
 Number     Number       Type             X           Y           Z
 ---------------------------------------------------------------------
      1          8           0       14.682685   -2.469954   -0.157602
      2          8           0      -14.883825    1.863070    0.942658
      3          6           0       11.090373   -1.409730    0.960457
      4          6           0      -12.299049   -1.048085    0.608554
      5          6           0       12.537893   -2.005436    1.041527
      6          6           0      -13.646782   -0.311135    0.712453
      7          6           0       13.225787   -2.031968   -0.326112
      8          6           0      -13.487194    1.192817    0.874628
      9          6           0       10.858940   -0.354825   -0.062238
     10          6           0      -11.263384   -0.260281   -0.249945
     11          6           0       13.127933   -0.685159   -1.030026
     12          6           0      -12.809285    1.675475   -0.385305
     13          6           0       11.832015   -0.074266   -1.001363
     14          6           0      -11.478522    0.972106   -0.639446
     15          6           0       10.832744   -0.905012    2.412517
     16          6           0       10.179025   -2.529251    0.621298
     17          6           0      -11.819043   -1.117704    2.032359
     18          6           0      -12.469444   -2.492485   -0.019176
     19          6           0        9.606486    0.495659    0.066308
     20          6           0       -9.976453   -0.992208   -0.418700
     21          6           0       11.670836    1.119909   -2.007422
     22          6           0      -10.611617    1.815803   -1.513502
     23          6           0        9.322255    1.863398   -0.083878
     24          6           0       -8.687520   -0.465128   -0.380050
     25          6           0        8.145862    2.439799    0.157136
     26          6           0       -7.525690   -1.220170   -0.541811
     27          6           0        8.056246    3.882120    0.326978
     28          6           0       -7.551544   -2.646687   -0.995717
     29          6           0        6.923164    1.706783    0.135346
     30          6           0       -6.391077   -0.611279   -0.409388
     31          6           0        5.672933    2.191972    0.264672
     32          6           0       -4.943432   -1.048478   -0.474932
     33          6           0        4.513831    1.316790    0.174430
     34          6           0       -3.877881   -0.376336   -0.372916
     35          6           0        3.150840    1.731536    0.181765
     36          6           0       -2.557855   -0.780834   -0.459327
     37          6           0        2.800513    3.104003    0.603656
     38          6           0       -2.282094   -2.162984   -0.860338
     39          6           0        2.120998    0.754718   -0.013168
     40          6           0       -1.644550    0.057153   -0.120854
     41          6           0        0.716712    0.901553    0.036308
     42          6           0       -0.257543   -0.015281   -0.215659
     43          1           0       13.166691   -1.420755    1.788851
     44          1           0       12.634071   -2.924048    1.548440
     45          1           0      -14.098819   -0.779944    1.556418
     46          1           0      -14.132491   -0.423762   -0.227079
     47          1           0       12.817036   -2.823278   -1.013743
     48          1           0      -13.129263    1.344123    1.804544
     49          1           0       14.030549    0.097898   -0.742591
     50          1           0       13.508558   -1.050732   -2.136566
     51          1           0      -13.558662    1.704265   -1.169791
     52          1           0      -12.529842    2.857774   -0.330777
     53          1           0       11.103411   -1.506339    3.194005
     54          1           0        9.826386   -0.619979    2.670294
     55          1           0       11.499359   -0.120214    2.617409
     56          1           0       10.456938   -3.004218   -0.515392
     57          1           0       10.173425   -3.416430    1.387224
     58          1           0        9.096635   -2.272968    0.600747
     59          1           0      -11.583854   -0.115683    2.245513
     60          1           0      -10.843033   -1.592325    2.097423
     61          1           0      -12.596746   -1.544756    2.564784
     62          1           0      -13.310374   -2.913012    0.303708
     63          1           0      -11.642662   -3.247180    0.288628
     64          1           0      -12.457741   -2.574014   -1.162429
     65          1           0        8.822388   -0.220250    0.289652
     66          1           0      -10.006446   -2.069245   -0.624074
     67          1           0       10.669648    1.351792   -2.045631
     68          1           0       12.081693    1.967376   -1.732041
     69          1           0       12.102245    0.912848   -3.049723
     70          1           0      -11.142599    2.511773   -2.083105
     71          1           0       -9.937575    1.215880   -2.348315
     72          1           0       -9.959339    2.409130   -0.916895
     73          1           0       14.590864   -3.320472    0.355955
     74          1           0      -15.460062    1.530694    1.571334
     75          1           0       10.092867    2.583988   -0.212444
     76          1           0       -8.506720    0.711819   -0.353771
     77          1           0        9.016500    4.356279    0.204966
     78          1           0        7.613761    4.366283   -0.542858
     79          1           0        7.354790    4.245024    1.288214
     80          1           0       -8.359704   -3.329575   -0.419490
     81          1           0       -7.988335   -3.079994   -2.060201
     82          1           0       -6.594622   -3.191313   -0.972330
     83          1           0        7.028052    0.641157   -0.303038
     84          1           0       -6.320999    0.473577   -0.033228
     85          1           0        5.328931    3.263051    0.408592
     86          1           0       -4.931426   -2.045716   -0.936965
     87          1           0        4.651279    0.440661   -0.242773
     88          1           0       -3.811061    0.496955   -0.043402
     89          1           0        2.856415    3.339889    1.895773
     90          1           0        1.890578    3.461219    0.316671
     91          1           0        3.461794    4.013634    0.226802
     92          1           0       -2.813308   -2.820354   -0.233801
     93          1           0       -2.855697   -2.394279   -1.697459
     94          1           0       -1.209588   -2.332791   -1.052494
     95          1           0        2.484003   -0.296836   -0.152035
     96          1           0       -2.047479    1.022996    0.122864
     97          1           0        0.146507    1.944785    0.515112
     98          1           0        0.099629   -1.020562   -0.564641
 ---------------------------------------------------------------------

 SCF Done:  E(RCAM-B3LYP) =  -1706.92356413     A.U. after   16 cycles

 Excitation energies and oscillator strengths:

 Excited State   1:      Singlet-A      2.0636 eV  600.82 nm  f=3.0129  <S**2>=0.000
     155 ->158         0.11978
     156 ->157         0.70071
     156 <-157        -0.11482
 This state for optimization and/or second-order correction.
 Total Energy, E(TD-HF/TD-DFT) =  -1706.84772865
 Copying the excited state density for this state as the 1-particle RhoCI density.

 The electronic state is 1-A.
 Alpha  occ. eigenvalues --  -19.20779 -19.18929 -10.31229 -10.30141 -10.28316
 Alpha  occ. eigenvalues --  -10.28246 -10.27998 -10.27987 -10.27604 -10.27561
 Alpha  occ. eigenvalues --  -10.27539 -10.27348 -10.27267 -10.27265 -10.27065
 Alpha  occ. eigenvalues --  -10.27051 -10.26942 -10.26928 -10.26857 -10.26711
 Alpha  occ. eigenvalues --  -10.26588 -10.26511 -10.26459 -10.26458 -10.26403
 Alpha  occ. eigenvalues --  -10.26288 -10.26284 -10.26194 -10.25850 -10.25687
 Alpha  occ. eigenvalues --  -10.25647 -10.25583 -10.25499 -10.25202 -10.24986
 Alpha  occ. eigenvalues --  -10.24776 -10.24249 -10.24058 -10.23646 -10.23386
 Alpha  occ. eigenvalues --  -10.23302 -10.23148  -1.05725  -1.05655  -0.94904
 Alpha  occ. eigenvalues --   -0.94267  -0.94153  -0.92676  -0.91973  -0.90706
 Alpha  occ. eigenvalues --   -0.87927  -0.87523  -0.87383  -0.85687  -0.84963
 Alpha  occ. eigenvalues --   -0.83947  -0.82817  -0.80364  -0.80196  -0.79674
 Alpha  occ. eigenvalues --   -0.77847  -0.77228  -0.76886  -0.76772  -0.76453
 Alpha  occ. eigenvalues --   -0.76215  -0.75267  -0.75078  -0.74644  -0.71214
 Alpha  occ. eigenvalues --   -0.70232  -0.68333  -0.66780  -0.65881  -0.64972
 Alpha  occ. eigenvalues --   -0.64183  -0.63347  -0.61658  -0.60765  -0.60480
 Alpha  occ. eigenvalues --   -0.59868  -0.58557  -0.58411  -0.57201  -0.56624
 Alpha  occ. eigenvalues --   -0.55941  -0.55704  -0.55084  -0.54704  -0.54114
 Alpha  occ. eigenvalues --   -0.53571  -0.52616  -0.51786  -0.51776  -0.50840
 Alpha  occ. eigenvalues --   -0.50658  -0.50191  -0.50133  -0.49754  -0.49212
 Alpha  occ. eigenvalues --   -0.49201  -0.48957  -0.48722  -0.48476  -0.48391
 Alpha  occ. eigenvalues --   -0.47871  -0.47418  -0.47256  -0.46943  -0.46521
 Alpha  occ. eigenvalues --   -0.46017  -0.45718  -0.45628  -0.45454  -0.45174
 Alpha  occ. eigenvalues --   -0.44955  -0.44635  -0.44535  -0.44498  -0.44030
 Alpha  occ. eigenvalues --   -0.43423  -0.43297  -0.42781  -0.42662  -0.42558
 Alpha  occ. eigenvalues --   -0.42157  -0.42020  -0.41188  -0.41037  -0.40806
 Alpha  occ. eigenvalues --   -0.40349  -0.40175  -0.39881  -0.39734  -0.39355
 Alpha  occ. eigenvalues --   -0.39297  -0.38393  -0.38302  -0.38019  -0.37930
 Alpha  occ. eigenvalues --   -0.37817  -0.37128  -0.36731  -0.36205  -0.35999
 Alpha  occ. eigenvalues --   -0.35945  -0.35311  -0.34640  -0.32626  -0.31936
 Alpha  occ. eigenvalues --   -0.31857  -0.30624  -0.28881  -0.26685  -0.24036
 Alpha  occ. eigenvalues --   -0.19335
 Alpha virt. eigenvalues --   -0.06636  -0.01397   0.01927   0.05550   0.07477
 Alpha virt. eigenvalues --    0.09579   0.10623   0.11485   0.11602   0.11990
 Alpha virt. eigenvalues --    0.12164   0.12324   0.12805   0.13114   0.13856

 Mulliken charges:
               1
     1  O   -0.580889
     2  O   -0.600872
     3  C   -0.017505
     4  C   -0.033535
     5  C   -0.197717
     6  C   -0.194353
     7  C    0.149387
     8  C    0.173658
     9  C    0.062785
    10  C    0.079558
    11  C   -0.223725
    12  C   -0.228632
    13  C    0.055959
    14  C    0.051921
    15  C   -0.321266
    16  C   -0.281273
    17  C   -0.287056
    18  C   -0.315249
    19  C   -0.104268
    20  C   -0.150089
    21  C   -0.357372
    22  C   -0.368790
    23  C   -0.115688
    24  C   -0.105706
    25  C    0.132420
    26  C    0.205017
    27  C   -0.384054
    28  C   -0.385187
    29  C   -0.120282
    30  C   -0.165354
    31  C   -0.078419
    32  C   -0.115054
    33  C   -0.114288
    34  C   -0.025935
    35  C    0.124093
    36  C    0.171930
    37  C   -0.357748
    38  C   -0.384561
    39  C   -0.145503
    40  C   -0.151947
    41  C   -0.076786
    42  C   -0.080892
    43  H    0.099547
    44  H    0.092055
    45  H    0.082165
    46  H    0.107438
    47  H    0.096516
    48  H    0.100461
    49  H    0.112009
    50  H    0.090799
    51  H    0.138859
    52  H    0.083141
    53  H    0.107398
    54  H    0.104711
    55  H    0.114044
    56  H    0.073595
    57  H    0.086363
    58  H    0.102969
    59  H    0.110590
    60  H    0.106029
    61  H    0.101589
    62  H    0.107940
    63  H    0.088615
    64  H    0.102307
    65  H    0.085928
    66  H    0.086080
    67  H    0.120963
    68  H    0.128433
    69  H    0.093891
    70  H    0.117164
    71  H    0.098447
    72  H    0.124862
    73  H    0.303438
    74  H    0.293089
    75  H    0.086925
    76  H    0.087030
    77  H    0.104802
    78  H    0.129998
    79  H    0.109094
    80  H    0.095764
    81  H    0.101856
    82  H    0.118514
    83  H    0.085129
    84  H    0.068856
    85  H    0.088285
    86  H    0.059465
    87  H    0.072021
    88  H    0.041863
    89  H    0.082677
    90  H    0.128255
    91  H    0.094153
    92  H    0.128508
    93  H    0.124643
    94  H    0.107633
    95  H    0.089058
    96  H    0.069850
    97  H    0.060115
    98  H    0.067341
 Sum of Mulliken charges =  -0.00000

 Dipole moment (field-independent basis, Debye):
    X=             -0.3344    Y=             -1.3981    Z=              0.9777  Tot=              1.7385
 Quadrupole moment (field-independent basis, Debye-Ang):
   XX=           -298.9576   YY=           -241.7853   ZZ=           -260.0605
   XY=             23.5172   XZ=              0.1400   YZ=             -1.6250

 Normal termination of Gaussian 16 at Mon Jul 15 16:01:05 2019.
