 Gaussian 16, Revision A.03,
 Gaussian 16:  ES64L-G16RevA.03 25-Dec-2016

 -------------------------------------
 # td=(NStates=1) CAM-B3LYP/6-31G(d,p)
 -------------------------------------

 --
 TD
 --
 Symbolic Z-matrix:
 Charge =  0 Multiplicity = 1

                         Standard orientation:
 ---------------------------------------------------------------------
 Center     Atomic      Atomic             Coordinates (Angstroms)
 Number     Number       Type             X           Y           Z
 ---------------------------------------------------------------------
      1          8           0       14.668419   -2.253532   -0.437445
      2          8           0      -14.783780    1.857631    0.974172
      3          6           0       11.290338   -1.392397    1.074307
      4          6           0      -12.435178   -1.020311    0.540597
      5          6           0       12.790082   -1.841601    1.003285
      6          6           0      -13.745333   -0.267332    0.450338
      7          6           0       13.307991   -1.841131   -0.383055
      8          6           0      -13.515407    1.271954    0.814726
      9          6           0       10.976385   -0.289389    0.025924
     10          6           0      -11.314678   -0.273121   -0.246708
     11          6           0       13.235212   -0.456037   -0.965626
     12          6           0      -12.724582    1.946063   -0.199210
     13          6           0       11.898128    0.099913   -0.959317
     14          6           0      -11.473091    1.034913   -0.597663
     15          6           0       10.837251   -1.049049    2.486564
     16          6           0       10.423794   -2.684445    0.614811
     17          6           0      -12.029062   -1.247237    1.966362
     18          6           0      -12.642727   -2.405075   -0.157297
     19          6           0        9.666735    0.378959    0.231301
     20          6           0      -10.049652   -1.075283   -0.389904
     21          6           0       11.510800    1.156470   -1.981041
     22          6           0      -10.446134    1.773560   -1.414995
     23          6           0        9.374684    1.621316    0.122116
     24          6           0       -8.697280   -0.618147   -0.296079
     25          6           0        8.092135    2.205603    0.256089
     26          6           0       -7.541473   -1.274159   -0.483077
     27          6           0        8.029091    3.647263    0.612945
     28          6           0       -7.582623   -2.686509   -0.729844
     29          6           0        6.978233    1.496326   -0.024773
     30          6           0       -6.356889   -0.636286   -0.346803
     31          6           0        5.635122    2.101349    0.110676
     32          6           0       -5.073545   -1.171315   -0.531246
     33          6           0        4.417517    1.307611   -0.112200
     34          6           0       -3.994926   -0.268106   -0.389477
     35          6           0        3.129475    1.746763    0.083191
     36          6           0       -2.628574   -0.730305   -0.436835
     37          6           0        2.813498    3.226804    0.491112
     38          6           0       -2.461932   -2.233033   -0.730015
     39          6           0        2.059331    0.815622   -0.128289
     40          6           0       -1.555058    0.149356   -0.254293
     41          6           0        0.732864    0.981777   -0.172074
     42          6           0       -0.164732   -0.008229   -0.321830
     43          1           0       13.518011   -1.296870    1.858634
     44          1           0       12.655994   -2.842876    1.452226
     45          1           0      -14.402575   -0.677830    1.118199
     46          1           0      -14.377025   -0.061600   -0.326373
     47          1           0       12.667607   -2.452929   -0.810055
     48          1           0      -12.983934    1.243673    1.757011
     49          1           0       14.129381   -0.000646   -0.692580
     50          1           0       13.389803   -0.662993   -1.967578
     51          1           0      -13.174758    2.372490   -1.141409
     52          1           0      -12.452076    2.808150    0.295663
     53          1           0       11.259528   -1.889733    2.964634
     54          1           0        9.703544   -0.974003    2.544527
     55          1           0       11.063891    0.154811    2.835596
     56          1           0       10.575117   -2.810727   -0.439746
     57          1           0       10.679022   -3.658230    1.145535
     58          1           0        9.252683   -2.569345    0.971365
     59          1           0      -11.696410   -0.360124    2.327508
     60          1           0      -11.016032   -1.702886    1.798665
     61          1           0      -12.786141   -1.748370    2.673536
     62          1           0      -13.611275   -2.823193    0.355008
     63          1           0      -11.949726   -3.152740   -0.072450
     64          1           0      -12.707789   -2.149759   -1.296104
     65          1           0        8.896891   -0.220707    0.380402
     66          1           0      -10.085910   -2.162164   -0.584859
     67          1           0       10.451187    1.453083   -2.155912
     68          1           0       11.904896    1.973234   -1.439287
     69          1           0       11.981692    1.032524   -3.045596
     70          1           0      -11.169756    2.438366   -1.985065
     71          1           0       -9.782002    1.166173   -2.268375
     72          1           0       -9.933815    2.470465   -0.589888
     73          1           0       14.641325   -3.165522   -0.297823
     74          1           0      -15.099493    1.378421    1.820561
     75          1           0       10.152117    2.211120   -0.034387
     76          1           0       -8.619387    0.305524    0.118468
     77          1           0        8.944884    4.079285    1.038874
     78          1           0        7.781316    4.182205   -0.289594
     79          1           0        7.434624    4.012545    1.678073
     80          1           0       -8.108702   -3.251869    0.094176
     81          1           0       -8.139312   -2.851241   -1.834015
     82          1           0       -6.579502   -3.108447   -1.184577
     83          1           0        7.079484    0.454539   -0.457441
     84          1           0       -6.168205    0.383996   -0.235588
     85          1           0        5.503149    3.250629    0.437813
     86          1           0       -4.873321   -2.031875   -0.866383
     87          1           0        4.650408    0.279336   -0.342896
     88          1           0       -4.194541    0.670144    0.013869
     89          1           0        2.914070    3.332745    1.622414
     90          1           0        1.679377    3.610622    0.251087
     91          1           0        3.442632    3.898068   -0.115449
     92          1           0       -2.832751   -3.011779   -0.082478
     93          1           0       -2.793980   -2.521458   -1.738113
     94          1           0       -1.295984   -2.359596   -0.794922
     95          1           0        2.349878   -0.260593   -0.316569
     96          1           0       -2.052011    1.116870   -0.071989
     97          1           0        0.341746    1.749583    0.357729
     98          1           0        0.170303   -1.040013   -0.524040
 ---------------------------------------------------------------------

 SCF Done:  E(RCAM-B3LYP) =  -1706.90432935     A.U. after   16 cycles

 Excitation energies and oscillator strengths:

 Excited State   1:      Singlet-A      2.0120 eV  616.23 nm  f=3.8816  <S**2>=0.000
     155 ->158         0.14536
     156 ->157         0.69454
 This state for optimization and/or second-order correction.
 Total Energy, E(TD-HF/TD-DFT) =  -1706.83038995
 Copying the excited state density for this state as the 1-particle RhoCI density.

 The electronic state is 1-A.
 Alpha  occ. eigenvalues --  -19.21622 -19.21187 -10.29479 -10.29132 -10.28449
 Alpha  occ. eigenvalues --  -10.28133 -10.27990 -10.27928 -10.27787 -10.27340
 Alpha  occ. eigenvalues --  -10.27319 -10.27305 -10.27209 -10.26866 -10.26742
 Alpha  occ. eigenvalues --  -10.26728 -10.26675 -10.26659 -10.26633 -10.26554
 Alpha  occ. eigenvalues --  -10.26521 -10.26492 -10.26245 -10.26208 -10.26166
 Alpha  occ. eigenvalues --  -10.26125 -10.26037 -10.25886 -10.25751 -10.25663
 Alpha  occ. eigenvalues --  -10.25587 -10.25510 -10.25200 -10.24970 -10.24592
 Alpha  occ. eigenvalues --  -10.24522 -10.24517 -10.23996 -10.23696 -10.23631
 Alpha  occ. eigenvalues --  -10.23450 -10.22316  -1.10898  -1.09459  -0.93849
 Alpha  occ. eigenvalues --   -0.93494  -0.92623  -0.92108  -0.91758  -0.90162
 Alpha  occ. eigenvalues --   -0.87929  -0.87350  -0.86816  -0.86029  -0.84969
 Alpha  occ. eigenvalues --   -0.83289  -0.82035  -0.80367  -0.79096  -0.78166
 Alpha  occ. eigenvalues --   -0.76722  -0.76632  -0.76022  -0.75865  -0.75698
 Alpha  occ. eigenvalues --   -0.75508  -0.75278  -0.74620  -0.73383  -0.70945
 Alpha  occ. eigenvalues --   -0.69220  -0.67653  -0.66037  -0.65394  -0.64713
 Alpha  occ. eigenvalues --   -0.63581  -0.63179  -0.62923  -0.61842  -0.61100
 Alpha  occ. eigenvalues --   -0.60133  -0.58992  -0.58732  -0.58126  -0.56756
 Alpha  occ. eigenvalues --   -0.56096  -0.55513  -0.55243  -0.54916  -0.53549
 Alpha  occ. eigenvalues --   -0.53412  -0.52866  -0.52238  -0.51449  -0.50707
 Alpha  occ. eigenvalues --   -0.50336  -0.50147  -0.50078  -0.49884  -0.49414
 Alpha  occ. eigenvalues --   -0.49215  -0.49115  -0.48635  -0.48474  -0.48141
 Alpha  occ. eigenvalues --   -0.47927  -0.47881  -0.47639  -0.46792  -0.46693
 Alpha  occ. eigenvalues --   -0.46159  -0.45511  -0.45400  -0.45063  -0.44906
 Alpha  occ. eigenvalues --   -0.44574  -0.44275  -0.43854  -0.43411  -0.43076
 Alpha  occ. eigenvalues --   -0.42646  -0.42600  -0.42180  -0.42063  -0.41881
 Alpha  occ. eigenvalues --   -0.41728  -0.41414  -0.41352  -0.40897  -0.40589
 Alpha  occ. eigenvalues --   -0.40507  -0.40191  -0.39551  -0.39516  -0.38903
 Alpha  occ. eigenvalues --   -0.38767  -0.38454  -0.38309  -0.38285  -0.38163
 Alpha  occ. eigenvalues --   -0.38117  -0.37707  -0.37332  -0.36505  -0.36325
 Alpha  occ. eigenvalues --   -0.35865  -0.34977  -0.34181  -0.32730  -0.32242
 Alpha  occ. eigenvalues --   -0.30192  -0.29892  -0.28049  -0.26106  -0.23108
 Alpha  occ. eigenvalues --   -0.18908
 Alpha virt. eigenvalues --   -0.06657  -0.01507   0.02434   0.05503   0.07921
 Alpha virt. eigenvalues --    0.09901   0.10874   0.11765   0.11946   0.12387
 Alpha virt. eigenvalues --    0.12984   0.13356   0.13590   0.13829   0.13940

 Mulliken charges:
               1
     1  O   -0.552856
     2  O   -0.560678
     3  C   -0.027763
     4  C   -0.025874
     5  C   -0.185309
     6  C   -0.175127
     7  C    0.168154
     8  C    0.129278
     9  C    0.047924
    10  C    0.071577
    11  C   -0.214471
    12  C   -0.202805
    13  C    0.024624
    14  C    0.004307
    15  C   -0.273182
    16  C   -0.311572
    17  C   -0.291107
    18  C   -0.286669
    19  C   -0.078012
    20  C   -0.165122
    21  C   -0.367804
    22  C   -0.336194
    23  C   -0.079124
    24  C   -0.091667
    25  C    0.101965
    26  C    0.163672
    27  C   -0.377370
    28  C   -0.388411
    29  C   -0.131804
    30  C   -0.117903
    31  C   -0.117459
    32  C   -0.031826
    33  C   -0.115744
    34  C   -0.139642
    35  C    0.108411
    36  C    0.094704
    37  C   -0.369072
    38  C   -0.384389
    39  C   -0.132368
    40  C   -0.118911
    41  C   -0.052681
    42  C   -0.087373
    43  H    0.074081
    44  H    0.076928
    45  H    0.066539
    46  H    0.111497
    47  H    0.083890
    48  H    0.080314
    49  H    0.134289
    50  H    0.113019
    51  H    0.117160
    52  H    0.125339
    53  H    0.104904
    54  H    0.100557
    55  H    0.079769
    56  H    0.118162
    57  H    0.094477
    58  H    0.083758
    59  H    0.110796
    60  H    0.100286
    61  H    0.095252
    62  H    0.074751
    63  H    0.105796
    64  H    0.094269
    65  H    0.064335
    66  H    0.084178
    67  H    0.127265
    68  H    0.137127
    69  H    0.093120
    70  H    0.096100
    71  H    0.116043
    72  H    0.106262
    73  H    0.299628
    74  H    0.309727
    75  H    0.061614
    76  H    0.074064
    77  H    0.112955
    78  H    0.137531
    79  H    0.089087
    80  H    0.128688
    81  H    0.090333
    82  H    0.101448
    83  H    0.094812
    84  H    0.078534
    85  H    0.094864
    86  H    0.059672
    87  H    0.086853
    88  H    0.084609
    89  H    0.127661
    90  H    0.096105
    91  H    0.124182
    92  H    0.131028
    93  H    0.124155
    94  H    0.085450
    95  H    0.071065
    96  H    0.071926
    97  H    0.086452
    98  H    0.082972
 Sum of Mulliken charges =  -0.00000

 Dipole moment (field-independent basis, Debye):
    X=              1.2611    Y=             -1.1848    Z=              1.1595  Tot=              2.0829
 Quadrupole moment (field-independent basis, Debye-Ang):
   XX=           -299.9903   YY=           -241.4363   ZZ=           -260.5506
   XY=              2.2244   XZ=            -17.9026   YZ=              3.3733

 Normal termination of Gaussian 16 at Fri Jul 12 19:56:03 2019.
