 Gaussian 16, Revision A.03,
 Gaussian 16:  ES64L-G16RevA.03 25-Dec-2016

 -------------------------------------
 # td=(NStates=1) CAM-B3LYP/6-31G(d,p)
 -------------------------------------

 --
 TD
 --
 Symbolic Z-matrix:
 Charge =  0 Multiplicity = 1

                         Standard orientation:
 ---------------------------------------------------------------------
 Center     Atomic      Atomic             Coordinates (Angstroms)
 Number     Number       Type             X           Y           Z
 ---------------------------------------------------------------------
      1          8           0       14.762459   -2.168415   -0.295371
      2          8           0      -14.852163    1.928562    0.861555
      3          6           0       11.324936   -1.385394    1.001529
      4          6           0      -12.435533   -1.097915    0.473929
      5          6           0       12.790951   -1.603754    1.054551
      6          6           0      -13.721782   -0.224217    0.468544
      7          6           0       13.373755   -1.744518   -0.274087
      8          6           0      -13.563828    1.305981    0.798411
      9          6           0       10.992984   -0.242270   -0.018075
     10          6           0      -11.253143   -0.127997   -0.199615
     11          6           0       13.238697   -0.537768   -1.215917
     12          6           0      -12.814591    1.816875   -0.337021
     13          6           0       11.773551    0.127210   -1.118598
     14          6           0      -11.482094    1.075819   -0.614522
     15          6           0       10.951714   -0.969677    2.423654
     16          6           0       10.636073   -2.670711    0.519327
     17          6           0      -12.010612   -1.497547    1.863988
     18          6           0      -12.646742   -2.292328   -0.327285
     19          6           0        9.616358    0.363066    0.252768
     20          6           0      -10.044907   -0.874339   -0.375710
     21          6           0       11.386939    1.056746   -2.173418
     22          6           0      -10.499381    1.967619   -1.271319
     23          6           0        9.330376    1.658355    0.043089
     24          6           0       -8.790963   -0.467578   -0.312955
     25          6           0        8.070101    2.325251    0.057420
     26          6           0       -7.611358   -1.179367   -0.533383
     27          6           0        8.041060    3.806844    0.400631
     28          6           0       -7.683461   -2.561721   -1.040970
     29          6           0        6.854085    1.580364   -0.078164
     30          6           0       -6.438342   -0.596802   -0.328608
     31          6           0        5.525249    2.113265    0.202986
     32          6           0       -5.037184   -1.189072   -0.436232
     33          6           0        4.421960    1.301757   -0.072695
     34          6           0       -3.895763   -0.454238   -0.242774
     35          6           0        3.104626    1.640834    0.139411
     36          6           0       -2.563761   -0.853795   -0.315548
     37          6           0        2.795661    3.077556    0.617388
     38          6           0       -2.377147   -2.300816   -0.670264
     39          6           0        2.116637    0.644858    0.045081
     40          6           0       -1.459209   -0.096843    0.004795
     41          6           0        0.744154    0.789669    0.341023
     42          6           0       -0.115317   -0.304912   -0.121449
     43          1           0       13.328223   -0.758298    1.562771
     44          1           0       13.056336   -2.651970    1.637212
     45          1           0      -14.535995   -0.670406    1.265689
     46          1           0      -14.056279   -0.200791   -0.431298
     47          1           0       12.973986   -2.507288   -0.699853
     48          1           0      -13.048128    1.479392    1.852515
     49          1           0       13.948911    0.234463   -0.812926
     50          1           0       13.423769   -0.685104   -2.332351
     51          1           0      -13.529980    1.628033   -1.270136
     52          1           0      -12.733843    2.965419    0.003942
     53          1           0       11.097537   -1.680432    3.108870
     54          1           0        9.765502   -0.970609    2.597373
     55          1           0       11.356255    0.035167    2.792199
     56          1           0       11.294769   -2.994009   -0.468048
     57          1           0       10.965176   -3.555878    1.211590
     58          1           0        9.497000   -2.617228    0.555060
     59          1           0      -11.961291   -0.518736    2.533352
     60          1           0      -11.078148   -1.911307    1.903615
     61          1           0      -12.707443   -2.259729    2.405775
     62          1           0      -13.543213   -2.919789   -0.128635
     63          1           0      -12.080376   -3.001234   -0.233710
     64          1           0      -12.817461   -2.078019   -1.590228
     65          1           0        8.898888   -0.126587    0.724240
     66          1           0      -10.016945   -1.839193   -0.695664
     67          1           0       10.344862    1.230842   -2.115608
     68          1           0       12.234607    2.029103   -2.206410
     69          1           0       11.562145    0.422743   -3.202187
     70          1           0      -10.995378    2.531084   -1.898334
     71          1           0       -9.784379    1.363655   -1.726989
     72          1           0       -9.888385    2.639170   -0.556040
     73          1           0       14.636385   -2.946144    0.440342
     74          1           0      -15.219085    1.679622    1.665311
     75          1           0       10.113098    2.338135   -0.070081
     76          1           0       -8.428532    0.410623    0.122975
     77          1           0        8.907564    4.103118    0.150271
     78          1           0        7.250835    4.291324   -0.211650
     79          1           0        7.505762    4.025737    1.464804
     80          1           0       -8.057671   -3.199329   -0.124936
     81          1           0       -8.400833   -2.639719   -1.787456
     82          1           0       -6.614371   -2.798827   -1.333512
     83          1           0        7.012488    0.649063   -0.349345
     84          1           0       -6.347828    0.370695    0.062338
     85          1           0        5.537104    3.200417    0.490727
     86          1           0       -4.985388   -2.199209   -0.638415
     87          1           0        4.605431    0.172761   -0.341207
     88          1           0       -4.129330    0.498843    0.100867
     89          1           0        2.967964    3.067559    1.745711
     90          1           0        1.611190    3.224099    0.237263
     91          1           0        3.579526    3.923199    0.210673
     92          1           0       -2.864806   -2.938435    0.087543
     93          1           0       -2.851209   -2.664501   -1.588208
     94          1           0       -1.264646   -2.612106   -0.833689
     95          1           0        2.426027   -0.210031   -0.112051
     96          1           0       -1.934254    0.815411    0.445148
     97          1           0        0.613541    1.881130    0.442185
     98          1           0        0.209449   -1.408016   -0.370363
 ---------------------------------------------------------------------

 SCF Done:  E(RCAM-B3LYP) =  -1706.83358457     A.U. after   15 cycles

 Excitation energies and oscillator strengths:

 Excited State   1:      Singlet-A      2.0337 eV  609.66 nm  f=3.4705  <S**2>=0.000
     155 ->158         0.13931
     156 ->157         0.69584
     156 <-157        -0.10139
 This state for optimization and/or second-order correction.
 Total Energy, E(TD-HF/TD-DFT) =  -1706.75884851
 Copying the excited state density for this state as the 1-particle RhoCI density.

 The electronic state is 1-A.
 Alpha  occ. eigenvalues --  -19.21286 -19.20727 -10.30703 -10.29212 -10.28988
 Alpha  occ. eigenvalues --  -10.28440 -10.28033 -10.27838 -10.27804 -10.27742
 Alpha  occ. eigenvalues --  -10.27683 -10.27665 -10.27432 -10.27344 -10.27136
 Alpha  occ. eigenvalues --  -10.27130 -10.26989 -10.26829 -10.26811 -10.26686
 Alpha  occ. eigenvalues --  -10.26659 -10.26583 -10.26239 -10.26106 -10.25894
 Alpha  occ. eigenvalues --  -10.25789 -10.25773 -10.25768 -10.25705 -10.25674
 Alpha  occ. eigenvalues --  -10.25403 -10.25247 -10.25231 -10.25204 -10.25004
 Alpha  occ. eigenvalues --  -10.24864 -10.24737 -10.24577 -10.24353 -10.24331
 Alpha  occ. eigenvalues --  -10.24324 -10.23287  -1.10138  -1.07321  -0.94214
 Alpha  occ. eigenvalues --   -0.93840  -0.92773  -0.92247  -0.91511  -0.90464
 Alpha  occ. eigenvalues --   -0.88120  -0.87622  -0.86983  -0.85998  -0.84809
 Alpha  occ. eigenvalues --   -0.83655  -0.82213  -0.81085  -0.80496  -0.78540
 Alpha  occ. eigenvalues --   -0.77461  -0.76867  -0.76466  -0.76277  -0.75941
 Alpha  occ. eigenvalues --   -0.75617  -0.75342  -0.74929  -0.74034  -0.71452
 Alpha  occ. eigenvalues --   -0.69338  -0.68047  -0.66224  -0.65571  -0.64634
 Alpha  occ. eigenvalues --   -0.63794  -0.63362  -0.62824  -0.61241  -0.60094
 Alpha  occ. eigenvalues --   -0.59522  -0.59206  -0.58666  -0.58065  -0.57032
 Alpha  occ. eigenvalues --   -0.56454  -0.55810  -0.54863  -0.54296  -0.53919
 Alpha  occ. eigenvalues --   -0.53164  -0.53004  -0.52316  -0.51774  -0.51205
 Alpha  occ. eigenvalues --   -0.51120  -0.50712  -0.50270  -0.50035  -0.49205
 Alpha  occ. eigenvalues --   -0.49078  -0.48710  -0.48442  -0.48315  -0.48049
 Alpha  occ. eigenvalues --   -0.47917  -0.47594  -0.47126  -0.46818  -0.46422
 Alpha  occ. eigenvalues --   -0.46178  -0.46014  -0.45672  -0.45373  -0.45226
 Alpha  occ. eigenvalues --   -0.44690  -0.44659  -0.44518  -0.44336  -0.43601
 Alpha  occ. eigenvalues --   -0.43144  -0.43075  -0.42971  -0.42685  -0.42279
 Alpha  occ. eigenvalues --   -0.41832  -0.41496  -0.41336  -0.41288  -0.41007
 Alpha  occ. eigenvalues --   -0.40366  -0.40327  -0.40091  -0.39878  -0.39067
 Alpha  occ. eigenvalues --   -0.38895  -0.38762  -0.38649  -0.38300  -0.38168
 Alpha  occ. eigenvalues --   -0.37930  -0.37896  -0.37385  -0.36833  -0.36672
 Alpha  occ. eigenvalues --   -0.36158  -0.34460  -0.33624  -0.32645  -0.31693
 Alpha  occ. eigenvalues --   -0.31603  -0.30747  -0.28611  -0.26400  -0.23878
 Alpha  occ. eigenvalues --   -0.19250
 Alpha virt. eigenvalues --   -0.06772  -0.01032   0.01910   0.05426   0.07651
 Alpha virt. eigenvalues --    0.09281   0.10009   0.10654   0.11367   0.11872
 Alpha virt. eigenvalues --    0.12035   0.12375   0.13013   0.13230   0.13366

 Mulliken charges:
               1
     1  O   -0.577116
     2  O   -0.545494
     3  C    0.005849
     4  C    0.010541
     5  C   -0.186721
     6  C   -0.157527
     7  C    0.190738
     8  C    0.151460
     9  C    0.042639
    10  C    0.076765
    11  C   -0.217082
    12  C   -0.222847
    13  C    0.056209
    14  C    0.036315
    15  C   -0.298857
    16  C   -0.296523
    17  C   -0.298461
    18  C   -0.270988
    19  C   -0.101067
    20  C   -0.143313
    21  C   -0.342273
    22  C   -0.340485
    23  C   -0.108829
    24  C   -0.067061
    25  C    0.046234
    26  C    0.129229
    27  C   -0.345311
    28  C   -0.366565
    29  C   -0.089215
    30  C   -0.152706
    31  C   -0.100040
    32  C   -0.087836
    33  C   -0.108881
    34  C   -0.116775
    35  C    0.098051
    36  C    0.122016
    37  C   -0.352565
    38  C   -0.388441
    39  C   -0.065847
    40  C   -0.087123
    41  C   -0.085355
    42  C   -0.110606
    43  H    0.106392
    44  H    0.050032
    45  H    0.046559
    46  H    0.102145
    47  H    0.089418
    48  H    0.061930
    49  H    0.116576
    50  H    0.104406
    51  H    0.110907
    52  H    0.097785
    53  H    0.113835
    54  H    0.068083
    55  H    0.111040
    56  H    0.097370
    57  H    0.084639
    58  H    0.112786
    59  H    0.084923
    60  H    0.117031
    61  H    0.087694
    62  H    0.095632
    63  H    0.105747
    64  H    0.060122
    65  H    0.079829
    66  H    0.076376
    67  H    0.139059
    68  H    0.089902
    69  H    0.086925
    70  H    0.116625
    71  H    0.119598
    72  H    0.104752
    73  H    0.291510
    74  H    0.301071
    75  H    0.079699
    76  H    0.066371
    77  H    0.108970
    78  H    0.114835
    79  H    0.110088
    80  H    0.105997
    81  H    0.128789
    82  H    0.103645
    83  H    0.062599
    84  H    0.073891
    85  H    0.082928
    86  H    0.076263
    87  H    0.082954
    88  H    0.071395
    89  H    0.134471
    90  H    0.090900
    91  H    0.102558
    92  H    0.124212
    93  H    0.117386
    94  H    0.083106
    95  H    0.049011
    96  H    0.075795
    97  H    0.083391
    98  H    0.105917
 Sum of Mulliken charges =  -0.00000

 Dipole moment (field-independent basis, Debye):
    X=             -0.4297    Y=             -1.5630    Z=              2.1972  Tot=              2.7305
 Quadrupole moment (field-independent basis, Debye-Ang):
   XX=           -312.7073   YY=           -246.1730   ZZ=           -260.3838
   XY=             16.4431   XZ=             -0.3202   YZ=              0.9942

 Normal termination of Gaussian 16 at Mon Jul  8 20:07:21 2019.
