 Gaussian 16, Revision A.03,
 Gaussian 16:  ES64L-G16RevA.03 25-Dec-2016

 -------------------------------------
 # td=(NStates=1) CAM-B3LYP/6-31G(d,p)
 -------------------------------------

 --
 TD
 --
 Symbolic Z-matrix:
 Charge =  0 Multiplicity = 1

                         Standard orientation:
 ---------------------------------------------------------------------
 Center     Atomic      Atomic             Coordinates (Angstroms)
 Number     Number       Type             X           Y           Z
 ---------------------------------------------------------------------
      1          8           0       14.668014   -2.459902   -0.296035
      2          8           0      -14.883193    1.709494    0.888604
      3          6           0       11.150807   -1.495318    0.944321
      4          6           0      -12.343109   -1.176307    0.703351
      5          6           0       12.638722   -1.941139    0.940881
      6          6           0      -13.628793   -0.429654    0.704637
      7          6           0       13.270150   -2.015713   -0.305450
      8          6           0      -13.593850    1.094332    0.937433
      9          6           0       11.021096   -0.286999    0.057355
     10          6           0      -11.248021   -0.334214   -0.142208
     11          6           0       13.245312   -0.709029   -1.089721
     12          6           0      -12.788207    1.692057   -0.132565
     13          6           0       11.899462    0.062496   -0.889477
     14          6           0      -11.579802    0.930095   -0.525497
     15          6           0       10.825340   -1.237734    2.452683
     16          6           0       10.361613   -2.797038    0.480956
     17          6           0      -11.780183   -1.466683    2.001159
     18          6           0      -12.612005   -2.488518   -0.080070
     19          6           0        9.707819    0.320512    0.231587
     20          6           0      -10.045582   -1.096114   -0.332509
     21          6           0       11.645855    1.123154   -1.861245
     22          6           0      -10.578334    1.725465   -1.293017
     23          6           0        9.411653    1.553211    0.211886
     24          6           0       -8.778963   -0.459306   -0.499829
     25          6           0        8.081788    2.223011    0.303137
     26          6           0       -7.531296   -1.154773   -0.563312
     27          6           0        8.037100    3.780882    0.498637
     28          6           0       -7.614568   -2.698154   -0.837287
     29          6           0        6.873420    1.681349    0.150630
     30          6           0       -6.407320   -0.520974   -0.448832
     31          6           0        5.596531    2.305087    0.281009
     32          6           0       -5.084163   -0.936316   -0.621285
     33          6           0        4.465305    1.495573    0.042276
     34          6           0       -3.949299   -0.097925   -0.424489
     35          6           0        3.123850    1.859910    0.157103
     36          6           0       -2.602694   -0.513202   -0.658310
     37          6           0        2.845509    3.326482    0.461927
     38          6           0       -2.384264   -1.982407   -1.132712
     39          6           0        2.129479    0.983116   -0.073906
     40          6           0       -1.563347    0.418786   -0.333075
     41          6           0        0.765128    1.245221   -0.194800
     42          6           0       -0.171985    0.160869   -0.425265
     43          1           0       13.241349   -1.346994    1.601875
     44          1           0       12.633327   -2.860698    1.625873
     45          1           0      -14.389690   -0.862943    1.407771
     46          1           0      -14.214564   -0.600211   -0.279714
     47          1           0       12.808044   -2.670173   -1.011616
     48          1           0      -13.221000    1.308557    1.889781
     49          1           0       14.218302   -0.111593   -0.862378
     50          1           0       13.461541   -1.247751   -2.344045
     51          1           0      -13.314668    1.775440   -0.959403
     52          1           0      -12.373666    2.847732   -0.197632
     53          1           0       11.314131   -2.290661    3.113771
     54          1           0        9.708834   -0.888536    2.713071
     55          1           0       11.409597   -0.399225    2.909690
     56          1           0       10.771293   -3.030449   -0.554548
     57          1           0       10.719869   -3.545762    1.184780
     58          1           0        9.201081   -2.679744    0.515424
     59          1           0      -11.475734   -0.590732    2.429949
     60          1           0      -10.900261   -2.093395    1.697549
     61          1           0      -12.314215   -1.921448    2.575948
     62          1           0      -13.471455   -2.896161    0.189541
     63          1           0      -11.833364   -3.114810   -0.036435
     64          1           0      -12.612352   -2.287091   -1.042390
     65          1           0        8.747870   -0.360626    0.415809
     66          1           0      -10.200690   -2.124579   -0.602361
     67          1           0       10.528426    1.392582   -1.935256
     68          1           0       12.236011    2.107254   -1.769691
     69          1           0       11.943156    0.948439   -2.887188
     70          1           0      -11.399878    2.533304   -1.687376
     71          1           0       -9.953304    1.186771   -2.182328
     72          1           0      -10.006768    2.388532   -0.706509
     73          1           0       14.475387   -3.183497    0.300438
     74          1           0      -15.783013    1.371746    1.427474
     75          1           0       10.298506    2.299420    0.408445
     76          1           0       -8.714700    0.526342   -0.216912
     77          1           0        9.013016    4.057672    0.742605
     78          1           0        7.504291    4.171303   -0.267029
     79          1           0        7.455710    3.987115    1.497462
     80          1           0       -8.013347   -3.243584   -0.057737
     81          1           0       -8.037914   -2.794603   -1.725332
     82          1           0       -6.573386   -3.102907   -0.831224
     83          1           0        7.036645    0.574319    0.040418
     84          1           0       -6.520064    0.364176   -0.168282
     85          1           0        5.626105    3.355276    0.522776
     86          1           0       -4.963172   -2.087335   -0.821588
     87          1           0        4.651998    0.425445   -0.187300
     88          1           0       -4.166361    1.045230   -0.381946
     89          1           0        3.302204    3.412451    1.430646
     90          1           0        1.758363    3.886424    0.433096
     91          1           0        3.321917    4.184890   -0.256175
     92          1           0       -2.401731   -2.575219    0.134952
     93          1           0       -3.456069   -2.555244   -1.844068
     94          1           0       -1.321508   -2.295257   -1.643142
     95          1           0        2.471233   -0.057509   -0.149083
     96          1           0       -1.824710    1.602377    0.023419
     97          1           0        0.168205    2.139282    0.141473
     98          1           0        0.291678   -0.934632   -0.682529
 ---------------------------------------------------------------------

 SCF Done:  E(RCAM-B3LYP) =  -1706.76930292     A.U. after   15 cycles

 Excitation energies and oscillator strengths:

 Excited State   1:      Singlet-A      2.1324 eV  581.43 nm  f=3.7376  <S**2>=0.000
     155 ->158        -0.14486
     156 ->157         0.69286
 This state for optimization and/or second-order correction.
 Total Energy, E(TD-HF/TD-DFT) =  -1706.69093876
 Copying the excited state density for this state as the 1-particle RhoCI density.

 The electronic state is 1-A.
 Alpha  occ. eigenvalues --  -19.21021 -19.20914 -10.32731 -10.30352 -10.29451
 Alpha  occ. eigenvalues --  -10.29264 -10.28829 -10.28583 -10.28525 -10.28484
 Alpha  occ. eigenvalues --  -10.28425 -10.27667 -10.27649 -10.27393 -10.27355
 Alpha  occ. eigenvalues --  -10.27320 -10.26944 -10.26868 -10.26803 -10.26624
 Alpha  occ. eigenvalues --  -10.26587 -10.26502 -10.26486 -10.26470 -10.26362
 Alpha  occ. eigenvalues --  -10.26324 -10.26243 -10.26193 -10.26003 -10.25982
 Alpha  occ. eigenvalues --  -10.25744 -10.25349 -10.25323 -10.25145 -10.25098
 Alpha  occ. eigenvalues --  -10.25070 -10.24956 -10.24542 -10.24005 -10.23190
 Alpha  occ. eigenvalues --  -10.21179 -10.21078  -1.09249  -1.06368  -0.94581
 Alpha  occ. eigenvalues --   -0.94134  -0.92292  -0.92147  -0.90616  -0.89667
 Alpha  occ. eigenvalues --   -0.88842  -0.87711  -0.86502  -0.85815  -0.85032
 Alpha  occ. eigenvalues --   -0.83008  -0.81978  -0.80625  -0.79804  -0.79312
 Alpha  occ. eigenvalues --   -0.78108  -0.76865  -0.76585  -0.76142  -0.75568
 Alpha  occ. eigenvalues --   -0.75272  -0.74496  -0.74337  -0.72762  -0.71002
 Alpha  occ. eigenvalues --   -0.69140  -0.67876  -0.66673  -0.65239  -0.64308
 Alpha  occ. eigenvalues --   -0.63594  -0.62891  -0.60986  -0.60905  -0.60206
 Alpha  occ. eigenvalues --   -0.58790  -0.58486  -0.58055  -0.57058  -0.56188
 Alpha  occ. eigenvalues --   -0.55957  -0.55391  -0.54658  -0.54428  -0.54169
 Alpha  occ. eigenvalues --   -0.53468  -0.52358  -0.52013  -0.51856  -0.51568
 Alpha  occ. eigenvalues --   -0.51435  -0.50448  -0.50155  -0.49656  -0.49609
 Alpha  occ. eigenvalues --   -0.49298  -0.48802  -0.48626  -0.48420  -0.47907
 Alpha  occ. eigenvalues --   -0.47877  -0.47655  -0.47000  -0.46830  -0.46538
 Alpha  occ. eigenvalues --   -0.45946  -0.45696  -0.45289  -0.44932  -0.44755
 Alpha  occ. eigenvalues --   -0.44518  -0.43790  -0.43773  -0.43389  -0.43221
 Alpha  occ. eigenvalues --   -0.42784  -0.42585  -0.42475  -0.41895  -0.41351
 Alpha  occ. eigenvalues --   -0.41307  -0.41042  -0.40744  -0.40475  -0.40428
 Alpha  occ. eigenvalues --   -0.40260  -0.40123  -0.39813  -0.39418  -0.38998
 Alpha  occ. eigenvalues --   -0.38984  -0.38758  -0.38478  -0.37907  -0.37607
 Alpha  occ. eigenvalues --   -0.37328  -0.37269  -0.36907  -0.36572  -0.35891
 Alpha  occ. eigenvalues --   -0.35613  -0.34865  -0.33717  -0.32720  -0.32281
 Alpha  occ. eigenvalues --   -0.31790  -0.30254  -0.28711  -0.26267  -0.23559
 Alpha  occ. eigenvalues --   -0.19378
 Alpha virt. eigenvalues --   -0.06291  -0.01145   0.01973   0.04874   0.07665
 Alpha virt. eigenvalues --    0.08345   0.09179   0.09208   0.09816   0.10545
 Alpha virt. eigenvalues --    0.11329   0.11450   0.11780   0.12348   0.12632

 Mulliken charges:
               1
     1  O   -0.556458
     2  O   -0.611426
     3  C   -0.035710
     4  C   -0.033801
     5  C   -0.211210
     6  C   -0.221014
     7  C    0.157775
     8  C    0.208493
     9  C    0.075403
    10  C    0.054124
    11  C   -0.206225
    12  C   -0.208470
    13  C    0.092514
    14  C    0.051850
    15  C   -0.280901
    16  C   -0.277731
    17  C   -0.240073
    18  C   -0.307161
    19  C   -0.115918
    20  C   -0.129534
    21  C   -0.386469
    22  C   -0.364143
    23  C   -0.089546
    24  C   -0.124660
    25  C    0.036273
    26  C    0.094509
    27  C   -0.367207
    28  C   -0.363880
    29  C   -0.090547
    30  C   -0.069353
    31  C   -0.096038
    32  C   -0.087590
    33  C   -0.120875
    34  C   -0.127900
    35  C    0.138989
    36  C    0.110069
    37  C   -0.367225
    38  C   -0.303404
    39  C   -0.135522
    40  C   -0.134525
    41  C   -0.091094
    42  C   -0.070298
    43  H    0.112333
    44  H    0.068095
    45  H    0.070555
    46  H    0.088954
    47  H    0.096193
    48  H    0.088789
    49  H    0.120309
    50  H    0.054744
    51  H    0.148806
    52  H    0.086581
    53  H    0.051627
    54  H    0.098982
    55  H    0.112737
    56  H    0.103941
    57  H    0.107716
    58  H    0.097784
    59  H    0.102762
    60  H    0.090080
    61  H    0.094459
    62  H    0.103274
    63  H    0.094864
    64  H    0.115130
    65  H    0.082205
    66  H    0.097704
    67  H    0.119172
    68  H    0.104822
    69  H    0.115721
    70  H    0.060570
    71  H    0.119196
    72  H    0.133903
    73  H    0.300043
    74  H    0.314447
    75  H    0.081021
    76  H    0.089678
    77  H    0.105959
    78  H    0.140040
    79  H    0.099447
    80  H    0.128046
    81  H    0.133142
    82  H    0.089496
    83  H    0.055151
    84  H    0.043229
    85  H    0.099963
    86  H    0.073774
    87  H    0.087212
    88  H    0.091699
    89  H    0.130807
    90  H    0.095042
    91  H    0.095576
    92  H    0.073464
    93  H    0.084576
    94  H    0.113487
    95  H    0.083036
    96  H    0.079797
    97  H    0.092173
    98  H    0.083594
 Sum of Mulliken charges =  -0.00000

 Dipole moment (field-independent basis, Debye):
    X=             -3.3144    Y=             -1.3062    Z=              1.7489  Tot=              3.9686
 Quadrupole moment (field-independent basis, Debye-Ang):
   XX=           -276.5013   YY=           -247.1503   ZZ=           -263.6143
   XY=             16.2069   XZ=              0.8760   YZ=              0.8287

 Normal termination of Gaussian 16 at Wed Jul 10 06:53:39 2019.
