 Gaussian 16, Revision A.03,
 Gaussian 16:  ES64L-G16RevA.03 25-Dec-2016

 -------------------------------------
 # td=(NStates=1) CAM-B3LYP/6-31G(d,p)
 -------------------------------------

 --
 TD
 --
 Symbolic Z-matrix:
 Charge =  0 Multiplicity = 1

                         Standard orientation:
 ---------------------------------------------------------------------
 Center     Atomic      Atomic             Coordinates (Angstroms)
 Number     Number       Type             X           Y           Z
 ---------------------------------------------------------------------
      1          8           0       14.796558   -2.138310   -0.327948
      2          8           0      -14.568643    2.078653    0.648514
      3          6           0       11.229493   -1.305568    0.930195
      4          6           0      -12.357884   -0.846032    0.714571
      5          6           0       12.666104   -1.719584    0.985694
      6          6           0      -13.693633   -0.117172    0.829034
      7          6           0       13.314923   -1.862698   -0.446497
      8          6           0      -13.398670    1.308396    0.730311
      9          6           0       11.021491   -0.240289   -0.037109
     10          6           0      -11.338482   -0.350151   -0.260067
     11          6           0       13.259123   -0.426974   -1.151184
     12          6           0      -12.610928    1.798673   -0.465252
     13          6           0       11.960608    0.105962   -1.008103
     14          6           0      -11.482982    0.934147   -0.798686
     15          6           0       10.846933   -0.882493    2.281449
     16          6           0       10.510360   -2.662360    0.524251
     17          6           0      -11.679971   -0.967690    2.108126
     18          6           0      -12.739118   -2.403492    0.259811
     19          6           0        9.651229    0.332070    0.100462
     20          6           0      -10.032604   -1.166870   -0.485880
     21          6           0       11.606634    1.213015   -2.067848
     22          6           0      -10.619718    1.629708   -1.911922
     23          6           0        9.288346    1.691204   -0.006123
     24          6           0       -8.838826   -0.526907   -0.441266
     25          6           0        7.990720    2.201922    0.242181
     26          6           0       -7.570292   -1.277033   -0.517776
     27          6           0        7.892307    3.686884    0.552555
     28          6           0       -7.556775   -2.734830   -0.927295
     29          6           0        6.812454    1.368664    0.145292
     30          6           0       -6.343029   -0.641763   -0.445036
     31          6           0        5.518364    1.998045    0.345852
     32          6           0       -5.123119   -1.176934   -0.548841
     33          6           0        4.310639    1.253429    0.232948
     34          6           0       -3.940835   -0.402654   -0.283875
     35          6           0        3.004981    1.591364    0.299466
     36          6           0       -2.679034   -0.849964   -0.317344
     37          6           0        2.849762    3.049405    0.651477
     38          6           0       -2.414344   -2.309847   -0.492230
     39          6           0        2.006759    0.709906   -0.071843
     40          6           0       -1.593211    0.124936   -0.099038
     41          6           0        0.615206    0.976715    0.026014
     42          6           0       -0.288543   -0.040669   -0.267659
     43          1           0       13.179987   -1.006356    1.452170
     44          1           0       12.880436   -2.726331    1.422383
     45          1           0      -14.191657   -0.531330    1.859908
     46          1           0      -14.245233   -0.624564   -0.158017
     47          1           0       12.769898   -2.563704   -1.069870
     48          1           0      -12.855200    1.540267    1.508082
     49          1           0       13.853347    0.220898   -0.518212
     50          1           0       13.475904   -0.560036   -2.229810
     51          1           0      -13.338716    1.806252   -1.219939
     52          1           0      -12.210503    2.830129   -0.405933
     53          1           0       11.068660   -1.549563    2.967421
     54          1           0        9.850399   -0.588541    2.608089
     55          1           0       11.435525    0.007112    2.625514
     56          1           0       10.801105   -3.275617   -0.486492
     57          1           0       10.639780   -3.482704    1.189650
     58          1           0        9.356384   -2.455793    0.360553
     59          1           0      -11.597373    0.034641    2.663623
     60          1           0      -10.613540   -1.327148    2.255963
     61          1           0      -12.411739   -1.533651    2.826571
     62          1           0      -13.563668   -2.614269    0.871178
     63          1           0      -11.697962   -2.818839    0.394779
     64          1           0      -12.822081   -2.455337   -0.835705
     65          1           0        8.880882   -0.278304    0.593603
     66          1           0      -10.164670   -2.204661   -0.727749
     67          1           0       10.542659    1.566511   -2.042777
     68          1           0       12.297685    2.161909   -1.564628
     69          1           0       11.794070    0.719725   -3.121594
     70          1           0      -11.233916    2.078351   -2.589641
     71          1           0       -9.900296    1.070050   -2.579071
     72          1           0      -10.009764    2.381249   -1.447260
     73          1           0       14.807400   -3.093213   -0.097340
     74          1           0      -15.141117    1.741221    1.450821
     75          1           0       10.236309    2.174660   -0.193514
     76          1           0       -8.660223    0.457492   -0.391315
     77          1           0        8.953208    4.160898    0.463440
     78          1           0        7.305103    4.357667   -0.283761
     79          1           0        7.394230    3.870301    1.444566
     80          1           0       -8.045880   -3.369170   -0.137709
     81          1           0       -8.380766   -2.937277   -1.738071
     82          1           0       -6.667753   -3.252707   -1.297637
     83          1           0        6.894576    0.191795   -0.027029
     84          1           0       -6.571855    0.348317   -0.198848
     85          1           0        5.495001    3.030157    0.467436
     86          1           0       -4.992871   -2.286110   -0.515993
     87          1           0        4.577435    0.283572    0.158653
     88          1           0       -4.007070    0.631175    0.040318
     89          1           0        3.819104    3.164855    1.471163
     90          1           0        1.920971    3.404631    1.023968
     91          1           0        3.179006    3.679561   -0.078785
     92          1           0       -2.957368   -2.966209    0.156796
     93          1           0       -2.673252   -2.578234   -1.597316
     94          1           0       -1.270204   -2.546038   -0.397833
     95          1           0        2.315984   -0.243458   -0.468380
     96          1           0       -2.096515    1.028240    0.194224
     97          1           0        0.203254    2.019092    0.682627
     98          1           0        0.242922   -0.989123   -0.750688
 ---------------------------------------------------------------------

 SCF Done:  E(RCAM-B3LYP) =  -1706.92373713     A.U. after   17 cycles

 Excitation energies and oscillator strengths:

 Excited State   1:      Singlet-A      1.7094 eV  725.33 nm  f=3.7614  <S**2>=0.000
     155 ->158        -0.13485
     156 ->157         0.70327
     156 <-157        -0.13879
 This state for optimization and/or second-order correction.
 Total Energy, E(TD-HF/TD-DFT) =  -1706.86091957
 Copying the excited state density for this state as the 1-particle RhoCI density.

 The electronic state is 1-A.
 Alpha  occ. eigenvalues --  -19.21651 -19.20961 -10.31310 -10.28491 -10.28229
 Alpha  occ. eigenvalues --  -10.28212 -10.28001 -10.27746 -10.27572 -10.27324
 Alpha  occ. eigenvalues --  -10.27161 -10.27160 -10.27118 -10.27000 -10.26900
 Alpha  occ. eigenvalues --  -10.26877 -10.26747 -10.26675 -10.26556 -10.26479
 Alpha  occ. eigenvalues --  -10.26478 -10.26424 -10.26394 -10.26326 -10.26272
 Alpha  occ. eigenvalues --  -10.26267 -10.26218 -10.25972 -10.25930 -10.25911
 Alpha  occ. eigenvalues --  -10.25859 -10.25757 -10.25668 -10.25533 -10.25420
 Alpha  occ. eigenvalues --  -10.24941 -10.24594 -10.24451 -10.24367 -10.24334
 Alpha  occ. eigenvalues --  -10.23990 -10.23244  -1.08878  -1.06969  -0.95008
 Alpha  occ. eigenvalues --   -0.93154  -0.92580  -0.91953  -0.90565  -0.89778
 Alpha  occ. eigenvalues --   -0.88302  -0.87693  -0.86485  -0.85367  -0.84581
 Alpha  occ. eigenvalues --   -0.82513  -0.81594  -0.79640  -0.79128  -0.78541
 Alpha  occ. eigenvalues --   -0.77119  -0.76402  -0.76270  -0.75594  -0.75511
 Alpha  occ. eigenvalues --   -0.75302  -0.75202  -0.74823  -0.73135  -0.71125
 Alpha  occ. eigenvalues --   -0.69092  -0.67625  -0.66420  -0.65193  -0.64687
 Alpha  occ. eigenvalues --   -0.63935  -0.63167  -0.61172  -0.60570  -0.60024
 Alpha  occ. eigenvalues --   -0.59651  -0.59067  -0.58784  -0.58140  -0.56200
 Alpha  occ. eigenvalues --   -0.55740  -0.55435  -0.54651  -0.54222  -0.53769
 Alpha  occ. eigenvalues --   -0.52765  -0.52527  -0.52318  -0.51495  -0.51122
 Alpha  occ. eigenvalues --   -0.50839  -0.50295  -0.49930  -0.49328  -0.49018
 Alpha  occ. eigenvalues --   -0.48657  -0.48499  -0.48272  -0.48181  -0.48042
 Alpha  occ. eigenvalues --   -0.47735  -0.47281  -0.46740  -0.46636  -0.46197
 Alpha  occ. eigenvalues --   -0.46091  -0.45710  -0.45540  -0.45094  -0.44491
 Alpha  occ. eigenvalues --   -0.44324  -0.44021  -0.43742  -0.43557  -0.43359
 Alpha  occ. eigenvalues --   -0.43110  -0.42882  -0.42672  -0.42507  -0.42377
 Alpha  occ. eigenvalues --   -0.41988  -0.41626  -0.41276  -0.41110  -0.40740
 Alpha  occ. eigenvalues --   -0.40428  -0.40040  -0.39956  -0.39876  -0.39619
 Alpha  occ. eigenvalues --   -0.39409  -0.39135  -0.38930  -0.38354  -0.37743
 Alpha  occ. eigenvalues --   -0.37398  -0.37176  -0.37036  -0.36695  -0.35838
 Alpha  occ. eigenvalues --   -0.35462  -0.34930  -0.34030  -0.32443  -0.32379
 Alpha  occ. eigenvalues --   -0.31358  -0.29435  -0.27512  -0.25931  -0.22572
 Alpha  occ. eigenvalues --   -0.17637
 Alpha virt. eigenvalues --   -0.07476  -0.01615   0.02697   0.05481   0.07744
 Alpha virt. eigenvalues --    0.08968   0.10639   0.11213   0.11315   0.11526
 Alpha virt. eigenvalues --    0.11834   0.12145   0.12723   0.13061   0.13129

 Mulliken charges:
               1
     1  O   -0.560923
     2  O   -0.569692
     3  C   -0.015496
     4  C   -0.042388
     5  C   -0.170284
     6  C   -0.197017
     7  C    0.110824
     8  C    0.203510
     9  C    0.082577
    10  C    0.054669
    11  C   -0.207208
    12  C   -0.230592
    13  C    0.020445
    14  C    0.030158
    15  C   -0.310766
    16  C   -0.305136
    17  C   -0.300407
    18  C   -0.311217
    19  C   -0.111072
    20  C   -0.147717
    21  C   -0.336845
    22  C   -0.368707
    23  C   -0.125664
    24  C   -0.047987
    25  C    0.075033
    26  C    0.089358
    27  C   -0.368656
    28  C   -0.389499
    29  C   -0.120004
    30  C   -0.084984
    31  C   -0.088908
    32  C   -0.115571
    33  C   -0.126145
    34  C   -0.120769
    35  C    0.146514
    36  C    0.122904
    37  C   -0.369987
    38  C   -0.377473
    39  C   -0.133224
    40  C   -0.117111
    41  C   -0.075941
    42  C   -0.079733
    43  H    0.105013
    44  H    0.077071
    45  H    0.078213
    46  H    0.086040
    47  H    0.097153
    48  H    0.089284
    49  H    0.138524
    50  H    0.112164
    51  H    0.132237
    52  H    0.111008
    53  H    0.108427
    54  H    0.109642
    55  H    0.097495
    56  H    0.077892
    57  H    0.112557
    58  H    0.083915
    59  H    0.089534
    60  H    0.114768
    61  H    0.075953
    62  H    0.111351
    63  H    0.099760
    64  H    0.108748
    65  H    0.087163
    66  H    0.099551
    67  H    0.129729
    68  H    0.087552
    69  H    0.101850
    70  H    0.120446
    71  H    0.110031
    72  H    0.114930
    73  H    0.303353
    74  H    0.296560
    75  H    0.094892
    76  H    0.083273
    77  H    0.106314
    78  H    0.098054
    79  H    0.139598
    80  H    0.110074
    81  H    0.098977
    82  H    0.118654
    83  H    0.090704
    84  H    0.065649
    85  H    0.081954
    86  H    0.093116
    87  H    0.062252
    88  H    0.077585
    89  H    0.076893
    90  H    0.106498
    91  H    0.143024
    92  H    0.130935
    93  H    0.111167
    94  H    0.094306
    95  H    0.087485
    96  H    0.081891
    97  H    0.075999
    98  H    0.093921
 Sum of Mulliken charges =  -0.00000

 Dipole moment (field-independent basis, Debye):
    X=              0.7970    Y=             -1.9420    Z=              1.4807  Tot=              2.5689
 Quadrupole moment (field-independent basis, Debye-Ang):
   XX=           -281.1552   YY=           -244.3692   ZZ=           -261.0597
   XY=              0.0257   XZ=            -10.0012   YZ=              3.3630

 Normal termination of Gaussian 16 at Fri Jul 19 17:30:07 2019.
