 Gaussian 16, Revision A.03,
 Gaussian 16:  ES64L-G16RevA.03 25-Dec-2016

 -------------------------------------
 # td=(NStates=1) CAM-B3LYP/6-31G(d,p)
 -------------------------------------

 --
 TD
 --
 Symbolic Z-matrix:
 Charge =  0 Multiplicity = 1

                         Standard orientation:
 ---------------------------------------------------------------------
 Center     Atomic      Atomic             Coordinates (Angstroms)
 Number     Number       Type             X           Y           Z
 ---------------------------------------------------------------------
      1          8           0       14.748232   -2.344172   -0.160760
      2          8           0      -14.809622    1.646259    1.311351
      3          6           0       11.190823   -1.478644    0.996344
      4          6           0      -12.389313   -1.127512    0.680296
      5          6           0       12.667009   -1.886745    1.043260
      6          6           0      -13.759214   -0.377872    0.793360
      7          6           0       13.349353   -2.009467   -0.340261
      8          6           0      -13.570165    1.064281    1.093879
      9          6           0       11.051059   -0.343578    0.047854
     10          6           0      -11.358375   -0.246676   -0.177661
     11          6           0       13.337431   -0.520462   -0.779533
     12          6           0      -12.868129    1.710487   -0.068854
     13          6           0       12.057690    0.091026   -0.793245
     14          6           0      -11.657503    1.056008   -0.577776
     15          6           0       10.766749   -1.086088    2.346032
     16          6           0       10.486695   -2.745077    0.513693
     17          6           0      -11.772258   -1.281330    2.100738
     18          6           0      -12.714707   -2.409042    0.013238
     19          6           0        9.722287    0.255537    0.159532
     20          6           0      -10.092019   -0.977501   -0.349888
     21          6           0       11.848828    1.364972   -1.584726
     22          6           0      -10.821661    1.772750   -1.532314
     23          6           0        9.332433    1.561725    0.110510
     24          6           0       -8.787497   -0.421432   -0.391440
     25          6           0        8.066130    2.245375    0.268595
     26          6           0       -7.598772   -1.147132   -0.610792
     27          6           0        8.022863    3.661170    0.804432
     28          6           0       -7.518982   -2.660549   -0.919683
     29          6           0        6.870144    1.547981    0.008180
     30          6           0       -6.404887   -0.367231   -0.622169
     31          6           0        5.572830    2.034672    0.063431
     32          6           0       -5.044382   -0.918527   -0.792769
     33          6           0        4.461579    1.247333   -0.206836
     34          6           0       -3.914239   -0.158961   -0.655397
     35          6           0        3.161695    1.754268   -0.004071
     36          6           0       -2.624461   -0.604221   -0.840289
     37          6           0        2.933274    3.055361    0.484065
     38          6           0       -2.477306   -2.050083   -1.152977
     39          6           0        2.135984    0.856259   -0.240381
     40          6           0       -1.533283    0.316617   -0.630021
     41          6           0        0.676403    1.054064   -0.187767
     42          6           0       -0.184579    0.080594   -0.574498
     43          1           0       13.325978   -1.209609    1.885334
     44          1           0       12.563994   -2.855494    1.648712
     45          1           0      -14.076994   -0.988799    1.628640
     46          1           0      -14.311428   -0.468540   -0.100997
     47          1           0       12.944750   -2.480098   -1.200759
     48          1           0      -13.017957    1.307733    1.990353
     49          1           0       14.046841    0.156829   -0.229472
     50          1           0       13.637751   -0.349734   -1.763649
     51          1           0      -13.506125    1.853824   -0.992158
     52          1           0      -12.520161    2.763027    0.249702
     53          1           0       10.939572   -1.748289    3.032410
     54          1           0        9.562785   -1.111911    2.512289
     55          1           0       11.337665   -0.224378    2.636107
     56          1           0       10.572387   -3.014382   -0.398432
     57          1           0       10.550393   -3.697259    1.091169
     58          1           0        9.389661   -2.405327    0.432327
     59          1           0      -11.916607   -0.328442    2.589692
     60          1           0      -10.889938   -1.786681    2.119500
     61          1           0      -12.443733   -1.851048    2.598794
     62          1           0      -13.487750   -2.988882    0.716624
     63          1           0      -11.602807   -3.045830    0.101696
     64          1           0      -13.233164   -2.614983   -0.979554
     65          1           0        8.819176   -0.381561    0.451227
     66          1           0      -10.158268   -2.023177   -0.464637
     67          1           0       10.825647    1.668250   -1.798316
     68          1           0       12.254714    2.298491   -0.985868
     69          1           0       12.493029    1.287807   -2.588008
     70          1           0      -11.423790    2.318301   -2.055850
     71          1           0      -10.207218    1.165841   -2.109161
     72          1           0       -9.999162    2.298319   -0.952852
     73          1           0       14.612238   -3.159534    0.442194
     74          1           0      -15.449066    1.422603    1.949883
     75          1           0       10.275853    2.159427    0.151202
     76          1           0       -8.620970    0.541181    0.035258
     77          1           0        9.073815    4.225480    0.812410
     78          1           0        7.212498    4.247569    0.168634
     79          1           0        7.590613    3.483341    1.878356
     80          1           0       -7.592662   -3.405668    0.136423
     81          1           0       -8.455366   -2.764964   -1.674975
     82          1           0       -6.492279   -2.936519   -1.428600
     83          1           0        6.967687    0.507278   -0.601522
     84          1           0       -6.258505    0.771436   -0.221120
     85          1           0        5.518289    3.036444    0.499390
     86          1           0       -4.830784   -1.832191   -0.982930
     87          1           0        4.486041    0.334630   -0.595953
     88          1           0       -4.005528    0.865851   -0.223449
     89          1           0        3.332828    3.245982    1.420989
     90          1           0        1.955433    3.276137    0.282050
     91          1           0        3.468619    3.878914   -0.194133
     92          1           0       -2.864721   -2.654354   -0.259752
     93          1           0       -3.334383   -2.366968   -1.911118
     94          1           0       -1.456140   -2.357270   -1.379035
     95          1           0        2.244180   -0.176692   -0.608420
     96          1           0       -1.704583    1.196261   -0.283394
     97          1           0        0.340713    2.000759    0.246512
     98          1           0        0.290874   -0.973917   -0.893049
 ---------------------------------------------------------------------

 SCF Done:  E(RCAM-B3LYP) =  -1706.90833811     A.U. after   15 cycles

 Excitation energies and oscillator strengths:

 Excited State   1:      Singlet-A      2.0737 eV  597.90 nm  f=3.9462  <S**2>=0.000
     155 ->158        -0.17167
     156 ->157         0.68478
 This state for optimization and/or second-order correction.
 Total Energy, E(TD-HF/TD-DFT) =  -1706.83213198
 Copying the excited state density for this state as the 1-particle RhoCI density.

 The electronic state is 1-A.
 Alpha  occ. eigenvalues --  -19.21766 -19.19167 -10.31191 -10.30149 -10.29605
 Alpha  occ. eigenvalues --  -10.28320 -10.27926 -10.27869 -10.27674 -10.27441
 Alpha  occ. eigenvalues --  -10.27364 -10.27348 -10.27027 -10.26979 -10.26794
 Alpha  occ. eigenvalues --  -10.26646 -10.26633 -10.26612 -10.26566 -10.26404
 Alpha  occ. eigenvalues --  -10.26341 -10.26187 -10.26158 -10.25935 -10.25833
 Alpha  occ. eigenvalues --  -10.25817 -10.25798 -10.25731 -10.25533 -10.25510
 Alpha  occ. eigenvalues --  -10.25380 -10.25340 -10.25161 -10.24976 -10.24840
 Alpha  occ. eigenvalues --  -10.24589 -10.24312 -10.23761 -10.23742 -10.23700
 Alpha  occ. eigenvalues --  -10.22994 -10.22831  -1.09551  -1.08272  -0.94873
 Alpha  occ. eigenvalues --   -0.93281  -0.92902  -0.92137  -0.90049  -0.89564
 Alpha  occ. eigenvalues --   -0.88603  -0.88192  -0.88002  -0.85386  -0.84504
 Alpha  occ. eigenvalues --   -0.82959  -0.82156  -0.79998  -0.79546  -0.78841
 Alpha  occ. eigenvalues --   -0.78096  -0.77093  -0.76604  -0.76159  -0.75850
 Alpha  occ. eigenvalues --   -0.75177  -0.74632  -0.74387  -0.72705  -0.70915
 Alpha  occ. eigenvalues --   -0.69537  -0.68374  -0.66632  -0.65094  -0.64694
 Alpha  occ. eigenvalues --   -0.63173  -0.62530  -0.62267  -0.60976  -0.60253
 Alpha  occ. eigenvalues --   -0.59330  -0.58725  -0.58030  -0.57810  -0.56966
 Alpha  occ. eigenvalues --   -0.56352  -0.55620  -0.54806  -0.54272  -0.53827
 Alpha  occ. eigenvalues --   -0.53619  -0.53073  -0.52477  -0.51943  -0.51622
 Alpha  occ. eigenvalues --   -0.51505  -0.50562  -0.50047  -0.49439  -0.49391
 Alpha  occ. eigenvalues --   -0.49173  -0.48772  -0.48561  -0.47844  -0.47604
 Alpha  occ. eigenvalues --   -0.47145  -0.46893  -0.46675  -0.46516  -0.46415
 Alpha  occ. eigenvalues --   -0.46363  -0.45767  -0.45550  -0.45248  -0.45113
 Alpha  occ. eigenvalues --   -0.44603  -0.44070  -0.43683  -0.43611  -0.43553
 Alpha  occ. eigenvalues --   -0.43394  -0.42847  -0.42786  -0.42582  -0.42429
 Alpha  occ. eigenvalues --   -0.42067  -0.41807  -0.41792  -0.41283  -0.40807
 Alpha  occ. eigenvalues --   -0.40603  -0.40381  -0.40325  -0.39766  -0.39500
 Alpha  occ. eigenvalues --   -0.39377  -0.39241  -0.38301  -0.38027  -0.37675
 Alpha  occ. eigenvalues --   -0.37373  -0.36902  -0.36722  -0.35546  -0.35106
 Alpha  occ. eigenvalues --   -0.34473  -0.34266  -0.33875  -0.32902  -0.31968
 Alpha  occ. eigenvalues --   -0.31205  -0.29395  -0.27655  -0.25268  -0.22218
 Alpha  occ. eigenvalues --   -0.18875
 Alpha virt. eigenvalues --   -0.05941  -0.01628   0.01967   0.05343   0.07804
 Alpha virt. eigenvalues --    0.09500   0.11597   0.11722   0.12024   0.12168
 Alpha virt. eigenvalues --    0.12517   0.12748   0.13106   0.13533   0.13748

 Mulliken charges:
               1
     1  O   -0.557538
     2  O   -0.591248
     3  C   -0.016214
     4  C   -0.041427
     5  C   -0.209981
     6  C   -0.186038
     7  C    0.166967
     8  C    0.214156
     9  C    0.065058
    10  C    0.065025
    11  C   -0.224772
    12  C   -0.232914
    13  C    0.068958
    14  C    0.042827
    15  C   -0.281405
    16  C   -0.296532
    17  C   -0.292875
    18  C   -0.277658
    19  C   -0.101926
    20  C   -0.144238
    21  C   -0.366090
    22  C   -0.339223
    23  C   -0.133376
    24  C   -0.098244
    25  C    0.080385
    26  C    0.096812
    27  C   -0.364612
    28  C   -0.337921
    29  C   -0.117322
    30  C   -0.134155
    31  C   -0.099457
    32  C   -0.051313
    33  C   -0.073331
    34  C   -0.114257
    35  C    0.133483
    36  C    0.131242
    37  C   -0.375123
    38  C   -0.391857
    39  C   -0.145457
    40  C   -0.108324
    41  C   -0.097759
    42  C   -0.074259
    43  H    0.078255
    44  H    0.069519
    45  H    0.081831
    46  H    0.107027
    47  H    0.108971
    48  H    0.079891
    49  H    0.123614
    50  H    0.100977
    51  H    0.111402
    52  H    0.103242
    53  H    0.107848
    54  H    0.081980
    55  H    0.108794
    56  H    0.116002
    57  H    0.097854
    58  H    0.082520
    59  H    0.106680
    60  H    0.117282
    61  H    0.100235
    62  H    0.074508
    63  H    0.054571
    64  H    0.116941
    65  H    0.079242
    66  H    0.080332
    67  H    0.141707
    68  H    0.104786
    69  H    0.080862
    70  H    0.107492
    71  H    0.132650
    72  H    0.108255
    73  H    0.306193
    74  H    0.303731
    75  H    0.072224
    76  H    0.090681
    77  H    0.109133
    78  H    0.113322
    79  H    0.126884
    80  H    0.094692
    81  H    0.109088
    82  H    0.112094
    83  H    0.072470
    84  H    0.076379
    85  H    0.079452
    86  H    0.043509
    87  H    0.072732
    88  H    0.071442
    89  H    0.137540
    90  H    0.113427
    91  H    0.094766
    92  H    0.124349
    93  H    0.109954
    94  H    0.111307
    95  H    0.074174
    96  H    0.064563
    97  H    0.087667
    98  H    0.074890
 Sum of Mulliken charges =  -0.00000

 Dipole moment (field-independent basis, Debye):
    X=             -1.4252    Y=             -1.1365    Z=              2.1763  Tot=              2.8389
 Quadrupole moment (field-independent basis, Debye-Ang):
   XX=           -272.3442   YY=           -244.6079   ZZ=           -259.7513
   XY=              7.3038   XZ=             -3.0809   YZ=              1.7949

 Normal termination of Gaussian 16 at Tue Jul 16 17:27:49 2019.
