 Gaussian 16, Revision A.03,
 Gaussian 16:  ES64L-G16RevA.03 25-Dec-2016

 -------------------------------------
 # td=(NStates=1) CAM-B3LYP/6-31G(d,p)
 -------------------------------------

 --
 TD
 --
 Symbolic Z-matrix:
 Charge =  0 Multiplicity = 1

                         Standard orientation:
 ---------------------------------------------------------------------
 Center     Atomic      Atomic             Coordinates (Angstroms)
 Number     Number       Type             X           Y           Z
 ---------------------------------------------------------------------
      1          8           0       14.796681   -2.208475   -0.369216
      2          8           0      -14.950660    1.817355    0.934207
      3          6           0       11.282964   -1.483120    0.989725
      4          6           0      -12.424696   -0.994537    0.517649
      5          6           0       12.759736   -1.728607    1.028180
      6          6           0      -13.829325   -0.288188    0.495618
      7          6           0       13.366138   -1.876194   -0.292089
      8          6           0      -13.650281    1.052602    0.875130
      9          6           0       10.925908   -0.242573   -0.037773
     10          6           0      -11.325756   -0.300234   -0.265085
     11          6           0       13.283400   -0.506941   -1.029080
     12          6           0      -12.799596    1.874140   -0.277597
     13          6           0       11.882345    0.114126   -0.987734
     14          6           0      -11.570219    1.043603   -0.607746
     15          6           0       10.829864   -1.061320    2.332568
     16          6           0       10.388199   -2.757523    0.459435
     17          6           0      -11.971451   -1.311356    1.890081
     18          6           0      -12.743201   -2.362049   -0.318608
     19          6           0        9.719635    0.358259    0.077724
     20          6           0      -10.075623   -0.982693   -0.469165
     21          6           0       11.669990    1.109422   -1.991791
     22          6           0      -10.678003    1.836342   -1.529720
     23          6           0        9.444367    1.626841   -0.064532
     24          6           0       -8.844887   -0.462034   -0.321483
     25          6           0        8.146991    2.249378    0.157624
     26          6           0       -7.621260   -1.190672   -0.446595
     27          6           0        8.048468    3.742978    0.488438
     28          6           0       -7.583536   -2.643826   -0.688487
     29          6           0        7.019846    1.551826    0.038805
     30          6           0       -6.446628   -0.449532   -0.427788
     31          6           0        5.752269    2.066191    0.274271
     32          6           0       -5.073377   -0.973533   -0.426012
     33          6           0        4.527737    1.219392    0.089166
     34          6           0       -3.949251   -0.212932   -0.239188
     35          6           0        3.150854    1.661450    0.268860
     36          6           0       -2.595622   -0.710996   -0.313331
     37          6           0        2.886539    3.015646    0.656554
     38          6           0       -2.319554   -2.177637   -0.784886
     39          6           0        2.170266    0.759308    0.008416
     40          6           0       -1.585662    0.162494   -0.215522
     41          6           0        0.782020    0.898194    0.169824
     42          6           0       -0.189387   -0.080631   -0.216499
     43          1           0       13.130094   -0.900681    1.558254
     44          1           0       12.753483   -2.712337    1.562601
     45          1           0      -14.615308   -1.011125    1.159181
     46          1           0      -14.172033   -0.402898   -0.686518
     47          1           0       13.044889   -2.750796   -0.972761
     48          1           0      -12.979746    1.281890    1.735837
     49          1           0       14.014306    0.097175   -0.675626
     50          1           0       13.471967   -0.532940   -2.088209
     51          1           0      -13.509568    1.953076   -1.166836
     52          1           0      -12.401534    2.754116   -0.163832
     53          1           0       11.023478   -1.993355    2.891196
     54          1           0        9.723342   -0.775655    2.424464
     55          1           0       11.382074   -0.173703    2.602960
     56          1           0       10.432977   -3.048526   -0.551627
     57          1           0       10.468597   -3.579463    1.169098
     58          1           0        9.297365   -2.517086    0.316167
     59          1           0      -11.913978   -0.525341    2.675205
     60          1           0      -11.129771   -1.911958    1.846384
     61          1           0      -12.789986   -2.159913    2.377069
     62          1           0      -13.617608   -2.663479    0.082320
     63          1           0      -11.872545   -3.076544   -0.295722
     64          1           0      -12.692169   -2.126642   -1.386371
     65          1           0        8.856800   -0.155614    0.464058
     66          1           0      -10.114354   -2.141237   -0.662824
     67          1           0       10.617928    1.458152   -2.072428
     68          1           0       12.160909    2.047176   -1.875151
     69          1           0       11.965252    0.715927   -2.894325
     70          1           0      -11.265475    2.507338   -2.158394
     71          1           0      -10.098878    1.321892   -2.087138
     72          1           0       -9.907348    2.579531   -0.977436
     73          1           0       15.018109   -2.920172    0.167963
     74          1           0      -15.544382    1.652560    1.785954
     75          1           0       10.267143    2.363457   -0.276937
     76          1           0       -8.569090    0.506378    0.224974
     77          1           0        8.968436    4.119129    0.914318
     78          1           0        7.737031    4.463219   -0.271599
     79          1           0        7.306016    4.118073    1.476889
     80          1           0       -7.883958   -3.293518    0.175573
     81          1           0       -7.944842   -3.010469   -1.789720
     82          1           0       -6.511052   -2.878449   -0.878566
     83          1           0        6.968006    0.538473   -0.250092
     84          1           0       -6.565875    0.621874   -0.514546
     85          1           0        5.557196    2.977451    0.630653
     86          1           0       -5.006549   -2.173098   -0.318780
     87          1           0        4.799606    0.153095   -0.470310
     88          1           0       -3.979531    0.787025   -0.114401
     89          1           0        3.441149    3.334821    1.583605
     90          1           0        1.858380    3.124396    0.879274
     91          1           0        3.180048    3.984933   -0.076487
     92          1           0       -2.672427   -2.946594    0.048282
     93          1           0       -2.576688   -2.505793   -1.749553
     94          1           0       -1.333950   -2.373215   -0.602109
     95          1           0        2.386102   -0.243958   -0.684894
     96          1           0       -2.025768    1.181778    0.051375
     97          1           0        0.384950    1.836572    0.594635
     98          1           0        0.149279   -1.116388   -0.409172
 ---------------------------------------------------------------------

 SCF Done:  E(RCAM-B3LYP) =  -1706.94136039     A.U. after   15 cycles

 Excitation energies and oscillator strengths:

 Excited State   1:      Singlet-A      2.2213 eV  558.16 nm  f=3.6850  <S**2>=0.000
     155 ->158         0.16249
     156 ->157         0.68583
 This state for optimization and/or second-order correction.
 Total Energy, E(TD-HF/TD-DFT) =  -1706.85972905
 Copying the excited state density for this state as the 1-particle RhoCI density.

 The electronic state is 1-A.
 Alpha  occ. eigenvalues --  -19.20550 -19.19428 -10.31208 -10.30830 -10.28324
 Alpha  occ. eigenvalues --  -10.28179 -10.27672 -10.27622 -10.27537 -10.27519
 Alpha  occ. eigenvalues --  -10.27408 -10.27368 -10.27341 -10.27221 -10.27081
 Alpha  occ. eigenvalues --  -10.27061 -10.26908 -10.26892 -10.26846 -10.26665
 Alpha  occ. eigenvalues --  -10.26664 -10.26446 -10.26340 -10.26280 -10.26184
 Alpha  occ. eigenvalues --  -10.26148 -10.25808 -10.25776 -10.25463 -10.25442
 Alpha  occ. eigenvalues --  -10.25420 -10.25240 -10.25202 -10.25200 -10.25037
 Alpha  occ. eigenvalues --  -10.24777 -10.24535 -10.24391 -10.24271 -10.24198
 Alpha  occ. eigenvalues --  -10.24042 -10.23180  -1.08085  -1.04355  -0.94088
 Alpha  occ. eigenvalues --   -0.93519  -0.92171  -0.91719  -0.91105  -0.90521
 Alpha  occ. eigenvalues --   -0.88432  -0.86852  -0.86700  -0.86128  -0.84877
 Alpha  occ. eigenvalues --   -0.82943  -0.82142  -0.80580  -0.80156  -0.78177
 Alpha  occ. eigenvalues --   -0.77014  -0.76683  -0.76449  -0.76410  -0.76170
 Alpha  occ. eigenvalues --   -0.75938  -0.75498  -0.75253  -0.73450  -0.70787
 Alpha  occ. eigenvalues --   -0.68958  -0.67635  -0.65937  -0.65206  -0.63629
 Alpha  occ. eigenvalues --   -0.62962  -0.62333  -0.61210  -0.60750  -0.60436
 Alpha  occ. eigenvalues --   -0.59048  -0.59002  -0.57692  -0.57335  -0.56950
 Alpha  occ. eigenvalues --   -0.55768  -0.55716  -0.54898  -0.54646  -0.53785
 Alpha  occ. eigenvalues --   -0.53301  -0.53008  -0.52672  -0.52249  -0.50884
 Alpha  occ. eigenvalues --   -0.50295  -0.49943  -0.49722  -0.49453  -0.49362
 Alpha  occ. eigenvalues --   -0.49072  -0.48706  -0.48581  -0.48183  -0.48067
 Alpha  occ. eigenvalues --   -0.47874  -0.47606  -0.47138  -0.46835  -0.46580
 Alpha  occ. eigenvalues --   -0.46522  -0.45996  -0.45781  -0.45447  -0.45074
 Alpha  occ. eigenvalues --   -0.44562  -0.44207  -0.43485  -0.43017  -0.42694
 Alpha  occ. eigenvalues --   -0.42328  -0.42284  -0.42199  -0.42141  -0.42058
 Alpha  occ. eigenvalues --   -0.41726  -0.41524  -0.41198  -0.41099  -0.40600
 Alpha  occ. eigenvalues --   -0.40518  -0.40254  -0.40009  -0.39629  -0.39471
 Alpha  occ. eigenvalues --   -0.39343  -0.38976  -0.38494  -0.38097  -0.37945
 Alpha  occ. eigenvalues --   -0.37665  -0.36957  -0.36520  -0.36283  -0.35907
 Alpha  occ. eigenvalues --   -0.35330  -0.33904  -0.33545  -0.32800  -0.32098
 Alpha  occ. eigenvalues --   -0.31764  -0.29678  -0.27732  -0.25602  -0.23084
 Alpha  occ. eigenvalues --   -0.19609
 Alpha virt. eigenvalues --   -0.05795  -0.01363   0.01879   0.05182   0.07126
 Alpha virt. eigenvalues --    0.09681   0.10966   0.11669   0.11711   0.11956
 Alpha virt. eigenvalues --    0.12098   0.12710   0.12840   0.13074   0.13795

 Mulliken charges:
               1
     1  O   -0.582365
     2  O   -0.595969
     3  C   -0.012671
     4  C   -0.046904
     5  C   -0.175787
     6  C   -0.152802
     7  C    0.171894
     8  C    0.161946
     9  C    0.055786
    10  C    0.091128
    11  C   -0.213180
    12  C   -0.206703
    13  C    0.038645
    14  C    0.018094
    15  C   -0.285691
    16  C   -0.327865
    17  C   -0.270273
    18  C   -0.307884
    19  C   -0.103426
    20  C   -0.156220
    21  C   -0.383743
    22  C   -0.348769
    23  C   -0.115744
    24  C   -0.085618
    25  C    0.080160
    26  C    0.123032
    27  C   -0.374816
    28  C   -0.380310
    29  C   -0.089065
    30  C   -0.132961
    31  C   -0.068807
    32  C   -0.104635
    33  C   -0.144560
    34  C   -0.099211
    35  C    0.136830
    36  C    0.108750
    37  C   -0.374941
    38  C   -0.367459
    39  C   -0.114710
    40  C   -0.113631
    41  C   -0.091311
    42  C   -0.110529
    43  H    0.113646
    44  H    0.084027
    45  H    0.074825
    46  H    0.091875
    47  H    0.087826
    48  H    0.097973
    49  H    0.131053
    50  H    0.102226
    51  H    0.118385
    52  H    0.119803
    53  H    0.091199
    54  H    0.103759
    55  H    0.109709
    56  H    0.117045
    57  H    0.098342
    58  H    0.095772
    59  H    0.108570
    60  H    0.119780
    61  H    0.043012
    62  H    0.111065
    63  H    0.088241
    64  H    0.112795
    65  H    0.086287
    66  H    0.088094
    67  H    0.117206
    68  H    0.120293
    69  H    0.111897
    70  H    0.104889
    71  H    0.126316
    72  H    0.081169
    73  H    0.290267
    74  H    0.300283
    75  H    0.082705
    76  H    0.092399
    77  H    0.113658
    78  H    0.132019
    79  H    0.075195
    80  H    0.121054
    81  H    0.107342
    82  H    0.105854
    83  H    0.079683
    84  H    0.084737
    85  H    0.072290
    86  H    0.089531
    87  H    0.068766
    88  H    0.075911
    89  H    0.117459
    90  H    0.114143
    91  H    0.102254
    92  H    0.091374
    93  H    0.136145
    94  H    0.112535
    95  H    0.076133
    96  H    0.072866
    97  H    0.086921
    98  H    0.093692
 Sum of Mulliken charges =  -0.00000

 Dipole moment (field-independent basis, Debye):
    X=              0.3014    Y=             -1.1066    Z=              1.6484  Tot=              2.0082
 Quadrupole moment (field-independent basis, Debye-Ang):
   XX=           -291.1588   YY=           -241.8683   ZZ=           -260.4950
   XY=             11.4054   XZ=             -3.0241   YZ=              1.6210

 Normal termination of Gaussian 16 at Sat Jul 13 13:06:12 2019.
