 Gaussian 16, Revision A.03,
 Gaussian 16:  ES64L-G16RevA.03 25-Dec-2016

 -------------------------------------
 # td=(NStates=1) CAM-B3LYP/6-31G(d,p)
 -------------------------------------

 --
 TD
 --
 Symbolic Z-matrix:
 Charge =  0 Multiplicity = 1

                         Standard orientation:
 ---------------------------------------------------------------------
 Center     Atomic      Atomic             Coordinates (Angstroms)
 Number     Number       Type             X           Y           Z
 ---------------------------------------------------------------------
      1          8           0       14.812403   -2.107720   -0.243020
      2          8           0      -14.713320    2.104552    0.674167
      3          6           0       11.230889   -1.541649    0.874812
      4          6           0      -12.388642   -0.970770    0.645560
      5          6           0       12.691068   -1.829721    0.834654
      6          6           0      -13.774761   -0.058807    0.566042
      7          6           0       13.426220   -1.786904   -0.455833
      8          6           0      -13.504279    1.389303    0.757296
      9          6           0       10.922936   -0.282203    0.007845
     10          6           0      -11.314378   -0.253691   -0.199826
     11          6           0       13.319021   -0.430153   -1.048332
     12          6           0      -12.698389    1.820478   -0.467638
     13          6           0       11.925109    0.121996   -0.944826
     14          6           0      -11.380028    0.918169   -0.789112
     15          6           0       10.689457   -1.152048    2.322583
     16          6           0       10.435396   -2.633274    0.344440
     17          6           0      -11.943862   -1.001936    2.119775
     18          6           0      -12.782811   -2.358392    0.106208
     19          6           0        9.681474    0.359165    0.093714
     20          6           0      -10.103846   -1.064406   -0.396176
     21          6           0       11.662027    1.289046   -1.927794
     22          6           0      -10.406574    1.645833   -1.717097
     23          6           0        9.277761    1.684239    0.100112
     24          6           0       -8.777070   -0.563203   -0.254517
     25          6           0        8.008779    2.261865    0.227288
     26          6           0       -7.544224   -1.322461   -0.517598
     27          6           0        7.992173    3.768833    0.520396
     28          6           0       -7.738726   -2.752966   -0.998943
     29          6           0        6.874474    1.491472    0.178565
     30          6           0       -6.386085   -0.760164   -0.314310
     31          6           0        5.598542    2.056103    0.297771
     32          6           0       -5.082143   -1.245256   -0.414915
     33          6           0        4.451690    1.310124    0.219646
     34          6           0       -3.901987   -0.481988   -0.203884
     35          6           0        3.025297    1.731214    0.247174
     36          6           0       -2.565691   -0.861667   -0.400172
     37          6           0        2.843613    3.205843    0.418826
     38          6           0       -2.283224   -2.286457   -0.749474
     39          6           0        2.122987    0.748001    0.022041
     40          6           0       -1.662326    0.104189   -0.124190
     41          6           0        0.722244    0.890171    0.155221
     42          6           0       -0.251559   -0.046097   -0.175444
     43          1           0       13.218964   -1.216057    1.779362
     44          1           0       12.798793   -2.753104    1.326159
     45          1           0      -14.612528   -0.375285    1.313037
     46          1           0      -14.128035   -0.509138   -0.466961
     47          1           0       12.887790   -2.575021   -1.040984
     48          1           0      -12.969189    1.447700    1.699605
     49          1           0       14.029493    0.308005   -0.515757
     50          1           0       13.538023   -0.431726   -2.114775
     51          1           0      -13.380318    1.714997   -1.219643
     52          1           0      -12.296917    3.015315   -0.658328
     53          1           0       10.827392   -2.068316    3.018590
     54          1           0        9.514268   -1.066629    2.202277
     55          1           0       11.292400   -0.321220    2.909210
     56          1           0       10.686140   -3.187878   -0.564749
     57          1           0       10.404315   -3.370410    1.061240
     58          1           0        9.372373   -2.476560    0.219217
     59          1           0      -11.893460   -0.111063    2.557422
     60          1           0      -11.057524   -1.563285    2.327871
     61          1           0      -12.720055   -1.458668    2.840583
     62          1           0      -13.555860   -2.820141    0.669265
     63          1           0      -12.040568   -3.112401    0.146098
     64          1           0      -13.141387   -2.346652   -0.917181
     65          1           0        8.870088   -0.225087    0.444768
     66          1           0      -10.099872   -2.186763   -0.267713
     67          1           0       10.465571    1.343932   -2.009225
     68          1           0       12.234602    2.329445   -1.712335
     69          1           0       12.143737    0.971487   -2.807827
     70          1           0      -11.145705    2.056046   -2.320183
     71          1           0       -9.660098    0.927372   -2.256872
     72          1           0       -9.564721    2.367153   -1.181588
     73          1           0       14.915847   -3.227425   -0.127213
     74          1           0      -15.222854    1.779211    1.238138
     75          1           0       10.007710    2.440055   -0.118977
     76          1           0       -8.737615    0.458400    0.038506
     77          1           0        9.090200    4.060834    0.415595
     78          1           0        7.238204    4.197502   -0.105678
     79          1           0        7.674232    3.921414    1.671057
     80          1           0       -7.850622   -3.416892   -0.180859
     81          1           0       -8.525545   -2.786177   -1.875187
     82          1           0       -6.715441   -3.164957   -1.362787
     83          1           0        6.931385    0.455998   -0.139002
     84          1           0       -6.492287    0.161152    0.236568
     85          1           0        5.500291    3.090634    0.311902
     86          1           0       -4.999435   -2.343712   -0.863887
     87          1           0        4.629780    0.252377    0.220619
     88          1           0       -3.931021    0.555270    0.045689
     89          1           0        3.064403    3.481418    1.471413
     90          1           0        1.906048    3.655727    0.058926
     91          1           0        3.716547    3.933074   -0.169544
     92          1           0       -2.507128   -3.085179   -0.012963
     93          1           0       -2.723661   -2.525914   -1.675962
     94          1           0       -1.118539   -2.322566   -0.945869
     95          1           0        2.472049   -0.307155   -0.129517
     96          1           0       -2.192394    1.006826    0.349190
     97          1           0        0.374952    1.804072    0.467718
     98          1           0        0.221208   -1.025675   -0.486967
 ---------------------------------------------------------------------

 SCF Done:  E(RCAM-B3LYP) =  -1706.99521340     A.U. after   14 cycles

 Excitation energies and oscillator strengths:

 Excited State   1:      Singlet-A      2.3150 eV  535.58 nm  f=3.8155  <S**2>=0.000
     155 ->158        -0.19281
     156 ->157         0.67504
 This state for optimization and/or second-order correction.
 Total Energy, E(TD-HF/TD-DFT) =  -1706.91014011
 Copying the excited state density for this state as the 1-particle RhoCI density.

 The electronic state is 1-A.
 Alpha  occ. eigenvalues --  -19.22490 -19.20141 -10.30738 -10.30672 -10.28656
 Alpha  occ. eigenvalues --  -10.27933 -10.27781 -10.27368 -10.27346 -10.27247
 Alpha  occ. eigenvalues --  -10.27148 -10.26997 -10.26879 -10.26867 -10.26728
 Alpha  occ. eigenvalues --  -10.26706 -10.26620 -10.26538 -10.26531 -10.26470
 Alpha  occ. eigenvalues --  -10.26381 -10.26258 -10.26169 -10.26135 -10.26087
 Alpha  occ. eigenvalues --  -10.26081 -10.26058 -10.25953 -10.25882 -10.25805
 Alpha  occ. eigenvalues --  -10.25763 -10.25677 -10.25529 -10.25340 -10.25237
 Alpha  occ. eigenvalues --  -10.25097 -10.25038 -10.24913 -10.24627 -10.24123
 Alpha  occ. eigenvalues --  -10.23873 -10.23529  -1.13500  -1.06917  -0.93810
 Alpha  occ. eigenvalues --   -0.92932  -0.92513  -0.91851  -0.90861  -0.90321
 Alpha  occ. eigenvalues --   -0.87236  -0.86872  -0.86152  -0.85435  -0.84963
 Alpha  occ. eigenvalues --   -0.83202  -0.82048  -0.79860  -0.79341  -0.78447
 Alpha  occ. eigenvalues --   -0.77658  -0.76846  -0.76677  -0.76020  -0.75534
 Alpha  occ. eigenvalues --   -0.75339  -0.74792  -0.74160  -0.73917  -0.70803
 Alpha  occ. eigenvalues --   -0.69116  -0.67523  -0.65964  -0.65300  -0.64776
 Alpha  occ. eigenvalues --   -0.63395  -0.62752  -0.61526  -0.60884  -0.60006
 Alpha  occ. eigenvalues --   -0.59613  -0.59070  -0.58577  -0.57816  -0.56011
 Alpha  occ. eigenvalues --   -0.55812  -0.55442  -0.54820  -0.54228  -0.53624
 Alpha  occ. eigenvalues --   -0.52793  -0.52674  -0.52081  -0.51456  -0.51264
 Alpha  occ. eigenvalues --   -0.50336  -0.49718  -0.49659  -0.49303  -0.49249
 Alpha  occ. eigenvalues --   -0.49172  -0.48721  -0.48612  -0.48194  -0.48126
 Alpha  occ. eigenvalues --   -0.47635  -0.47307  -0.47198  -0.46589  -0.46405
 Alpha  occ. eigenvalues --   -0.45676  -0.45334  -0.45185  -0.44785  -0.44070
 Alpha  occ. eigenvalues --   -0.44029  -0.43671  -0.43658  -0.43557  -0.42897
 Alpha  occ. eigenvalues --   -0.42578  -0.42496  -0.42175  -0.41974  -0.41917
 Alpha  occ. eigenvalues --   -0.41656  -0.41594  -0.41254  -0.40944  -0.40735
 Alpha  occ. eigenvalues --   -0.40520  -0.40249  -0.40112  -0.39952  -0.39637
 Alpha  occ. eigenvalues --   -0.39404  -0.39219  -0.38936  -0.38337  -0.38277
 Alpha  occ. eigenvalues --   -0.37690  -0.37545  -0.36717  -0.36388  -0.36008
 Alpha  occ. eigenvalues --   -0.35646  -0.35033  -0.33880  -0.32889  -0.32373
 Alpha  occ. eigenvalues --   -0.32098  -0.30203  -0.28206  -0.25853  -0.22538
 Alpha  occ. eigenvalues --   -0.19732
 Alpha virt. eigenvalues --   -0.05324  -0.01656   0.02073   0.05631   0.07888
 Alpha virt. eigenvalues --    0.08406   0.09926   0.11792   0.12056   0.12451
 Alpha virt. eigenvalues --    0.12521   0.12926   0.13376   0.14461   0.14536

 Mulliken charges:
               1
     1  O   -0.567127
     2  O   -0.508295
     3  C   -0.002505
     4  C   -0.025829
     5  C   -0.181363
     6  C   -0.204196
     7  C    0.179505
     8  C    0.160824
     9  C    0.112824
    10  C    0.080725
    11  C   -0.199955
    12  C   -0.211306
    13  C    0.006172
    14  C    0.036194
    15  C   -0.299082
    16  C   -0.310939
    17  C   -0.299427
    18  C   -0.321269
    19  C   -0.142184
    20  C   -0.153293
    21  C   -0.346348
    22  C   -0.342345
    23  C   -0.112780
    24  C   -0.115659
    25  C    0.083624
    26  C    0.119714
    27  C   -0.354551
    28  C   -0.377364
    29  C   -0.111366
    30  C   -0.101494
    31  C   -0.062978
    32  C   -0.119396
    33  C   -0.138024
    34  C   -0.116900
    35  C    0.145407
    36  C    0.157450
    37  C   -0.378559
    38  C   -0.370676
    39  C   -0.132506
    40  C   -0.138158
    41  C   -0.076894
    42  C   -0.105272
    43  H    0.068656
    44  H    0.082484
    45  H    0.065195
    46  H    0.092289
    47  H    0.081697
    48  H    0.091226
    49  H    0.126174
    50  H    0.105143
    51  H    0.133608
    52  H    0.068671
    53  H    0.081507
    54  H    0.099341
    55  H    0.109923
    56  H    0.105175
    57  H    0.105213
    58  H    0.103407
    59  H    0.113900
    60  H    0.109854
    61  H    0.078493
    62  H    0.109121
    63  H    0.105967
    64  H    0.109483
    65  H    0.069572
    66  H    0.085678
    67  H    0.113820
    68  H    0.094279
    69  H    0.105781
    70  H    0.123581
    71  H    0.116242
    72  H    0.102029
    73  H    0.303713
    74  H    0.271383
    75  H    0.075568
    76  H    0.083496
    77  H    0.108614
    78  H    0.130233
    79  H    0.111688
    80  H    0.135326
    81  H    0.117095
    82  H    0.089932
    83  H    0.087559
    84  H    0.076574
    85  H    0.063548
    86  H    0.072552
    87  H    0.069943
    88  H    0.074529
    89  H    0.134299
    90  H    0.120479
    91  H    0.087095
    92  H    0.130207
    93  H    0.130292
    94  H    0.087682
    95  H    0.085438
    96  H    0.088232
    97  H    0.072968
    98  H    0.079648
 Sum of Mulliken charges =  -0.00000

 Dipole moment (field-independent basis, Debye):
    X=              0.0967    Y=             -2.7999    Z=              1.2435  Tot=              3.0651
 Quadrupole moment (field-independent basis, Debye-Ang):
   XX=           -274.4230   YY=           -241.5945   ZZ=           -262.2075
   XY=              4.5634   XZ=            -15.7590   YZ=              3.2392

 Normal termination of Gaussian 16 at Sun Jul 14 14:40:12 2019.
