 Gaussian 16, Revision A.03,
 Gaussian 16:  ES64L-G16RevA.03 25-Dec-2016

 -------------------------------------
 # td=(NStates=1) CAM-B3LYP/6-31G(d,p)
 -------------------------------------

 --
 TD
 --
 Symbolic Z-matrix:
 Charge =  0 Multiplicity = 1

                         Standard orientation:
 ---------------------------------------------------------------------
 Center     Atomic      Atomic             Coordinates (Angstroms)
 Number     Number       Type             X           Y           Z
 ---------------------------------------------------------------------
      1          8           0       14.851276   -2.144806   -0.160049
      2          8           0      -14.757324    1.856490    1.019129
      3          6           0       11.211686   -1.528699    0.937824
      4          6           0      -12.371674   -1.112709    0.613830
      5          6           0       12.688539   -1.896127    1.074792
      6          6           0      -13.816125   -0.352509    0.670267
      7          6           0       13.384648   -1.881134   -0.345072
      8          6           0      -13.541500    1.123299    1.039387
      9          6           0       10.981892   -0.300504    0.026636
     10          6           0      -11.245029   -0.266491   -0.044811
     11          6           0       13.294663   -0.474449   -0.916593
     12          6           0      -12.774220    1.749134   -0.091479
     13          6           0       11.880004    0.171259   -0.873983
     14          6           0      -11.541571    1.002856   -0.489075
     15          6           0       10.784580   -1.346608    2.353808
     16          6           0       10.412787   -2.692426    0.401027
     17          6           0      -11.798221   -1.387153    1.933614
     18          6           0      -12.637303   -2.460986   -0.190391
     19          6           0        9.704572    0.293544    0.177388
     20          6           0      -10.088103   -0.993760   -0.383620
     21          6           0       11.649569    1.227992   -1.793114
     22          6           0      -10.631801    1.770909   -1.316622
     23          6           0        9.268163    1.610991    0.132080
     24          6           0       -8.765978   -0.465258   -0.381770
     25          6           0        7.969225    2.195643    0.201840
     26          6           0       -7.542179   -1.097975   -0.687310
     27          6           0        8.010669    3.721512    0.331651
     28          6           0       -7.647452   -2.595778   -1.110682
     29          6           0        6.885163    1.489359    0.150883
     30          6           0       -6.346147   -0.459423   -0.490201
     31          6           0        5.606126    2.094348    0.280745
     32          6           0       -5.032747   -0.950468   -0.620614
     33          6           0        4.486060    1.320349    0.171660
     34          6           0       -3.953654   -0.160512   -0.530280
     35          6           0        3.056857    1.676629    0.145334
     36          6           0       -2.596230   -0.681079   -0.560614
     37          6           0        2.750370    3.235966    0.454576
     38          6           0       -2.290736   -2.144634   -0.880615
     39          6           0        2.135460    0.806595   -0.061853
     40          6           0       -1.592900    0.222795   -0.252272
     41          6           0        0.738156    1.088238   -0.085316
     42          6           0       -0.233958    0.088745   -0.219458
     43          1           0       13.249218   -1.164613    1.613048
     44          1           0       12.671926   -2.742471    1.415830
     45          1           0      -14.605731   -0.914774    1.485221
     46          1           0      -14.272841   -0.550251   -0.261717
     47          1           0       12.994416   -2.671641   -0.894282
     48          1           0      -12.941461    1.294106    1.877097
     49          1           0       13.900298    0.330091   -0.668241
     50          1           0       13.398176   -0.651464   -2.005109
     51          1           0      -13.503402    1.980010   -0.854977
     52          1           0      -12.448610    2.733300    0.243606
     53          1           0       10.981608   -2.325502    2.828470
     54          1           0        9.630929   -1.012241    2.459603
     55          1           0       11.521807   -0.680465    2.785945
     56          1           0       10.649135   -2.806138   -0.702055
     57          1           0       10.526049   -3.681013    0.859876
     58          1           0        9.408147   -2.357410    0.418807
     59          1           0      -11.632859   -0.669609    2.580683
     60          1           0      -10.887966   -1.950572    1.843580
     61          1           0      -12.548339   -2.017305    2.528496
     62          1           0      -13.301287   -3.039650    0.187842
     63          1           0      -11.629948   -3.176945   -0.382191
     64          1           0      -13.106062   -2.160038   -1.174812
     65          1           0        8.788559   -0.480656    0.361328
     66          1           0      -10.117479   -1.894061   -0.791095
     67          1           0       10.649491    1.327628   -1.921208
     68          1           0       11.992412    2.226355   -1.596535
     69          1           0       12.073313    1.046733   -2.780830
     70          1           0      -11.020142    2.176740   -2.214346
     71          1           0       -9.964789    1.114879   -1.605420
     72          1           0       -9.902957    2.492798   -0.768020
     73          1           0       14.927303   -2.915165    0.331412
     74          1           0      -15.250201    1.418813    1.669890
     75          1           0       10.127635    2.304174    0.115982
     76          1           0       -8.510872    0.511473    0.139551
     77          1           0        9.023713    4.224265    0.456938
     78          1           0        7.390063    4.221308   -0.451735
     79          1           0        7.403328    3.854656    1.336658
     80          1           0       -8.029821   -3.408074   -0.431618
     81          1           0       -8.630254   -2.677146   -1.826690
     82          1           0       -6.748855   -3.036122   -1.588887
     83          1           0        7.040172    0.288571   -0.139073
     84          1           0       -6.315724    0.528974   -0.303817
     85          1           0        5.677702    3.113471    0.262169
     86          1           0       -5.132298   -2.027797   -0.876971
     87          1           0        4.840338    0.339306    0.106872
     88          1           0       -4.103049    0.907729   -0.184579
     89          1           0        3.441285    3.587939    1.333232
     90          1           0        1.718495    3.420523    0.374474
     91          1           0        3.099718    3.851058   -0.375415
     92          1           0       -2.755849   -2.950917   -0.300926
     93          1           0       -2.748332   -2.282875   -1.967081
     94          1           0       -1.320181   -2.629966   -1.085676
     95          1           0        2.406274   -0.388802   -0.078106
     96          1           0       -1.944867    1.382276   -0.445978
     97          1           0        0.334063    1.983648    0.101994
     98          1           0        0.047026   -0.939483   -0.543426
 ---------------------------------------------------------------------

 SCF Done:  E(RCAM-B3LYP) =  -1706.95643358     A.U. after   14 cycles

 Excitation energies and oscillator strengths:

 Excited State   1:      Singlet-A      2.4768 eV  500.57 nm  f=3.9158  <S**2>=0.000
     155 ->158        -0.18875
     156 ->157         0.67570
 This state for optimization and/or second-order correction.
 Total Energy, E(TD-HF/TD-DFT) =  -1706.86541148
 Copying the excited state density for this state as the 1-particle RhoCI density.

 The electronic state is 1-A.
 Alpha  occ. eigenvalues --  -19.20772 -19.19706 -10.30442 -10.29707 -10.28791
 Alpha  occ. eigenvalues --  -10.27789 -10.27763 -10.27405 -10.27361 -10.27251
 Alpha  occ. eigenvalues --  -10.27200 -10.27200 -10.27102 -10.26845 -10.26680
 Alpha  occ. eigenvalues --  -10.26676 -10.26580 -10.26524 -10.26483 -10.26388
 Alpha  occ. eigenvalues --  -10.26211 -10.26206 -10.26154 -10.26093 -10.26067
 Alpha  occ. eigenvalues --  -10.25810 -10.25763 -10.25752 -10.25713 -10.25475
 Alpha  occ. eigenvalues --  -10.25447 -10.25409 -10.25334 -10.25125 -10.25016
 Alpha  occ. eigenvalues --  -10.24794 -10.24358 -10.23941 -10.23308 -10.22807
 Alpha  occ. eigenvalues --  -10.22755 -10.22570  -1.10705  -1.07549  -0.94426
 Alpha  occ. eigenvalues --   -0.93698  -0.92512  -0.92186  -0.91115  -0.89934
 Alpha  occ. eigenvalues --   -0.88967  -0.87346  -0.87208  -0.85954  -0.84939
 Alpha  occ. eigenvalues --   -0.83816  -0.82368  -0.80604  -0.79896  -0.78000
 Alpha  occ. eigenvalues --   -0.77706  -0.77414  -0.76474  -0.76213  -0.76006
 Alpha  occ. eigenvalues --   -0.75790  -0.75611  -0.75210  -0.74193  -0.71606
 Alpha  occ. eigenvalues --   -0.69659  -0.68241  -0.66689  -0.65733  -0.64399
 Alpha  occ. eigenvalues --   -0.64100  -0.63291  -0.62030  -0.61281  -0.61003
 Alpha  occ. eigenvalues --   -0.59944  -0.59355  -0.58392  -0.57220  -0.56298
 Alpha  occ. eigenvalues --   -0.55867  -0.55779  -0.54732  -0.54353  -0.53523
 Alpha  occ. eigenvalues --   -0.53237  -0.52822  -0.52260  -0.52012  -0.51120
 Alpha  occ. eigenvalues --   -0.50966  -0.50688  -0.50176  -0.49473  -0.49215
 Alpha  occ. eigenvalues --   -0.49148  -0.48804  -0.48628  -0.48241  -0.47993
 Alpha  occ. eigenvalues --   -0.47830  -0.47506  -0.47435  -0.47114  -0.46585
 Alpha  occ. eigenvalues --   -0.46109  -0.45974  -0.45782  -0.45467  -0.45178
 Alpha  occ. eigenvalues --   -0.45167  -0.45101  -0.44546  -0.44034  -0.43872
 Alpha  occ. eigenvalues --   -0.43696  -0.43300  -0.42631  -0.42161  -0.42024
 Alpha  occ. eigenvalues --   -0.41957  -0.41606  -0.41251  -0.41082  -0.40788
 Alpha  occ. eigenvalues --   -0.40544  -0.40360  -0.40001  -0.39608  -0.39518
 Alpha  occ. eigenvalues --   -0.38903  -0.38722  -0.38589  -0.38331  -0.38162
 Alpha  occ. eigenvalues --   -0.37896  -0.37267  -0.37015  -0.36920  -0.36123
 Alpha  occ. eigenvalues --   -0.35883  -0.35291  -0.34273  -0.32895  -0.32380
 Alpha  occ. eigenvalues --   -0.31407  -0.30128  -0.28736  -0.25866  -0.23163
 Alpha  occ. eigenvalues --   -0.20331
 Alpha virt. eigenvalues --   -0.05191  -0.01344   0.01832   0.05886   0.07666
 Alpha virt. eigenvalues --    0.09880   0.11640   0.11813   0.12074   0.12345
 Alpha virt. eigenvalues --    0.12807   0.13513   0.13713   0.13845   0.14029

 Mulliken charges:
               1
     1  O   -0.570921
     2  O   -0.545581
     3  C   -0.052358
     4  C   -0.034743
     5  C   -0.158373
     6  C   -0.185765
     7  C    0.136750
     8  C    0.152989
     9  C    0.094219
    10  C    0.074081
    11  C   -0.203017
    12  C   -0.224754
    13  C    0.034721
    14  C    0.052341
    15  C   -0.272196
    16  C   -0.298471
    17  C   -0.277882
    18  C   -0.296543
    19  C   -0.126480
    20  C   -0.117187
    21  C   -0.384520
    22  C   -0.361898
    23  C   -0.141011
    24  C   -0.122943
    25  C    0.131824
    26  C    0.130078
    27  C   -0.382065
    28  C   -0.386069
    29  C   -0.124412
    30  C   -0.123721
    31  C   -0.084565
    32  C   -0.047426
    33  C   -0.112995
    34  C   -0.135081
    35  C    0.110569
    36  C    0.122919
    37  C   -0.366190
    38  C   -0.386508
    39  C   -0.114492
    40  C   -0.134893
    41  C   -0.079140
    42  C   -0.085722
    43  H    0.108562
    44  H    0.071013
    45  H    0.045766
    46  H    0.113104
    47  H    0.099719
    48  H    0.096749
    49  H    0.135005
    50  H    0.104667
    51  H    0.125437
    52  H    0.111559
    53  H    0.092127
    54  H    0.088034
    55  H    0.101964
    56  H    0.090071
    57  H    0.100384
    58  H    0.108500
    59  H    0.112007
    60  H    0.110060
    61  H    0.068653
    62  H    0.117920
    63  H    0.068875
    64  H    0.097024
    65  H    0.055363
    66  H    0.076510
    67  H    0.136143
    68  H    0.119976
    69  H    0.103007
    70  H    0.110387
    71  H    0.127342
    72  H    0.094534
    73  H    0.293696
    74  H    0.294931
    75  H    0.075504
    76  H    0.081350
    77  H    0.115055
    78  H    0.126834
    79  H    0.112373
    80  H    0.123169
    81  H    0.093616
    82  H    0.111523
    83  H    0.077807
    84  H    0.064849
    85  H    0.075568
    86  H    0.077556
    87  H    0.074337
    88  H    0.099909
    89  H    0.119393
    90  H    0.116310
    91  H    0.121016
    92  H    0.126058
    93  H    0.107233
    94  H    0.124871
    95  H    0.081487
    96  H    0.059548
    97  H    0.077884
    98  H    0.075091
 Sum of Mulliken charges =  -0.00000

 Dipole moment (field-independent basis, Debye):
    X=             -0.5918    Y=             -1.5993    Z=              0.4716  Tot=              1.7693
 Quadrupole moment (field-independent basis, Debye-Ang):
   XX=           -287.7522   YY=           -239.7063   ZZ=           -262.9065
   XY=             16.3271   XZ=             -4.7794   YZ=             -0.3398

 Normal termination of Gaussian 16 at Thu Jul 11 00:22:14 2019.
