 Gaussian 16, Revision A.03,
 Gaussian 16:  ES64L-G16RevA.03 25-Dec-2016

 -------------------------------------
 # td=(NStates=1) CAM-B3LYP/6-31G(d,p)
 -------------------------------------

 --
 TD
 --
 Symbolic Z-matrix:
 Charge =  0 Multiplicity = 1

                         Standard orientation:
 ---------------------------------------------------------------------
 Center     Atomic      Atomic             Coordinates (Angstroms)
 Number     Number       Type             X           Y           Z
 ---------------------------------------------------------------------
      1          8           0       14.611181   -2.303040   -0.204411
      2          8           0      -14.810857    1.798171    0.911976
      3          6           0       11.123436   -1.507588    0.969613
      4          6           0      -12.347150   -1.081110    0.619360
      5          6           0       12.625203   -1.919964    0.978738
      6          6           0      -13.739636   -0.345242    0.656933
      7          6           0       13.281584   -2.040807   -0.322110
      8          6           0      -13.536223    1.105429    0.933231
      9          6           0       10.914353   -0.291353    0.041679
     10          6           0      -11.241931   -0.337875   -0.176039
     11          6           0       13.227444   -0.737644   -1.147526
     12          6           0      -12.675940    1.753491   -0.047589
     13          6           0       11.935363    0.009177   -0.894464
     14          6           0      -11.468873    0.947245   -0.567298
     15          6           0       10.776456   -1.015235    2.361037
     16          6           0       10.301880   -2.709656    0.593200
     17          6           0      -11.908306   -1.348373    2.035523
     18          6           0      -12.550525   -2.383041    0.016234
     19          6           0        9.679439    0.432596    0.097573
     20          6           0       -9.998767   -0.964332   -0.439951
     21          6           0       11.666321    1.172884   -1.865862
     22          6           0      -10.608979    1.793480   -1.459730
     23          6           0        9.401384    1.764072    0.232853
     24          6           0       -8.750922   -0.457803   -0.501213
     25          6           0        8.093090    2.382432    0.289082
     26          6           0       -7.537883   -1.131263   -0.681544
     27          6           0        8.063806    3.795792    0.598794
     28          6           0       -7.623049   -2.631224   -1.093767
     29          6           0        6.964453    1.677478    0.070292
     30          6           0       -6.369000   -0.542579   -0.581330
     31          6           0        5.554227    2.070696    0.155202
     32          6           0       -5.058157   -1.105199   -0.700680
     33          6           0        4.442804    1.349603   -0.008793
     34          6           0       -3.928784   -0.294072   -0.517342
     35          6           0        3.105828    1.837014    0.074803
     36          6           0       -2.567005   -0.682865   -0.473575
     37          6           0        2.771612    3.224040    0.221166
     38          6           0       -2.180814   -2.181139   -0.626188
     39          6           0        2.008809    0.783904    0.097289
     40          6           0       -1.619621    0.244655   -0.238993
     41          6           0        0.696937    0.919024    0.070516
     42          6           0       -0.179906    0.018544   -0.248783
     43          1           0       13.320331   -1.223112    1.507902
     44          1           0       12.836701   -2.894176    1.498435
     45          1           0      -14.502680   -0.791793    1.408311
     46          1           0      -14.231591   -0.248914   -0.181356
     47          1           0       12.738879   -2.757318   -0.960415
     48          1           0      -13.074027    1.114283    1.987911
     49          1           0       14.173570   -0.017820   -0.680554
     50          1           0       13.469425   -0.784097   -2.186772
     51          1           0      -13.314159    2.205594   -1.058248
     52          1           0      -12.283889    2.718945    0.291664
     53          1           0       10.730614   -1.824868    3.303617
     54          1           0        9.817936   -0.200060    2.420108
     55          1           0       11.601635   -0.370310    2.508658
     56          1           0       10.607784   -3.234888   -0.352062
     57          1           0       10.260403   -3.560032    1.318164
     58          1           0        9.239216   -2.433729    0.304852
     59          1           0      -11.770945   -0.494165    2.631263
     60          1           0      -10.769761   -1.544338    1.956637
     61          1           0      -12.563043   -2.070026    2.539003
     62          1           0      -13.177616   -3.030094    0.732856
     63          1           0      -11.680947   -2.908950   -0.230078
     64          1           0      -13.046451   -2.324339   -0.880602
     65          1           0        8.859033   -0.441279    0.191680
     66          1           0      -10.052483   -1.949213   -0.641011
     67          1           0       10.620272    1.410251   -1.860163
     68          1           0       12.231394    2.128844   -1.520741
     69          1           0       12.030295    1.021194   -2.849888
     70          1           0      -11.316242    2.604722   -2.148333
     71          1           0       -9.994431    1.196879   -2.371112
     72          1           0       -9.929657    2.616251   -0.982344
     73          1           0       14.619893   -3.326791   -0.133658
     74          1           0      -15.295216    1.436980    1.777534
     75          1           0       10.338161    2.516385    0.129905
     76          1           0       -8.732688    0.597979   -0.128292
     77          1           0        9.096787    4.109879    0.791495
     78          1           0        7.402733    4.413420   -0.186306
     79          1           0        7.627485    3.902348    1.587986
     80          1           0       -7.866913   -3.212411   -0.304197
     81          1           0       -8.302942   -2.805483   -2.051251
     82          1           0       -6.647276   -3.012783   -1.315476
     83          1           0        6.850347    0.637174   -0.287583
     84          1           0       -6.443807    0.481383   -0.236422
     85          1           0        5.349951    3.229988    0.610539
     86          1           0       -4.901786   -2.228835   -0.940518
     87          1           0        4.707192    0.168140   -0.110670
     88          1           0       -4.014627    0.804252   -0.197823
     89          1           0        3.152023    3.715786    1.380006
     90          1           0        1.666039    3.385553    0.386786
     91          1           0        3.307006    3.778294   -0.544178
     92          1           0       -2.075810   -2.627877    0.504085
     93          1           0       -3.113453   -2.796222   -1.159562
     94          1           0       -1.034539   -2.248233   -1.354079
     95          1           0        2.391567   -0.354617    0.011683
     96          1           0       -2.079224    1.134042   -0.101013
     97          1           0        0.326048    2.068165   -0.019227
     98          1           0       -0.016842   -1.080175   -0.589710
 ---------------------------------------------------------------------

 SCF Done:  E(RCAM-B3LYP) =  -1706.90818661     A.U. after   15 cycles

 Excitation energies and oscillator strengths:

 Excited State   1:      Singlet-A      2.2121 eV  560.48 nm  f=3.5893  <S**2>=0.000
     155 ->158         0.15475
     156 ->157         0.68759
 This state for optimization and/or second-order correction.
 Total Energy, E(TD-HF/TD-DFT) =  -1706.82689380
 Copying the excited state density for this state as the 1-particle RhoCI density.

 The electronic state is 1-A.
 Alpha  occ. eigenvalues --  -19.22471 -19.21697 -10.30633 -10.29985 -10.29941
 Alpha  occ. eigenvalues --  -10.28936 -10.28479 -10.27888 -10.27823 -10.27761
 Alpha  occ. eigenvalues --  -10.27665 -10.27601 -10.27575 -10.27483 -10.27467
 Alpha  occ. eigenvalues --  -10.27403 -10.27215 -10.27191 -10.27124 -10.27096
 Alpha  occ. eigenvalues --  -10.26978 -10.26830 -10.26651 -10.26579 -10.26461
 Alpha  occ. eigenvalues --  -10.26425 -10.26226 -10.26092 -10.26012 -10.25929
 Alpha  occ. eigenvalues --  -10.25888 -10.25677 -10.25552 -10.25467 -10.25190
 Alpha  occ. eigenvalues --  -10.25155 -10.24991 -10.24594 -10.24454 -10.24282
 Alpha  occ. eigenvalues --  -10.23951 -10.22988  -1.11806  -1.07413  -0.94347
 Alpha  occ. eigenvalues --   -0.93551  -0.92676  -0.91919  -0.91419  -0.90445
 Alpha  occ. eigenvalues --   -0.88245  -0.87424  -0.86467  -0.86175  -0.85159
 Alpha  occ. eigenvalues --   -0.83469  -0.82418  -0.80284  -0.80084  -0.77741
 Alpha  occ. eigenvalues --   -0.76883  -0.76516  -0.76349  -0.75969  -0.75704
 Alpha  occ. eigenvalues --   -0.75369  -0.74833  -0.74663  -0.73659  -0.70400
 Alpha  occ. eigenvalues --   -0.68907  -0.67334  -0.65244  -0.64112  -0.63858
 Alpha  occ. eigenvalues --   -0.63098  -0.62958  -0.60923  -0.60318  -0.59907
 Alpha  occ. eigenvalues --   -0.59458  -0.58535  -0.58124  -0.57956  -0.56166
 Alpha  occ. eigenvalues --   -0.55912  -0.55574  -0.54871  -0.54677  -0.53774
 Alpha  occ. eigenvalues --   -0.53377  -0.53074  -0.52271  -0.51791  -0.50737
 Alpha  occ. eigenvalues --   -0.50340  -0.50233  -0.49774  -0.48918  -0.48861
 Alpha  occ. eigenvalues --   -0.48598  -0.48317  -0.48081  -0.47820  -0.47615
 Alpha  occ. eigenvalues --   -0.47305  -0.46850  -0.46796  -0.46547  -0.46284
 Alpha  occ. eigenvalues --   -0.46144  -0.45393  -0.45199  -0.44953  -0.44718
 Alpha  occ. eigenvalues --   -0.44383  -0.43920  -0.43345  -0.43138  -0.42942
 Alpha  occ. eigenvalues --   -0.42765  -0.42565  -0.42272  -0.41933  -0.41724
 Alpha  occ. eigenvalues --   -0.41636  -0.41207  -0.40914  -0.40738  -0.40262
 Alpha  occ. eigenvalues --   -0.40109  -0.40007  -0.39735  -0.39641  -0.39456
 Alpha  occ. eigenvalues --   -0.39345  -0.38641  -0.38243  -0.37848  -0.37805
 Alpha  occ. eigenvalues --   -0.37528  -0.37279  -0.36993  -0.36728  -0.36572
 Alpha  occ. eigenvalues --   -0.35975  -0.35200  -0.34748  -0.32885  -0.32548
 Alpha  occ. eigenvalues --   -0.31352  -0.29823  -0.28339  -0.25876  -0.23557
 Alpha  occ. eigenvalues --   -0.19777
 Alpha virt. eigenvalues --   -0.06021  -0.01396   0.01433   0.05104   0.06918
 Alpha virt. eigenvalues --    0.08675   0.10137   0.10326   0.10472   0.11138
 Alpha virt. eigenvalues --    0.11510   0.12009   0.12546   0.12602   0.13277

 Mulliken charges:
               1
     1  O   -0.532781
     2  O   -0.564632
     3  C    0.007744
     4  C   -0.027071
     5  C   -0.173158
     6  C   -0.156868
     7  C    0.153270
     8  C    0.151393
     9  C    0.034863
    10  C    0.071600
    11  C   -0.215977
    12  C   -0.216256
    13  C    0.065565
    14  C    0.067638
    15  C   -0.289823
    16  C   -0.308847
    17  C   -0.295587
    18  C   -0.290737
    19  C   -0.114199
    20  C   -0.122968
    21  C   -0.368229
    22  C   -0.361049
    23  C   -0.125787
    24  C   -0.100662
    25  C    0.120968
    26  C    0.121708
    27  C   -0.378609
    28  C   -0.368685
    29  C   -0.112926
    30  C   -0.118240
    31  C   -0.090028
    32  C   -0.107077
    33  C   -0.103392
    34  C   -0.120805
    35  C    0.109190
    36  C    0.125630
    37  C   -0.362873
    38  C   -0.335554
    39  C   -0.125297
    40  C   -0.097846
    41  C   -0.058825
    42  C   -0.077911
    43  H    0.103923
    44  H    0.074244
    45  H    0.065121
    46  H    0.111652
    47  H    0.074681
    48  H    0.069056
    49  H    0.086182
    50  H    0.115949
    51  H    0.087773
    52  H    0.121313
    53  H    0.073994
    54  H    0.088370
    55  H    0.115221
    56  H    0.092479
    57  H    0.104728
    58  H    0.094512
    59  H    0.104023
    60  H    0.094542
    61  H    0.102122
    62  H    0.079915
    63  H    0.105299
    64  H    0.109704
    65  H    0.087015
    66  H    0.073391
    67  H    0.128345
    68  H    0.097110
    69  H    0.105308
    70  H    0.067403
    71  H    0.106537
    72  H    0.114140
    73  H    0.308482
    74  H    0.303684
    75  H    0.089520
    76  H    0.077084
    77  H    0.109480
    78  H    0.117208
    79  H    0.134232
    80  H    0.133469
    81  H    0.105627
    82  H    0.100580
    83  H    0.074534
    84  H    0.079489
    85  H    0.051107
    86  H    0.087651
    87  H    0.076388
    88  H    0.082697
    89  H    0.076943
    90  H    0.117979
    91  H    0.135499
    92  H    0.121420
    93  H    0.090690
    94  H    0.079831
    95  H    0.071979
    96  H    0.061771
    97  H    0.075137
    98  H    0.076596
 Sum of Mulliken charges =  -0.00000

 Dipole moment (field-independent basis, Debye):
    X=              1.1406    Y=             -2.1240    Z=              0.9178  Tot=              2.5797
 Quadrupole moment (field-independent basis, Debye-Ang):
   XX=           -278.7386   YY=           -242.5114   ZZ=           -263.3200
   XY=              1.1395   XZ=            -23.0008   YZ=              2.9855

 Normal termination of Gaussian 16 at Mon Jul 15 07:08:39 2019.
