 Gaussian 16, Revision A.03,
 Gaussian 16:  ES64L-G16RevA.03 25-Dec-2016

 -------------------------------------
 # td=(NStates=1) CAM-B3LYP/6-31G(d,p)
 -------------------------------------

 --
 TD
 --
 Symbolic Z-matrix:
 Charge =  0 Multiplicity = 1

                         Standard orientation:
 ---------------------------------------------------------------------
 Center     Atomic      Atomic             Coordinates (Angstroms)
 Number     Number       Type             X           Y           Z
 ---------------------------------------------------------------------
      1          8           0       14.592126   -2.323476   -0.187025
      2          8           0      -14.740959    1.758592    0.967874
      3          6           0       11.098027   -1.530753    0.899661
      4          6           0      -12.424622   -1.084765    0.451178
      5          6           0       12.594059   -1.909192    1.002430
      6          6           0      -13.790788   -0.330798    0.540180
      7          6           0       13.227148   -1.985919   -0.406610
      8          6           0      -13.530497    1.077594    0.925724
      9          6           0       10.944547   -0.317855    0.057371
     10          6           0      -11.323143   -0.216224   -0.267773
     11          6           0       13.171446   -0.543315   -1.016557
     12          6           0      -12.738611    1.761357   -0.207360
     13          6           0       11.815969    0.078224   -0.855363
     14          6           0      -11.494764    1.083169   -0.538508
     15          6           0       10.644510   -1.154677    2.404510
     16          6           0       10.164809   -2.686632    0.510471
     17          6           0      -11.871027   -1.363694    1.873702
     18          6           0      -12.648605   -2.375859   -0.235584
     19          6           0        9.636903    0.281885    0.074075
     20          6           0      -10.083916   -0.879335   -0.549010
     21          6           0       11.622871    1.236080   -1.840559
     22          6           0      -10.554331    1.879713   -1.319416
     23          6           0        9.414490    1.658759    0.097413
     24          6           0       -8.812245   -0.426939   -0.316732
     25          6           0        8.187984    2.340521    0.161752
     26          6           0       -7.594855   -1.190940   -0.410581
     27          6           0        8.134489    3.785048    0.420797
     28          6           0       -7.619664   -2.620512   -0.908583
     29          6           0        7.020148    1.627492   -0.043034
     30          6           0       -6.324889   -0.556288   -0.136961
     31          6           0        5.693349    2.093231    0.201648
     32          6           0       -5.033624   -1.014150   -0.402582
     33          6           0        4.481468    1.370592    0.135029
     34          6           0       -3.863012   -0.260338   -0.222502
     35          6           0        3.183984    1.733399    0.262265
     36          6           0       -2.625346   -0.757308   -0.466578
     37          6           0        2.790566    3.088544    0.651516
     38          6           0       -2.210520   -2.129664   -0.954040
     39          6           0        2.289597    0.727524   -0.210761
     40          6           0       -1.469816    0.097552   -0.278836
     41          6           0        0.775762    0.973172   -0.068441
     42          6           0       -0.147101   -0.066214   -0.427420
     43          1           0       13.088187   -0.990563    1.364936
     44          1           0       12.723106   -2.703619    1.856698
     45          1           0      -14.330374   -0.737893    1.299636
     46          1           0      -14.487389   -0.450621   -0.328605
     47          1           0       12.498169   -2.712845   -1.107314
     48          1           0      -12.935526    1.304887    1.929324
     49          1           0       13.815993   -0.016640   -0.735731
     50          1           0       13.552723   -0.538820   -2.066972
     51          1           0      -13.551952    1.847380   -1.105079
     52          1           0      -12.408496    2.758889    0.167949
     53          1           0       10.870424   -2.015020    2.851993
     54          1           0        9.433015   -1.105533    2.430154
     55          1           0       11.040655   -0.307073    2.911925
     56          1           0       10.572297   -2.931609   -0.533293
     57          1           0       10.168727   -3.489147    1.329975
     58          1           0        9.126269   -2.322653    0.198408
     59          1           0      -11.606857   -0.355817    2.506467
     60          1           0      -10.851137   -1.840295    1.871412
     61          1           0      -12.513308   -1.976163    2.515889
     62          1           0      -13.343526   -3.024356    0.026228
     63          1           0      -11.748514   -3.064013    0.093895
     64          1           0      -12.617935   -2.139901   -1.384194
     65          1           0        8.774712   -0.422690    0.164340
     66          1           0      -10.106760   -1.967557   -0.825343
     67          1           0       10.619731    1.652384   -2.257148
     68          1           0       12.099888    2.073200   -1.334823
     69          1           0       12.271898    0.871630   -2.732841
     70          1           0      -10.962567    2.695761   -2.044639
     71          1           0       -9.856688    1.212724   -1.847089
     72          1           0       -9.795511    2.527117   -0.653799
     73          1           0       14.641524   -3.106236    0.503563
     74          1           0      -15.324779    1.340872    1.454442
     75          1           0       10.309373    2.204697    0.112991
     76          1           0       -8.744966    0.618653    0.019749
     77          1           0        9.076559    4.531648    0.314295
     78          1           0        7.438042    4.294012   -0.273356
     79          1           0        7.822664    3.998875    1.513435
     80          1           0       -7.944983   -3.253738   -0.053426
     81          1           0       -8.248836   -2.607536   -1.913951
     82          1           0       -6.662510   -2.796254   -1.287515
     83          1           0        7.151820    0.580624   -0.439770
     84          1           0       -6.522142    0.606837    0.091681
     85          1           0        5.635287    3.143362    0.396558
     86          1           0       -4.948067   -1.990265   -0.591367
     87          1           0        4.559291    0.316616   -0.243317
     88          1           0       -3.958554    0.749130    0.118292
     89          1           0        3.193391    3.247476    1.660276
     90          1           0        1.603756    3.286905    0.705199
     91          1           0        3.164813    3.874169    0.065084
     92          1           0       -2.760823   -2.781951   -0.162525
     93          1           0       -2.548067   -2.292238   -1.971557
     94          1           0       -1.292292   -2.311738   -0.943943
     95          1           0        2.552547   -0.192297   -0.604996
     96          1           0       -1.763156    1.230494   -0.004140
     97          1           0        0.540086    1.958399    0.054021
     98          1           0        0.296941   -0.917497   -0.844456
 ---------------------------------------------------------------------

 SCF Done:  E(RCAM-B3LYP) =  -1706.94436129     A.U. after   16 cycles

 Excitation energies and oscillator strengths:

 Excited State   1:      Singlet-A      1.7963 eV  690.22 nm  f=3.8217  <S**2>=0.000
     155 ->158        -0.14268
     156 ->157         0.69787
     156 <-157        -0.11710
 This state for optimization and/or second-order correction.
 Total Energy, E(TD-HF/TD-DFT) =  -1706.87834804
 Copying the excited state density for this state as the 1-particle RhoCI density.

 The electronic state is 1-A.
 Alpha  occ. eigenvalues --  -19.22305 -19.19565 -10.32639 -10.30221 -10.27787
 Alpha  occ. eigenvalues --  -10.27567 -10.27286 -10.27236 -10.27065 -10.26987
 Alpha  occ. eigenvalues --  -10.26960 -10.26952 -10.26846 -10.26813 -10.26579
 Alpha  occ. eigenvalues --  -10.26535 -10.26481 -10.26229 -10.26148 -10.26135
 Alpha  occ. eigenvalues --  -10.26111 -10.26035 -10.25915 -10.25912 -10.25800
 Alpha  occ. eigenvalues --  -10.25798 -10.25782 -10.25756 -10.25730 -10.25637
 Alpha  occ. eigenvalues --  -10.25581 -10.25468 -10.25371 -10.25351 -10.25090
 Alpha  occ. eigenvalues --  -10.25049 -10.24852 -10.24766 -10.24606 -10.24389
 Alpha  occ. eigenvalues --  -10.24084 -10.23970  -1.12010  -1.08545  -0.94347
 Alpha  occ. eigenvalues --   -0.93950  -0.92142  -0.91686  -0.90574  -0.89724
 Alpha  occ. eigenvalues --   -0.87772  -0.87434  -0.86934  -0.85285  -0.84850
 Alpha  occ. eigenvalues --   -0.82906  -0.81888  -0.79980  -0.79302  -0.78367
 Alpha  occ. eigenvalues --   -0.77075  -0.76875  -0.76155  -0.76073  -0.75996
 Alpha  occ. eigenvalues --   -0.75892  -0.75282  -0.75113  -0.72442  -0.70956
 Alpha  occ. eigenvalues --   -0.68862  -0.67721  -0.66408  -0.65586  -0.64173
 Alpha  occ. eigenvalues --   -0.64061  -0.63392  -0.62427  -0.61025  -0.59748
 Alpha  occ. eigenvalues --   -0.58785  -0.58209  -0.58187  -0.57963  -0.55989
 Alpha  occ. eigenvalues --   -0.55766  -0.55523  -0.54952  -0.54549  -0.53839
 Alpha  occ. eigenvalues --   -0.53030  -0.52640  -0.52204  -0.51632  -0.50920
 Alpha  occ. eigenvalues --   -0.50878  -0.50401  -0.50054  -0.49826  -0.49447
 Alpha  occ. eigenvalues --   -0.49200  -0.48888  -0.48868  -0.48736  -0.48422
 Alpha  occ. eigenvalues --   -0.48080  -0.47689  -0.47444  -0.46754  -0.46456
 Alpha  occ. eigenvalues --   -0.46008  -0.45914  -0.45591  -0.45223  -0.44987
 Alpha  occ. eigenvalues --   -0.44663  -0.44291  -0.44167  -0.43845  -0.43333
 Alpha  occ. eigenvalues --   -0.43080  -0.42621  -0.42406  -0.42182  -0.41872
 Alpha  occ. eigenvalues --   -0.41749  -0.41297  -0.41206  -0.40829  -0.40526
 Alpha  occ. eigenvalues --   -0.40434  -0.40146  -0.39718  -0.39463  -0.39216
 Alpha  occ. eigenvalues --   -0.38904  -0.38613  -0.38425  -0.38003  -0.37762
 Alpha  occ. eigenvalues --   -0.37458  -0.37093  -0.36668  -0.36524  -0.35723
 Alpha  occ. eigenvalues --   -0.35650  -0.34965  -0.34165  -0.31881  -0.31831
 Alpha  occ. eigenvalues --   -0.31320  -0.30024  -0.28247  -0.25939  -0.22340
 Alpha  occ. eigenvalues --   -0.17772
 Alpha virt. eigenvalues --   -0.06816  -0.01593   0.02582   0.05785   0.08156
 Alpha virt. eigenvalues --    0.09469   0.11152   0.11702   0.11964   0.12711
 Alpha virt. eigenvalues --    0.12929   0.13567   0.13960   0.13992   0.14373

 Mulliken charges:
               1
     1  O   -0.570203
     2  O   -0.533772
     3  C   -0.042221
     4  C   -0.000127
     5  C   -0.211709
     6  C   -0.188693
     7  C    0.190426
     8  C    0.162986
     9  C    0.076115
    10  C    0.075851
    11  C   -0.191521
    12  C   -0.215120
    13  C    0.036821
    14  C    0.095635
    15  C   -0.291369
    16  C   -0.291508
    17  C   -0.306974
    18  C   -0.294918
    19  C   -0.103555
    20  C   -0.164742
    21  C   -0.359727
    22  C   -0.382895
    23  C   -0.120539
    24  C   -0.079418
    25  C    0.132177
    26  C    0.066854
    27  C   -0.390650
    28  C   -0.362947
    29  C   -0.120436
    30  C   -0.118064
    31  C   -0.109739
    32  C   -0.095345
    33  C   -0.120415
    34  C   -0.102377
    35  C    0.149946
    36  C    0.098431
    37  C   -0.381897
    38  C   -0.336622
    39  C   -0.144314
    40  C   -0.128457
    41  C   -0.090988
    42  C   -0.077997
    43  H    0.115954
    44  H    0.073144
    45  H    0.088397
    46  H    0.104641
    47  H    0.054483
    48  H    0.070762
    49  H    0.121593
    50  H    0.098712
    51  H    0.100837
    52  H    0.101618
    53  H    0.099111
    54  H    0.077116
    55  H    0.109159
    56  H    0.095480
    57  H    0.103497
    58  H    0.104568
    59  H    0.081738
    60  H    0.109494
    61  H    0.098839
    62  H    0.112192
    63  H    0.075674
    64  H    0.099314
    65  H    0.082714
    66  H    0.083528
    67  H    0.123025
    68  H    0.124740
    69  H    0.090437
    70  H    0.103852
    71  H    0.126917
    72  H    0.090836
    73  H    0.314789
    74  H    0.280252
    75  H    0.076364
    76  H    0.082228
    77  H    0.096335
    78  H    0.125698
    79  H    0.119831
    80  H    0.129715
    81  H    0.108510
    82  H    0.120002
    83  H    0.078929
    84  H    0.063381
    85  H    0.073670
    86  H    0.078365
    87  H    0.070536
    88  H    0.088928
    89  H    0.127326
    90  H    0.095072
    91  H    0.137497
    92  H    0.102674
    93  H    0.122085
    94  H    0.113992
    95  H    0.090089
    96  H    0.056737
    97  H    0.083770
    98  H    0.084872
 Sum of Mulliken charges =  -0.00000

 Dipole moment (field-independent basis, Debye):
    X=              0.4838    Y=             -1.6484    Z=              1.1130  Tot=              2.0470
 Quadrupole moment (field-independent basis, Debye-Ang):
   XX=           -256.4666   YY=           -244.1362   ZZ=           -261.8738
   XY=             21.6301   XZ=              1.5429   YZ=             -1.3371

 Normal termination of Gaussian 16 at Fri Jul 12 20:35:43 2019.
