 Gaussian 16, Revision A.03,
 Gaussian 16:  ES64L-G16RevA.03 25-Dec-2016

 -------------------------------------
 # td=(NStates=1) CAM-B3LYP/6-31G(d,p)
 -------------------------------------

 --
 TD
 --
 Symbolic Z-matrix:
 Charge =  0 Multiplicity = 1

                         Standard orientation:
 ---------------------------------------------------------------------
 Center     Atomic      Atomic             Coordinates (Angstroms)
 Number     Number       Type             X           Y           Z
 ---------------------------------------------------------------------
      1          8           0       14.795898   -2.091199   -0.104905
      2          8           0      -14.682660    1.785938    1.062488
      3          6           0       10.981163   -1.591901    0.881888
      4          6           0      -12.352490   -1.050810    0.678256
      5          6           0       12.593037   -2.170153    0.973753
      6          6           0      -13.686875   -0.343489    0.802635
      7          6           0       13.409402   -1.858908   -0.360642
      8          6           0      -13.517503    1.055542    1.040606
      9          6           0       10.873321   -0.348237    0.070267
     10          6           0      -11.236857   -0.310128   -0.200694
     11          6           0       13.276542   -0.440587   -0.849708
     12          6           0      -12.755370    1.679552   -0.144281
     13          6           0       11.946173    0.103336   -0.823324
     14          6           0      -11.520423    0.912579   -0.641615
     15          6           0       10.614124   -1.391702    2.358131
     16          6           0       10.348320   -2.830510    0.329028
     17          6           0      -11.707320   -1.108297    2.220573
     18          6           0      -12.540980   -2.500495    0.239023
     19          6           0        9.639128    0.353186    0.165674
     20          6           0      -10.071874   -1.091442   -0.492201
     21          6           0       11.783677    1.373187   -1.609237
     22          6           0      -10.718747    1.597193   -1.717788
     23          6           0        9.325692    1.706666    0.340441
     24          6           0       -8.869761   -0.481486   -0.388721
     25          6           0        8.083363    2.257475    0.191290
     26          6           0       -7.551713   -1.155333   -0.697884
     27          6           0        7.949357    3.678070    0.781844
     28          6           0       -7.577527   -2.513552   -1.181424
     29          6           0        6.911090    1.642906   -0.028185
     30          6           0       -6.371334   -0.451687   -0.517031
     31          6           0        5.595069    2.101313    0.057326
     32          6           0       -5.003591   -0.928269   -0.746218
     33          6           0        4.372361    1.346654   -0.152003
     34          6           0       -3.931241   -0.162931   -0.476626
     35          6           0        3.081795    1.820066    0.034022
     36          6           0       -2.578090   -0.578362   -0.610882
     37          6           0        2.922587    3.223629    0.516602
     38          6           0       -2.184953   -2.043396   -0.981277
     39          6           0        2.083535    0.842338   -0.256914
     40          6           0       -1.664581    0.244845   -0.330231
     41          6           0        0.652458    1.057317   -0.159679
     42          6           0       -0.257525    0.055536   -0.377978
     43          1           0       13.244759   -1.588549    1.597838
     44          1           0       12.582865   -3.280652    1.323340
     45          1           0      -14.242079   -0.916429    1.530131
     46          1           0      -14.162442   -0.552818   -0.091341
     47          1           0       13.111797   -2.729033   -1.115064
     48          1           0      -12.894891    1.297113    1.950340
     49          1           0       13.856464    0.148538   -0.116125
     50          1           0       13.737301   -0.636873   -1.778288
     51          1           0      -13.436476    1.725357   -0.855471
     52          1           0      -12.423171    2.685620    0.173640
     53          1           0       10.767469   -2.176147    2.861852
     54          1           0        9.647705   -1.010924    2.641132
     55          1           0       11.143106   -0.502213    2.646381
     56          1           0       10.644120   -3.198162   -0.704387
     57          1           0       10.315327   -3.688741    0.824094
     58          1           0        9.344749   -2.708765    0.192317
     59          1           0      -11.202330   -0.212436    2.725150
     60          1           0      -10.740208   -1.837794    2.282899
     61          1           0      -12.473930   -1.764021    2.949141
     62          1           0      -13.330667   -2.997686    0.838240
     63          1           0      -11.738336   -3.225076    0.604315
     64          1           0      -12.943213   -2.608206   -0.704506
     65          1           0        8.821208   -0.390868    0.269729
     66          1           0      -10.232591   -2.117672   -0.749924
     67          1           0       10.630699    1.703153   -1.782019
     68          1           0       12.467838    2.229136   -1.255202
     69          1           0       12.113022    1.252073   -2.692743
     70          1           0      -11.491271    2.191030   -2.400365
     71          1           0       -9.988787    1.204806   -2.411517
     72          1           0      -10.383210    2.660131   -1.299202
     73          1           0       14.865827   -3.162278   -0.094029
     74          1           0      -15.150657    1.397211    1.774178
     75          1           0       10.151743    2.215724    0.492967
     76          1           0       -8.780326    0.493974   -0.054984
     77          1           0        8.965693    4.296144    0.560331
     78          1           0        7.126682    4.040369    0.126088
     79          1           0        7.639323    3.566091    1.951857
     80          1           0       -7.792271   -3.349779   -0.285932
     81          1           0       -8.566751   -2.797005   -1.840604
     82          1           0       -6.665523   -2.844159   -1.655477
     83          1           0        6.867665    0.680750   -0.616899
     84          1           0       -6.561626    0.545150   -0.306103
     85          1           0        5.384101    3.107891    0.502112
     86          1           0       -4.742269   -1.991889   -1.149669
     87          1           0        4.521462    0.265230   -0.525983
     88          1           0       -4.005641    0.917263   -0.283055
     89          1           0        3.029955    3.258316    1.911972
     90          1           0        1.861891    3.582336    0.631798
     91          1           0        3.785379    4.038380    0.274535
     92          1           0       -2.805536   -2.766565   -0.217808
     93          1           0       -2.581376   -2.200947   -1.791434
     94          1           0       -1.129806   -2.289568   -0.945788
     95          1           0        2.330245   -0.218269   -0.563011
     96          1           0       -1.888900    1.312018   -0.342144
     97          1           0        0.224954    2.057063    0.247781
     98          1           0        0.204390   -0.863546   -0.536650
 ---------------------------------------------------------------------

 SCF Done:  E(RCAM-B3LYP) =  -1706.88436783     A.U. after   15 cycles

 Excitation energies and oscillator strengths:

 Excited State   1:      Singlet-A      2.2022 eV  563.01 nm  f=3.3023  <S**2>=0.000
     155 ->158        -0.14887
     156 ->157         0.68963
 This state for optimization and/or second-order correction.
 Total Energy, E(TD-HF/TD-DFT) =  -1706.80343992
 Copying the excited state density for this state as the 1-particle RhoCI density.

 The electronic state is 1-A.
 Alpha  occ. eigenvalues --  -19.22011 -19.21161 -10.31263 -10.29921 -10.29610
 Alpha  occ. eigenvalues --  -10.28540 -10.28372 -10.28093 -10.27946 -10.27879
 Alpha  occ. eigenvalues --  -10.27455 -10.27282 -10.27156 -10.27090 -10.27075
 Alpha  occ. eigenvalues --  -10.27023 -10.26908 -10.26819 -10.26568 -10.26409
 Alpha  occ. eigenvalues --  -10.26400 -10.26373 -10.26009 -10.25955 -10.25887
 Alpha  occ. eigenvalues --  -10.25885 -10.25862 -10.25730 -10.25633 -10.25415
 Alpha  occ. eigenvalues --  -10.25405 -10.25225 -10.25214 -10.25179 -10.25168
 Alpha  occ. eigenvalues --  -10.24972 -10.24553 -10.24473 -10.23981 -10.23837
 Alpha  occ. eigenvalues --  -10.22670 -10.22219  -1.12286  -1.08044  -0.93491
 Alpha  occ. eigenvalues --   -0.93141  -0.93026  -0.91565  -0.90547  -0.90171
 Alpha  occ. eigenvalues --   -0.87775  -0.87502  -0.86612  -0.85507  -0.84760
 Alpha  occ. eigenvalues --   -0.83080  -0.81431  -0.80185  -0.79173  -0.78608
 Alpha  occ. eigenvalues --   -0.78030  -0.76576  -0.76366  -0.75900  -0.75626
 Alpha  occ. eigenvalues --   -0.74972  -0.74779  -0.73802  -0.73327  -0.70129
 Alpha  occ. eigenvalues --   -0.68791  -0.67650  -0.66123  -0.65040  -0.64391
 Alpha  occ. eigenvalues --   -0.63313  -0.62896  -0.62135  -0.60511  -0.59862
 Alpha  occ. eigenvalues --   -0.59640  -0.58725  -0.58226  -0.58165  -0.56470
 Alpha  occ. eigenvalues --   -0.56183  -0.55622  -0.54691  -0.54594  -0.54451
 Alpha  occ. eigenvalues --   -0.53356  -0.52972  -0.52391  -0.51956  -0.51473
 Alpha  occ. eigenvalues --   -0.50984  -0.50398  -0.49856  -0.49773  -0.49198
 Alpha  occ. eigenvalues --   -0.49015  -0.48619  -0.48255  -0.47843  -0.47698
 Alpha  occ. eigenvalues --   -0.47322  -0.47041  -0.46664  -0.46525  -0.45954
 Alpha  occ. eigenvalues --   -0.45476  -0.45374  -0.45022  -0.44970  -0.44834
 Alpha  occ. eigenvalues --   -0.44663  -0.44417  -0.43757  -0.43512  -0.43255
 Alpha  occ. eigenvalues --   -0.42924  -0.42655  -0.42369  -0.42078  -0.41834
 Alpha  occ. eigenvalues --   -0.41723  -0.41642  -0.41288  -0.41171  -0.40874
 Alpha  occ. eigenvalues --   -0.40828  -0.40252  -0.40033  -0.39938  -0.39479
 Alpha  occ. eigenvalues --   -0.38905  -0.38410  -0.38330  -0.38125  -0.37577
 Alpha  occ. eigenvalues --   -0.37190  -0.36940  -0.36694  -0.36403  -0.35346
 Alpha  occ. eigenvalues --   -0.35097  -0.34644  -0.33975  -0.32932  -0.32343
 Alpha  occ. eigenvalues --   -0.30385  -0.29557  -0.27746  -0.25794  -0.23133
 Alpha  occ. eigenvalues --   -0.19350
 Alpha virt. eigenvalues --   -0.05690  -0.01226   0.01838   0.05526   0.07100
 Alpha virt. eigenvalues --    0.09284   0.09479   0.10481   0.11869   0.12119
 Alpha virt. eigenvalues --    0.12231   0.12785   0.13391   0.13599   0.13855

 Mulliken charges:
               1
     1  O   -0.556674
     2  O   -0.536929
     3  C   -0.028421
     4  C   -0.010276
     5  C   -0.190813
     6  C   -0.171154
     7  C    0.125511
     8  C    0.155208
     9  C    0.044932
    10  C    0.058217
    11  C   -0.207362
    12  C   -0.218575
    13  C    0.069150
    14  C    0.056966
    15  C   -0.287749
    16  C   -0.302539
    17  C   -0.308776
    18  C   -0.333732
    19  C   -0.129923
    20  C   -0.112853
    21  C   -0.369611
    22  C   -0.369528
    23  C   -0.069879
    24  C   -0.092696
    25  C    0.068111
    26  C    0.138675
    27  C   -0.345968
    28  C   -0.376207
    29  C   -0.093987
    30  C   -0.132577
    31  C   -0.110766
    32  C   -0.112367
    33  C   -0.128412
    34  C   -0.090023
    35  C    0.172328
    36  C    0.138179
    37  C   -0.363550
    38  C   -0.349998
    39  C   -0.149826
    40  C   -0.149760
    41  C   -0.087980
    42  C   -0.075714
    43  H    0.101261
    44  H    0.072151
    45  H    0.087262
    46  H    0.103337
    47  H    0.056722
    48  H    0.073816
    49  H    0.138282
    50  H    0.130251
    51  H    0.128347
    52  H    0.106995
    53  H    0.104804
    54  H    0.099195
    55  H    0.106017
    56  H    0.089366
    57  H    0.110310
    58  H    0.097836
    59  H    0.111558
    60  H    0.078073
    61  H    0.065752
    62  H    0.094317
    63  H    0.108490
    64  H    0.118740
    65  H    0.085618
    66  H    0.098191
    67  H    0.114285
    68  H    0.110040
    69  H    0.099478
    70  H    0.088362
    71  H    0.135381
    72  H    0.088593
    73  H    0.310546
    74  H    0.297979
    75  H    0.075396
    76  H    0.089280
    77  H    0.087972
    78  H    0.116176
    79  H    0.113232
    80  H    0.090188
    81  H    0.098194
    82  H    0.116014
    83  H    0.073071
    84  H    0.078665
    85  H    0.070851
    86  H    0.083473
    87  H    0.077745
    88  H    0.083710
    89  H    0.052720
    90  H    0.125150
    91  H    0.130276
    92  H    0.090365
    93  H    0.137450
    94  H    0.115611
    95  H    0.094671
    96  H    0.075674
    97  H    0.077368
    98  H    0.072739
 Sum of Mulliken charges =  -0.00000

 Dipole moment (field-independent basis, Debye):
    X=             -1.2761    Y=             -2.6860    Z=              0.1916  Tot=              2.9799
 Quadrupole moment (field-independent basis, Debye-Ang):
   XX=           -262.6961   YY=           -242.5421   ZZ=           -262.0837
   XY=              3.2058   XZ=            -12.5755   YZ=              4.5571

 Normal termination of Gaussian 16 at Thu Jul 18 12:45:11 2019.
