 Gaussian 16, Revision A.03,
 Gaussian 16:  ES64L-G16RevA.03 25-Dec-2016

 -------------------------------------
 # td=(NStates=1) CAM-B3LYP/6-31G(d,p)
 -------------------------------------

 --
 TD
 --
 Symbolic Z-matrix:
 Charge =  0 Multiplicity = 1

                         Standard orientation:
 ---------------------------------------------------------------------
 Center     Atomic      Atomic             Coordinates (Angstroms)
 Number     Number       Type             X           Y           Z
 ---------------------------------------------------------------------
      1          8           0       14.810343   -2.012520   -0.347982
      2          8           0      -14.786191    2.058161    0.711608
      3          6           0       11.196770   -1.511896    0.934477
      4          6           0      -12.417327   -0.935819    0.599010
      5          6           0       12.724642   -1.806268    0.952169
      6          6           0      -13.761509   -0.194921    0.652306
      7          6           0       13.335562   -1.804943   -0.461038
      8          6           0      -13.522545    1.333369    0.731506
      9          6           0       10.816092   -0.318609    0.015475
     10          6           0      -11.307476   -0.315542   -0.222677
     11          6           0       13.265986   -0.505092   -1.060162
     12          6           0      -12.750642    1.823126   -0.417864
     13          6           0       11.914465    0.163900   -0.855468
     14          6           0      -11.498700    0.985462   -0.714505
     15          6           0       10.906854   -1.265729    2.499514
     16          6           0       10.431440   -2.649457    0.467666
     17          6           0      -11.895569   -1.024672    1.977416
     18          6           0      -12.730090   -2.374262    0.114312
     19          6           0        9.639378    0.352172    0.148550
     20          6           0      -10.090373   -1.075830   -0.550839
     21          6           0       11.666594    1.217959   -2.012281
     22          6           0      -10.502172    1.717036   -1.620347
     23          6           0        9.364603    1.663757    0.007238
     24          6           0       -8.867966   -0.611957   -0.365138
     25          6           0        8.032541    2.291902    0.178657
     26          6           0       -7.520282   -1.344014   -0.466743
     27          6           0        7.951924    3.836500    0.492641
     28          6           0       -7.625435   -2.726418   -0.788078
     29          6           0        6.918522    1.635307    0.112869
     30          6           0       -6.340768   -0.663805   -0.224522
     31          6           0        5.510754    2.050952    0.431804
     32          6           0       -5.085874   -1.153060   -0.457122
     33          6           0        4.434359    1.325721    0.147187
     34          6           0       -3.894360   -0.433433   -0.254073
     35          6           0        3.081402    1.796481    0.240424
     36          6           0       -2.568916   -0.904374   -0.358502
     37          6           0        2.695740    3.157219    0.671143
     38          6           0       -2.286796   -2.323290   -0.842343
     39          6           0        2.097413    0.794071   -0.158788
     40          6           0       -1.493474    0.005533   -0.099025
     41          6           0        0.720114    0.807361    0.026948
     42          6           0       -0.149494   -0.093535   -0.410565
     43          1           0       13.179578   -1.184118    1.465482
     44          1           0       13.018223   -2.660316    1.466581
     45          1           0      -14.410614   -0.461902    1.482901
     46          1           0      -14.529785   -0.483176   -0.177228
     47          1           0       12.977631   -2.530503   -1.125831
     48          1           0      -12.935935    1.611820    1.635859
     49          1           0       13.865642    0.139984   -0.582156
     50          1           0       13.661563   -0.455828   -2.217366
     51          1           0      -13.355974    1.799636   -1.247731
     52          1           0      -12.248498    2.845849   -0.320246
     53          1           0       11.097631   -2.161321    3.169474
     54          1           0        9.760971   -0.951047    2.578883
     55          1           0       11.566142   -0.416640    2.962015
     56          1           0       10.972976   -2.771013   -0.498427
     57          1           0       10.551985   -3.500917    1.152009
     58          1           0        9.439153   -2.272809    0.317621
     59          1           0      -11.954032   -0.243581    2.721901
     60          1           0      -10.742249   -1.406311    2.231823
     61          1           0      -12.554445   -1.723587    2.594970
     62          1           0      -13.516638   -2.896309    0.616134
     63          1           0      -11.839853   -2.844216    0.187647
     64          1           0      -12.975120   -2.408632   -1.014882
     65          1           0        8.757535   -0.316299    0.493730
     66          1           0      -10.159282   -2.129440   -1.050704
     67          1           0       10.603948    1.350312   -2.134776
     68          1           0       12.241655    2.192746   -1.718561
     69          1           0       12.238760    0.822942   -2.861489
     70          1           0      -11.195334    2.358936   -2.193421
     71          1           0       -9.802865    1.039169   -1.970806
     72          1           0       -9.867700    2.552655   -0.946729
     73          1           0       14.905739   -2.878796   -0.237721
     74          1           0      -15.251124    1.663404    1.302758
     75          1           0       10.127427    2.261510   -0.325835
     76          1           0       -8.778682    0.429472   -0.028088
     77          1           0        8.890045    4.431532    0.683359
     78          1           0        7.499838    4.094535   -0.363138
     79          1           0        7.182879    4.053791    1.248371
     80          1           0       -8.331251   -3.145765    0.023154
     81          1           0       -8.112845   -2.940517   -1.850289
     82          1           0       -6.591078   -3.211480   -0.704962
     83          1           0        6.808163    0.526575   -0.176701
     84          1           0       -6.261417    0.425624   -0.001692
     85          1           0        5.385303    3.059407    0.644270
     86          1           0       -4.906266   -2.333048   -0.895325
     87          1           0        4.450468    0.184306   -0.292183
     88          1           0       -4.101116    0.556590   -0.102039
     89          1           0        2.739513    3.274356    1.809613
     90          1           0        1.637694    3.392106    0.320609
     91          1           0        3.572353    3.855883    0.236679
     92          1           0       -2.902613   -3.174168   -0.168231
     93          1           0       -2.321617   -2.551083   -1.996606
     94          1           0       -1.133149   -2.508032   -0.720334
     95          1           0        2.538525   -0.080984   -0.578101
     96          1           0       -1.856987    0.956270    0.372073
     97          1           0        0.212937    1.807684    0.341829
     98          1           0        0.186657   -0.935799   -0.834537
 ---------------------------------------------------------------------

 SCF Done:  E(RCAM-B3LYP) =  -1706.94517597     A.U. after   15 cycles

 Excitation energies and oscillator strengths:

 Excited State   1:      Singlet-A      2.2219 eV  558.01 nm  f=3.6059  <S**2>=0.000
     155 ->158        -0.13951
     156 ->157         0.69236
 This state for optimization and/or second-order correction.
 Total Energy, E(TD-HF/TD-DFT) =  -1706.86352323
 Copying the excited state density for this state as the 1-particle RhoCI density.

 The electronic state is 1-A.
 Alpha  occ. eigenvalues --  -19.19788 -19.19783 -10.30376 -10.29832 -10.28677
 Alpha  occ. eigenvalues --  -10.28439 -10.28336 -10.27943 -10.27905 -10.27797
 Alpha  occ. eigenvalues --  -10.27701 -10.27381 -10.27335 -10.27296 -10.27001
 Alpha  occ. eigenvalues --  -10.26877 -10.26841 -10.26786 -10.26686 -10.26648
 Alpha  occ. eigenvalues --  -10.26581 -10.26416 -10.26404 -10.26328 -10.26328
 Alpha  occ. eigenvalues --  -10.26244 -10.26125 -10.26080 -10.26021 -10.25865
 Alpha  occ. eigenvalues --  -10.25814 -10.25677 -10.25492 -10.25480 -10.25369
 Alpha  occ. eigenvalues --  -10.25329 -10.25194 -10.25053 -10.24627 -10.24032
 Alpha  occ. eigenvalues --  -10.23992 -10.22975  -1.11122  -1.09538  -0.94070
 Alpha  occ. eigenvalues --   -0.93892  -0.92373  -0.91679  -0.90972  -0.89860
 Alpha  occ. eigenvalues --   -0.88134  -0.87588  -0.87341  -0.86594  -0.85811
 Alpha  occ. eigenvalues --   -0.83381  -0.82167  -0.80788  -0.80225  -0.78199
 Alpha  occ. eigenvalues --   -0.77556  -0.76571  -0.76455  -0.75832  -0.75585
 Alpha  occ. eigenvalues --   -0.75419  -0.75064  -0.74535  -0.73121  -0.70475
 Alpha  occ. eigenvalues --   -0.69139  -0.67937  -0.66543  -0.65791  -0.63915
 Alpha  occ. eigenvalues --   -0.63234  -0.62442  -0.62288  -0.60104  -0.59944
 Alpha  occ. eigenvalues --   -0.59582  -0.59417  -0.58611  -0.57646  -0.55951
 Alpha  occ. eigenvalues --   -0.55635  -0.55437  -0.55205  -0.54467  -0.54033
 Alpha  occ. eigenvalues --   -0.53274  -0.52737  -0.51854  -0.51500  -0.51246
 Alpha  occ. eigenvalues --   -0.51131  -0.50491  -0.50124  -0.49740  -0.49171
 Alpha  occ. eigenvalues --   -0.48975  -0.48679  -0.48570  -0.48161  -0.48014
 Alpha  occ. eigenvalues --   -0.47728  -0.47484  -0.47291  -0.46953  -0.46614
 Alpha  occ. eigenvalues --   -0.46331  -0.45757  -0.45557  -0.45365  -0.45058
 Alpha  occ. eigenvalues --   -0.44944  -0.44824  -0.44224  -0.43855  -0.43090
 Alpha  occ. eigenvalues --   -0.43001  -0.42501  -0.42149  -0.42065  -0.41761
 Alpha  occ. eigenvalues --   -0.41508  -0.41461  -0.41306  -0.41236  -0.40962
 Alpha  occ. eigenvalues --   -0.40877  -0.40631  -0.39933  -0.39845  -0.39538
 Alpha  occ. eigenvalues --   -0.39361  -0.39132  -0.38580  -0.38319  -0.38267
 Alpha  occ. eigenvalues --   -0.37653  -0.37598  -0.37197  -0.36880  -0.36541
 Alpha  occ. eigenvalues --   -0.36203  -0.34998  -0.34255  -0.32653  -0.32009
 Alpha  occ. eigenvalues --   -0.31930  -0.30318  -0.27525  -0.25795  -0.23543
 Alpha  occ. eigenvalues --   -0.19466
 Alpha virt. eigenvalues --   -0.05974  -0.00899   0.01640   0.05529   0.07423
 Alpha virt. eigenvalues --    0.09322   0.11469   0.11521   0.12081   0.12315
 Alpha virt. eigenvalues --    0.12663   0.12872   0.13549   0.13904   0.14033

 Mulliken charges:
               1
     1  O   -0.558233
     2  O   -0.536679
     3  C   -0.037809
     4  C   -0.010819
     5  C   -0.142902
     6  C   -0.209106
     7  C    0.106778
     8  C    0.141870
     9  C    0.061872
    10  C    0.062075
    11  C   -0.182613
    12  C   -0.196867
    13  C   -0.002518
    14  C    0.024908
    15  C   -0.304605
    16  C   -0.260292
    17  C   -0.300036
    18  C   -0.301505
    19  C   -0.093520
    20  C   -0.149493
    21  C   -0.354173
    22  C   -0.341087
    23  C   -0.112687
    24  C   -0.087930
    25  C    0.064887
    26  C    0.111952
    27  C   -0.379343
    28  C   -0.375825
    29  C   -0.123150
    30  C   -0.116677
    31  C   -0.108590
    32  C   -0.076817
    33  C   -0.082164
    34  C   -0.116206
    35  C    0.118625
    36  C    0.110328
    37  C   -0.366369
    38  C   -0.364149
    39  C   -0.140378
    40  C   -0.133678
    41  C   -0.075340
    42  C   -0.038443
    43  H    0.106095
    44  H    0.083155
    45  H    0.090122
    46  H    0.095541
    47  H    0.097665
    48  H    0.088722
    49  H    0.146770
    50  H    0.090721
    51  H    0.131722
    52  H    0.102772
    53  H    0.097215
    54  H    0.084176
    55  H    0.094469
    56  H    0.090954
    57  H    0.097185
    58  H    0.102231
    59  H    0.111054
    60  H    0.086216
    61  H    0.080255
    62  H    0.104605
    63  H    0.111780
    64  H    0.088869
    65  H    0.080274
    66  H    0.089573
    67  H    0.129716
    68  H    0.104046
    69  H    0.109308
    70  H    0.115509
    71  H    0.131976
    72  H    0.077636
    73  H    0.286460
    74  H    0.281021
    75  H    0.083897
    76  H    0.086473
    77  H    0.110798
    78  H    0.145319
    79  H    0.122249
    80  H    0.119025
    81  H    0.112407
    82  H    0.103795
    83  H    0.071679
    84  H    0.087008
    85  H    0.067713
    86  H    0.065230
    87  H    0.076640
    88  H    0.074602
    89  H    0.126735
    90  H    0.119168
    91  H    0.103972
    92  H    0.101542
    93  H    0.115748
    94  H    0.095389
    95  H    0.076435
    96  H    0.077167
    97  H    0.070946
    98  H    0.074959
 Sum of Mulliken charges =  -0.00000

 Dipole moment (field-independent basis, Debye):
    X=              0.5932    Y=             -1.6211    Z=              0.4604  Tot=              1.7865
 Quadrupole moment (field-independent basis, Debye-Ang):
   XX=           -272.1792   YY=           -246.4005   ZZ=           -261.5125
   XY=             10.4655   XZ=            -13.3299   YZ=              3.5015

 Normal termination of Gaussian 16 at Mon Jul  8 15:26:31 2019.
