 Gaussian 16, Revision A.03,
 Gaussian 16:  ES64L-G16RevA.03 25-Dec-2016

 -------------------------------------
 # td=(NStates=1) CAM-B3LYP/6-31G(d,p)
 -------------------------------------

 --
 TD
 --
 Symbolic Z-matrix:
 Charge =  0 Multiplicity = 1

                         Standard orientation:
 ---------------------------------------------------------------------
 Center     Atomic      Atomic             Coordinates (Angstroms)
 Number     Number       Type             X           Y           Z
 ---------------------------------------------------------------------
      1          8           0       14.691571   -2.314557   -0.293907
      2          8           0      -14.659910    1.872750    1.128087
      3          6           0       11.164745   -1.524349    1.009061
      4          6           0      -12.381163   -1.084933    0.744690
      5          6           0       12.647219   -1.858589    1.031787
      6          6           0      -13.730371   -0.335198    0.760909
      7          6           0       13.298003   -1.975921   -0.324062
      8          6           0      -13.448487    1.124298    0.992015
      9          6           0       10.973294   -0.273409    0.102329
     10          6           0      -11.297082   -0.309447   -0.139597
     11          6           0       13.283686   -0.519299   -0.865108
     12          6           0      -12.775231    1.713165   -0.254382
     13          6           0       11.906074    0.136430   -0.844549
     14          6           0      -11.490848    0.977223   -0.538343
     15          6           0       10.723917   -1.178294    2.389152
     16          6           0       10.273648   -2.743099    0.481601
     17          6           0      -11.870848   -1.313754    2.092188
     18          6           0      -12.625013   -2.399855   -0.035689
     19          6           0        9.693474    0.325637    0.267260
     20          6           0      -10.034347   -0.948134   -0.405016
     21          6           0       11.764122    1.328472   -1.706380
     22          6           0      -10.551531    1.783250   -1.573682
     23          6           0        9.380547    1.694838    0.084944
     24          6           0       -8.769783   -0.378610   -0.367273
     25          6           0        8.067633    2.336678    0.158248
     26          6           0       -7.520829   -1.104124   -0.790161
     27          6           0        7.959288    3.835979    0.466994
     28          6           0       -7.662883   -2.468557   -1.271926
     29          6           0        6.892046    1.515075    0.162926
     30          6           0       -6.369805   -0.445399   -0.581502
     31          6           0        5.639647    2.059384    0.175310
     32          6           0       -5.110014   -1.028146   -0.721333
     33          6           0        4.439502    1.237337   -0.058068
     34          6           0       -3.976802   -0.395456   -0.313361
     35          6           0        3.148145    1.688987    0.028578
     36          6           0       -2.592163   -0.789818   -0.345521
     37          6           0        2.877805    3.170646    0.437912
     38          6           0       -2.313856   -2.212184   -0.877282
     39          6           0        2.126646    0.764447   -0.238999
     40          6           0       -1.649132    0.197951   -0.138273
     41          6           0        0.690332    1.087776   -0.175897
     42          6           0       -0.245884    0.083262   -0.310564
     43          1           0       13.452293   -1.177243    1.571887
     44          1           0       12.945310   -2.886179    1.451516
     45          1           0      -14.466426   -0.720319    1.350484
     46          1           0      -14.434958   -0.322097   -0.000217
     47          1           0       12.849942   -2.670873   -1.047743
     48          1           0      -12.846714    1.299547    1.859494
     49          1           0       14.100550    0.186197   -0.457640
     50          1           0       13.302066   -0.547301   -1.987269
     51          1           0      -13.426176    1.713588   -1.006833
     52          1           0      -12.619061    2.701849   -0.071176
     53          1           0       11.318928   -1.833138    2.962201
     54          1           0        9.672842   -1.125716    2.405492
     55          1           0       10.910176   -0.072396    2.669677
     56          1           0       10.541719   -3.109492   -0.482946
     57          1           0       10.577463   -3.547690    1.093455
     58          1           0        9.256344   -2.635624    0.352583
     59          1           0      -11.483926   -0.443305    2.742356
     60          1           0      -10.842373   -1.764275    1.881993
     61          1           0      -12.450020   -2.038434    2.761028
     62          1           0      -13.530815   -2.961521    0.462317
     63          1           0      -11.912647   -3.122800    0.055790
     64          1           0      -12.925408   -2.367669   -1.073565
     65          1           0        8.856744   -0.355714    0.737237
     66          1           0       -9.886464   -1.969286   -0.444416
     67          1           0       10.727911    1.621230   -1.843916
     68          1           0       12.334964    2.211280   -1.381561
     69          1           0       12.226904    0.889312   -2.616175
     70          1           0      -11.299743    2.060513   -2.404200
     71          1           0       -9.744674    1.012963   -1.856638
     72          1           0      -10.255088    2.605268   -1.027745
     73          1           0       14.622168   -3.387241   -0.382613
     74          1           0      -15.379903    1.446654    1.792354
     75          1           0       10.356319    2.414682   -0.186039
     76          1           0       -8.565479    0.538176   -0.216166
     77          1           0        9.096782    3.857912    0.947259
     78          1           0        7.723122    4.305383   -0.639770
     79          1           0        7.336295    4.067248    1.336889
     80          1           0       -8.206780   -3.135795   -0.591808
     81          1           0       -8.438353   -2.552788   -2.196857
     82          1           0       -6.811029   -2.982377   -1.510814
     83          1           0        6.953302    0.438693   -0.248551
     84          1           0       -6.527702    0.499788   -0.285736
     85          1           0        5.263670    3.124599    0.274543
     86          1           0       -5.074502   -2.055276   -1.188254
     87          1           0        4.707621    0.168096   -0.223362
     88          1           0       -3.877106    0.801796   -0.193173
     89          1           0        3.191483    3.266809    1.460546
     90          1           0        1.687188    3.314650    0.726058
     91          1           0        3.446823    3.920553   -0.130146
     92          1           0       -2.841158   -2.857837   -0.149401
     93          1           0       -2.744208   -2.273597   -1.931182
     94          1           0       -1.221779   -2.537614   -0.610770
     95          1           0        2.348661   -0.323486   -0.364129
     96          1           0       -2.085966    1.028932    0.414384
     97          1           0        0.434123    1.996086    0.270781
     98          1           0        0.201249   -0.825824   -0.556558
 ---------------------------------------------------------------------

 SCF Done:  E(RCAM-B3LYP) =  -1706.95030501     A.U. after   15 cycles

 Excitation energies and oscillator strengths:

 Excited State   1:      Singlet-A      2.0549 eV  603.36 nm  f=3.5079  <S**2>=0.000
     155 ->158        -0.15321
     156 ->157         0.69073
 This state for optimization and/or second-order correction.
 Total Energy, E(TD-HF/TD-DFT) =  -1706.87478919
 Copying the excited state density for this state as the 1-particle RhoCI density.

 The electronic state is 1-A.
 Alpha  occ. eigenvalues --  -19.22350 -19.20679 -10.30519 -10.29004 -10.28225
 Alpha  occ. eigenvalues --  -10.28148 -10.27961 -10.27852 -10.27755 -10.27536
 Alpha  occ. eigenvalues --  -10.27366 -10.27318 -10.27064 -10.26979 -10.26959
 Alpha  occ. eigenvalues --  -10.26774 -10.26579 -10.26572 -10.26567 -10.26552
 Alpha  occ. eigenvalues --  -10.26524 -10.26301 -10.26174 -10.26118 -10.26052
 Alpha  occ. eigenvalues --  -10.26013 -10.25924 -10.25836 -10.25701 -10.25684
 Alpha  occ. eigenvalues --  -10.25575 -10.25536 -10.25420 -10.25313 -10.24810
 Alpha  occ. eigenvalues --  -10.24771 -10.24514 -10.24419 -10.24068 -10.23639
 Alpha  occ. eigenvalues --  -10.23019 -10.22731  -1.08097  -1.06619  -0.93497
 Alpha  occ. eigenvalues --   -0.93349  -0.92178  -0.91278  -0.90402  -0.89145
 Alpha  occ. eigenvalues --   -0.87564  -0.87129  -0.86511  -0.85333  -0.84517
 Alpha  occ. eigenvalues --   -0.82749  -0.81581  -0.79851  -0.79662  -0.78011
 Alpha  occ. eigenvalues --   -0.77435  -0.77125  -0.76564  -0.76316  -0.76019
 Alpha  occ. eigenvalues --   -0.75623  -0.75314  -0.74787  -0.73198  -0.70027
 Alpha  occ. eigenvalues --   -0.68440  -0.67028  -0.66134  -0.64350  -0.63997
 Alpha  occ. eigenvalues --   -0.63741  -0.62913  -0.62353  -0.60911  -0.59595
 Alpha  occ. eigenvalues --   -0.59325  -0.59265  -0.58751  -0.57471  -0.55890
 Alpha  occ. eigenvalues --   -0.55352  -0.55196  -0.54303  -0.53759  -0.53476
 Alpha  occ. eigenvalues --   -0.53119  -0.52254  -0.51409  -0.51357  -0.50864
 Alpha  occ. eigenvalues --   -0.50563  -0.49880  -0.49687  -0.49639  -0.49247
 Alpha  occ. eigenvalues --   -0.49193  -0.48963  -0.48795  -0.48430  -0.48295
 Alpha  occ. eigenvalues --   -0.47813  -0.47216  -0.47101  -0.46722  -0.46314
 Alpha  occ. eigenvalues --   -0.46289  -0.45812  -0.45560  -0.45237  -0.45002
 Alpha  occ. eigenvalues --   -0.44831  -0.44369  -0.43922  -0.43541  -0.43342
 Alpha  occ. eigenvalues --   -0.43115  -0.42791  -0.42582  -0.42248  -0.41919
 Alpha  occ. eigenvalues --   -0.41801  -0.41510  -0.41160  -0.40877  -0.40640
 Alpha  occ. eigenvalues --   -0.40092  -0.40034  -0.39366  -0.39138  -0.38888
 Alpha  occ. eigenvalues --   -0.38833  -0.38549  -0.38487  -0.37962  -0.37857
 Alpha  occ. eigenvalues --   -0.37649  -0.37136  -0.36449  -0.36367  -0.36035
 Alpha  occ. eigenvalues --   -0.35233  -0.34495  -0.33312  -0.32579  -0.31972
 Alpha  occ. eigenvalues --   -0.31364  -0.30263  -0.27793  -0.25900  -0.22613
 Alpha  occ. eigenvalues --   -0.18691
 Alpha virt. eigenvalues --   -0.05855  -0.01530   0.02355   0.05152   0.08209
 Alpha virt. eigenvalues --    0.09242   0.10021   0.11001   0.11416   0.11822
 Alpha virt. eigenvalues --    0.12711   0.12896   0.13029   0.13551   0.13738

 Mulliken charges:
               1
     1  O   -0.553322
     2  O   -0.598281
     3  C   -0.007721
     4  C    0.006447
     5  C   -0.187102
     6  C   -0.176588
     7  C    0.140765
     8  C    0.167520
     9  C    0.086211
    10  C    0.086473
    11  C   -0.203437
    12  C   -0.191099
    13  C    0.023877
    14  C   -0.018493
    15  C   -0.289802
    16  C   -0.315558
    17  C   -0.300703
    18  C   -0.311445
    19  C   -0.129747
    20  C   -0.133643
    21  C   -0.358767
    22  C   -0.342479
    23  C   -0.138708
    24  C   -0.090588
    25  C    0.045973
    26  C    0.122454
    27  C   -0.340502
    28  C   -0.392097
    29  C   -0.121756
    30  C   -0.082341
    31  C   -0.075971
    32  C   -0.114791
    33  C   -0.128740
    34  C   -0.114087
    35  C    0.117600
    36  C    0.107329
    37  C   -0.384641
    38  C   -0.367050
    39  C   -0.142820
    40  C   -0.142159
    41  C   -0.068676
    42  C   -0.084136
    43  H    0.107411
    44  H    0.061678
    45  H    0.074284
    46  H    0.097832
    47  H    0.082523
    48  H    0.081638
    49  H    0.119027
    50  H    0.088847
    51  H    0.123331
    52  H    0.109827
    53  H    0.108348
    54  H    0.106793
    55  H    0.100462
    56  H    0.101361
    57  H    0.107370
    58  H    0.114707
    59  H    0.107782
    60  H    0.098029
    61  H    0.098239
    62  H    0.070240
    63  H    0.107852
    64  H    0.118501
    65  H    0.084434
    66  H    0.069363
    67  H    0.130167
    68  H    0.121737
    69  H    0.095672
    70  H    0.103125
    71  H    0.118656
    72  H    0.127436
    73  H    0.302812
    74  H    0.300523
    75  H    0.083489
    76  H    0.062725
    77  H    0.094998
    78  H    0.121881
    79  H    0.137317
    80  H    0.125748
    81  H    0.103269
    82  H    0.110625
    83  H    0.090558
    84  H    0.072501
    85  H    0.074508
    86  H    0.089769
    87  H    0.074490
    88  H    0.069890
    89  H    0.138939
    90  H    0.093377
    91  H    0.133469
    92  H    0.124284
    93  H    0.129303
    94  H    0.102661
    95  H    0.086932
    96  H    0.089474
    97  H    0.074718
    98  H    0.077671
 Sum of Mulliken charges =  -0.00000

 Dipole moment (field-independent basis, Debye):
    X=             -0.6574    Y=             -2.6558    Z=              0.7098  Tot=              2.8265
 Quadrupole moment (field-independent basis, Debye-Ang):
   XX=           -270.5935   YY=           -241.6657   ZZ=           -263.4065
   XY=              8.3767   XZ=            -12.7967   YZ=              5.0111

 Normal termination of Gaussian 16 at Fri Jul 12 04:21:35 2019.
