 Gaussian 16, Revision A.03,
 Gaussian 16:  ES64L-G16RevA.03 25-Dec-2016

 -------------------------------------
 # td=(NStates=1) CAM-B3LYP/6-31G(d,p)
 -------------------------------------

 --
 TD
 --
 Symbolic Z-matrix:
 Charge =  0 Multiplicity = 1

                         Standard orientation:
 ---------------------------------------------------------------------
 Center     Atomic      Atomic             Coordinates (Angstroms)
 Number     Number       Type             X           Y           Z
 ---------------------------------------------------------------------
      1          8           0       14.766903   -2.278440   -0.338285
      2          8           0      -14.834723    1.779436    1.024860
      3          6           0       11.259382   -1.443646    1.002235
      4          6           0      -12.274423   -1.035035    0.652676
      5          6           0       12.755188   -1.879455    1.058228
      6          6           0      -13.676969   -0.388432    0.729719
      7          6           0       13.372884   -1.878889   -0.350445
      8          6           0      -13.604355    1.110757    0.961557
      9          6           0       11.036912   -0.309758    0.071735
     10          6           0      -11.318409   -0.216007   -0.174114
     11          6           0       13.287213   -0.539355   -0.970932
     12          6           0      -12.828347    1.836590   -0.242071
     13          6           0       11.958582    0.138552   -0.857461
     14          6           0      -11.500799    1.021417   -0.482092
     15          6           0       10.992327   -0.903702    2.482761
     16          6           0       10.453823   -2.741238    0.678358
     17          6           0      -11.849625   -1.274530    2.076959
     18          6           0      -12.519838   -2.485990    0.010502
     19          6           0        9.584769    0.373260    0.232469
     20          6           0      -10.090269   -0.937665   -0.469343
     21          6           0       11.662538    1.236041   -1.829419
     22          6           0      -10.586429    1.835641   -1.507555
     23          6           0        9.397220    1.676981   -0.057543
     24          6           0       -8.827576   -0.455007   -0.246077
     25          6           0        8.071361    2.295886    0.114696
     26          6           0       -7.588591   -1.188769   -0.530843
     27          6           0        8.048868    3.849989    0.346642
     28          6           0       -7.702996   -2.517545   -1.194679
     29          6           0        6.912763    1.513695    0.000736
     30          6           0       -6.412840   -0.514860   -0.479100
     31          6           0        5.544245    2.032560    0.342652
     32          6           0       -5.077831   -1.052582   -0.690572
     33          6           0        4.404158    1.316450    0.022695
     34          6           0       -3.959787   -0.335390   -0.483353
     35          6           0        3.143338    1.706508    0.208640
     36          6           0       -2.614484   -0.812393   -0.534500
     37          6           0        2.762842    3.104841    0.596109
     38          6           0       -2.403433   -2.178999   -0.978328
     39          6           0        2.082288    0.781070   -0.180240
     40          6           0       -1.652280    0.057093   -0.257782
     41          6           0        0.683375    0.902923   -0.061462
     42          6           0       -0.304528   -0.063029   -0.367772
     43          1           0       13.450816   -1.239812    1.750574
     44          1           0       12.772889   -2.852651    1.594795
     45          1           0      -14.435882   -0.926466    1.389867
     46          1           0      -14.100270   -0.583105   -0.332081
     47          1           0       12.809974   -2.634947   -1.196509
     48          1           0      -13.018051    1.478322    1.929941
     49          1           0       13.965476    0.146067   -0.481141
     50          1           0       13.656449   -0.479413   -2.108982
     51          1           0      -13.392111    1.971699   -0.996168
     52          1           0      -12.571559    2.717109    0.160973
     53          1           0       11.608978   -1.603542    3.297228
     54          1           0        9.892561   -0.904366    2.573085
     55          1           0       11.532480    0.020863    2.443350
     56          1           0       10.902184   -3.379711   -0.115931
     57          1           0       10.597791   -3.671497    1.542887
     58          1           0        9.444804   -2.755102    0.598061
     59          1           0      -11.710109   -0.243173    2.582207
     60          1           0      -10.766322   -1.624911    2.020958
     61          1           0      -12.366195   -2.105419    2.683900
     62          1           0      -13.568694   -2.745579    0.722781
     63          1           0      -11.725905   -3.062776    0.105313
     64          1           0      -12.973409   -2.395585   -1.078825
     65          1           0        8.810779   -0.218931    0.785601
     66          1           0      -10.220148   -1.866063   -1.121219
     67          1           0       10.561636    1.417333   -2.046659
     68          1           0       12.277476    2.146209   -1.783687
     69          1           0       12.088937    1.019778   -2.922303
     70          1           0      -11.348653    2.296923   -2.245583
     71          1           0       -9.691503    1.341346   -1.930999
     72          1           0      -10.266625    2.697676   -0.754563
     73          1           0       14.846522   -3.182117    0.032051
     74          1           0      -15.317467    1.454921    1.720007
     75          1           0       10.241779    2.233094   -0.406901
     76          1           0       -8.657291    0.435148    0.178827
     77          1           0        8.968733    4.461119    0.247537
     78          1           0        7.312330    4.231921   -0.401291
     79          1           0        7.746595    3.954018    1.402823
     80          1           0       -8.280095   -3.073616   -0.516244
     81          1           0       -8.077564   -2.338653   -2.445026
     82          1           0       -6.650183   -3.041906   -1.338927
     83          1           0        6.878640    0.558028   -0.462356
     84          1           0       -6.632654    0.560089   -0.201176
     85          1           0        5.433492    2.923674    0.917347
     86          1           0       -4.892607   -2.030907   -1.010199
     87          1           0        4.469835    0.181469   -0.267824
     88          1           0       -4.181832    0.654178   -0.127788
     89          1           0        3.225343    3.221494    1.631903
     90          1           0        1.651049    3.319569    0.710280
     91          1           0        3.101653    3.931968    0.081848
     92          1           0       -3.127301   -2.864436   -0.410405
     93          1           0       -2.774318   -2.216747   -2.052498
     94          1           0       -1.297610   -2.720674   -0.976153
     95          1           0        2.315011   -0.271680   -0.437411
     96          1           0       -1.971365    1.135822   -0.219645
     97          1           0        0.156564    1.974158    0.352305
     98          1           0        0.115917   -1.286059   -0.422686
 ---------------------------------------------------------------------

 SCF Done:  E(RCAM-B3LYP) =  -1706.94694357     A.U. after   15 cycles

 Excitation energies and oscillator strengths:

 Excited State   1:      Singlet-A      2.1967 eV  564.40 nm  f=3.5368  <S**2>=0.000
     155 ->158         0.13398
     156 ->157         0.69578
 This state for optimization and/or second-order correction.
 Total Energy, E(TD-HF/TD-DFT) =  -1706.86621451
 Copying the excited state density for this state as the 1-particle RhoCI density.

 The electronic state is 1-A.
 Alpha  occ. eigenvalues --  -19.21033 -19.20275 -10.32118 -10.31136 -10.28441
 Alpha  occ. eigenvalues --  -10.28320 -10.28091 -10.27883 -10.27873 -10.27568
 Alpha  occ. eigenvalues --  -10.27477 -10.27469 -10.27151 -10.27139 -10.27136
 Alpha  occ. eigenvalues --  -10.27059 -10.26851 -10.26819 -10.26664 -10.26595
 Alpha  occ. eigenvalues --  -10.26541 -10.26454 -10.26448 -10.26423 -10.26418
 Alpha  occ. eigenvalues --  -10.26393 -10.26349 -10.26320 -10.26249 -10.26036
 Alpha  occ. eigenvalues --  -10.26011 -10.25947 -10.25781 -10.25759 -10.25738
 Alpha  occ. eigenvalues --  -10.25619 -10.25486 -10.25453 -10.25431 -10.25374
 Alpha  occ. eigenvalues --  -10.24839 -10.23358  -1.10763  -1.08102  -0.93693
 Alpha  occ. eigenvalues --   -0.93335  -0.93075  -0.91829  -0.90679  -0.89400
 Alpha  occ. eigenvalues --   -0.87229  -0.86853  -0.86237  -0.85050  -0.84183
 Alpha  occ. eigenvalues --   -0.82999  -0.81496  -0.79671  -0.79056  -0.78491
 Alpha  occ. eigenvalues --   -0.76464  -0.76358  -0.76062  -0.75830  -0.75803
 Alpha  occ. eigenvalues --   -0.74954  -0.74815  -0.74463  -0.73576  -0.70849
 Alpha  occ. eigenvalues --   -0.68464  -0.67299  -0.66113  -0.64966  -0.64134
 Alpha  occ. eigenvalues --   -0.63923  -0.62698  -0.60692  -0.60248  -0.59422
 Alpha  occ. eigenvalues --   -0.58890  -0.58272  -0.57682  -0.57274  -0.56371
 Alpha  occ. eigenvalues --   -0.55647  -0.55403  -0.54631  -0.53954  -0.53174
 Alpha  occ. eigenvalues --   -0.52832  -0.52373  -0.51702  -0.51609  -0.50725
 Alpha  occ. eigenvalues --   -0.50635  -0.50129  -0.49725  -0.49412  -0.49087
 Alpha  occ. eigenvalues --   -0.48924  -0.48840  -0.48708  -0.48373  -0.48292
 Alpha  occ. eigenvalues --   -0.47842  -0.47689  -0.47197  -0.46567  -0.46305
 Alpha  occ. eigenvalues --   -0.45927  -0.45269  -0.45005  -0.44755  -0.44467
 Alpha  occ. eigenvalues --   -0.44372  -0.44054  -0.43864  -0.43588  -0.43151
 Alpha  occ. eigenvalues --   -0.42983  -0.42690  -0.42455  -0.42229  -0.41937
 Alpha  occ. eigenvalues --   -0.41633  -0.41409  -0.41025  -0.40724  -0.40424
 Alpha  occ. eigenvalues --   -0.40151  -0.40001  -0.39770  -0.39476  -0.39408
 Alpha  occ. eigenvalues --   -0.38695  -0.38439  -0.38205  -0.37969  -0.37757
 Alpha  occ. eigenvalues --   -0.37134  -0.37000  -0.36602  -0.35856  -0.35270
 Alpha  occ. eigenvalues --   -0.34965  -0.34382  -0.33767  -0.32350  -0.31889
 Alpha  occ. eigenvalues --   -0.31539  -0.30063  -0.28780  -0.26461  -0.24255
 Alpha  occ. eigenvalues --   -0.19395
 Alpha virt. eigenvalues --   -0.06118  -0.00439   0.02324   0.05938   0.08127
 Alpha virt. eigenvalues --    0.09321   0.10113   0.10749   0.11569   0.11716
 Alpha virt. eigenvalues --    0.11932   0.12625   0.13322   0.13373   0.13461

 Mulliken charges:
               1
     1  O   -0.570436
     2  O   -0.547345
     3  C   -0.019100
     4  C   -0.023162
     5  C   -0.209060
     6  C   -0.187452
     7  C    0.184384
     8  C    0.157572
     9  C    0.047847
    10  C    0.102349
    11  C   -0.212078
    12  C   -0.189924
    13  C    0.089977
    14  C   -0.014387
    15  C   -0.280664
    16  C   -0.302540
    17  C   -0.289611
    18  C   -0.279061
    19  C   -0.106757
    20  C   -0.168111
    21  C   -0.406928
    22  C   -0.335809
    23  C   -0.112351
    24  C   -0.070737
    25  C    0.045281
    26  C    0.098753
    27  C   -0.367233
    28  C   -0.342116
    29  C   -0.122989
    30  C   -0.130853
    31  C   -0.114664
    32  C   -0.087880
    33  C   -0.100592
    34  C   -0.104528
    35  C    0.133861
    36  C    0.161119
    37  C   -0.376391
    38  C   -0.389800
    39  C   -0.142289
    40  C   -0.121238
    41  C   -0.082391
    42  C   -0.087357
    43  H    0.094831
    44  H    0.092483
    45  H    0.077445
    46  H    0.089110
    47  H    0.051177
    48  H    0.057040
    49  H    0.124751
    50  H    0.098385
    51  H    0.125639
    52  H    0.115686
    53  H    0.073877
    54  H    0.104137
    55  H    0.121649
    56  H    0.112025
    57  H    0.051934
    58  H    0.116344
    59  H    0.095128
    60  H    0.091677
    61  H    0.100532
    62  H    0.063184
    63  H    0.114640
    64  H    0.093368
    65  H    0.096120
    66  H    0.103161
    67  H    0.140220
    68  H    0.122441
    69  H    0.084135
    70  H    0.106242
    71  H    0.121470
    72  H    0.093890
    73  H    0.307205
    74  H    0.293091
    75  H    0.113180
    76  H    0.079064
    77  H    0.115850
    78  H    0.127225
    79  H    0.128524
    80  H    0.126871
    81  H    0.090938
    82  H    0.093991
    83  H    0.094734
    84  H    0.075835
    85  H    0.090152
    86  H    0.073702
    87  H    0.079215
    88  H    0.080347
    89  H    0.108686
    90  H    0.108020
    91  H    0.135225
    92  H    0.114927
    93  H    0.128162
    94  H    0.102726
    95  H    0.081910
    96  H    0.079868
    97  H    0.063230
    98  H    0.049294
 Sum of Mulliken charges =  -0.00000

 Dipole moment (field-independent basis, Debye):
    X=              0.6370    Y=             -0.8179    Z=              0.9964  Tot=              1.4379
 Quadrupole moment (field-independent basis, Debye-Ang):
   XX=           -277.5109   YY=           -243.4668   ZZ=           -262.4329
   XY=             11.6291   XZ=             -2.6068   YZ=              1.3363

 Normal termination of Gaussian 16 at Sun Jul 14 21:18:44 2019.
