 Gaussian 16, Revision A.03,
 Gaussian 16:  ES64L-G16RevA.03 25-Dec-2016

 -------------------------------------
 # td=(NStates=1) CAM-B3LYP/6-31G(d,p)
 -------------------------------------

 --
 TD
 --
 Symbolic Z-matrix:
 Charge =  0 Multiplicity = 1

                         Standard orientation:
 ---------------------------------------------------------------------
 Center     Atomic      Atomic             Coordinates (Angstroms)
 Number     Number       Type             X           Y           Z
 ---------------------------------------------------------------------
      1          8           0       14.623753   -2.383206   -0.417860
      2          8           0      -14.764512    1.916881    0.856183
      3          6           0       11.138787   -1.537817    0.927185
      4          6           0      -12.312783   -1.043202    0.526538
      5          6           0       12.578744   -1.984579    0.933222
      6          6           0      -13.703893   -0.385905    0.490234
      7          6           0       13.230416   -2.063570   -0.481475
      8          6           0      -13.542953    1.118974    0.761176
      9          6           0       10.987412   -0.266964    0.015966
     10          6           0      -11.325532   -0.352000   -0.164532
     11          6           0       13.243285   -0.570635   -1.019316
     12          6           0      -12.690725    1.742703   -0.335189
     13          6           0       11.992372    0.137851   -0.808179
     14          6           0      -11.418485    0.937172   -0.772634
     15          6           0       10.591041   -1.179426    2.376094
     16          6           0       10.312985   -2.781000    0.417105
     17          6           0      -11.914497   -1.159835    2.027903
     18          6           0      -12.661825   -2.451968    0.073580
     19          6           0        9.649943    0.298877    0.151999
     20          6           0      -10.003432   -1.144463   -0.368864
     21          6           0       11.790674    1.364495   -1.678611
     22          6           0      -10.408863    1.726572   -1.450603
     23          6           0        9.392696    1.633181    0.218300
     24          6           0       -8.817951   -0.566161   -0.458539
     25          6           0        8.085013    2.253445    0.280570
     26          6           0       -7.484224   -1.279465   -0.551696
     27          6           0        7.980773    3.740617    0.823249
     28          6           0       -7.539521   -2.657804   -0.962483
     29          6           0        6.895899    1.630785   -0.002868
     30          6           0       -6.284990   -0.614958   -0.290651
     31          6           0        5.537554    2.166550    0.050107
     32          6           0       -5.019765   -1.002623   -0.424350
     33          6           0        4.458341    1.430960   -0.248599
     34          6           0       -3.861698   -0.253563   -0.132724
     35          6           0        3.053325    1.799585   -0.087252
     36          6           0       -2.570637   -0.702861   -0.248899
     37          6           0        2.807348    3.279098    0.387167
     38          6           0       -2.313452   -2.136081   -0.792166
     39          6           0        2.095042    0.937735   -0.200053
     40          6           0       -1.609879    0.253433   -0.003209
     41          6           0        0.693081    1.077387    0.090808
     42          6           0       -0.187495    0.121911   -0.057940
     43          1           0       13.159253   -1.293328    1.688497
     44          1           0       12.681877   -2.951474    1.558152
     45          1           0      -14.592146   -1.044496    0.965224
     46          1           0      -14.024068   -0.368968   -0.430703
     47          1           0       12.591990   -2.810231   -1.156452
     48          1           0      -12.947109    1.309808    1.759900
     49          1           0       14.266831   -0.163010   -0.564987
     50          1           0       13.557362   -0.748642   -1.984464
     51          1           0      -13.324853    1.812909   -1.413272
     52          1           0      -12.487182    2.999643   -0.238908
     53          1           0       10.760508   -2.070861    3.178228
     54          1           0        9.702982   -0.786568    2.411826
     55          1           0       11.129287   -0.452149    2.698747
     56          1           0       10.546458   -3.283506   -0.653909
     57          1           0       10.152280   -3.560195    1.227704
     58          1           0        9.167630   -2.435203    0.374247
     59          1           0      -11.951616   -0.172987    2.653773
     60          1           0      -10.708634   -1.182067    2.447685
     61          1           0      -12.650576   -1.876239    2.547512
     62          1           0      -13.669352   -2.857967    0.533869
     63          1           0      -11.881388   -3.273864    0.135264
     64          1           0      -12.631090   -2.427733   -1.135156
     65          1           0        8.847278   -0.362838    0.081462
     66          1           0      -10.132310   -2.172773   -0.402629
     67          1           0       10.703433    1.479876   -1.971361
     68          1           0       12.125968    2.366809   -1.415595
     69          1           0       12.356358    1.234433   -2.729360
     70          1           0      -10.902927    2.112295   -2.457119
     71          1           0       -9.681878    0.960743   -1.869849
     72          1           0       -9.903237    2.586289   -1.062647
     73          1           0       14.804975   -3.214970   -0.188635
     74          1           0      -15.344632    1.752057    1.630129
     75          1           0       10.219804    2.390437    0.233873
     76          1           0       -8.612572    0.530825   -0.297132
     77          1           0        8.962970    4.016006    1.077256
     78          1           0        7.698861    4.451870    0.084203
     79          1           0        7.241874    3.790980    1.677058
     80          1           0       -8.363458   -3.203057   -0.471136
     81          1           0       -7.934250   -2.590506   -2.004876
     82          1           0       -6.769485   -3.413246   -1.070189
     83          1           0        6.951739    0.635959   -0.366158
     84          1           0       -6.413102    0.486642   -0.048359
     85          1           0        5.481823    3.191543    0.442849
     86          1           0       -5.024115   -2.071147   -0.695312
     87          1           0        4.361996    0.415188   -0.506762
     88          1           0       -4.064758    0.856922    0.105708
     89          1           0        2.648299    3.402191    1.499066
     90          1           0        1.801240    3.764705   -0.150010
     91          1           0        3.712712    3.844113   -0.260110
     92          1           0       -2.790468   -2.893934   -0.255078
     93          1           0       -2.726948   -2.250158   -1.770748
     94          1           0       -1.140881   -2.345234   -0.816684
     95          1           0        2.197083   -0.142107   -0.552300
     96          1           0       -1.724533    1.303725    0.222096
     97          1           0        0.403611    2.174470    0.237045
     98          1           0        0.234382   -0.819074   -0.100278
 ---------------------------------------------------------------------

 SCF Done:  E(RCAM-B3LYP) =  -1706.93204490     A.U. after   15 cycles

 Excitation energies and oscillator strengths:

 Excited State   1:      Singlet-A      2.5521 eV  485.81 nm  f=3.7874  <S**2>=0.000
     155 ->158         0.17824
     156 ->157         0.67970
 This state for optimization and/or second-order correction.
 Total Energy, E(TD-HF/TD-DFT) =  -1706.83825597
 Copying the excited state density for this state as the 1-particle RhoCI density.

 The electronic state is 1-A.
 Alpha  occ. eigenvalues --  -19.20607 -19.20539 -10.31981 -10.31734 -10.28510
 Alpha  occ. eigenvalues --  -10.28220 -10.28053 -10.27916 -10.27867 -10.27848
 Alpha  occ. eigenvalues --  -10.27677 -10.27442 -10.27356 -10.27140 -10.27053
 Alpha  occ. eigenvalues --  -10.26958 -10.26828 -10.26703 -10.26622 -10.26603
 Alpha  occ. eigenvalues --  -10.26539 -10.26520 -10.26468 -10.26262 -10.26189
 Alpha  occ. eigenvalues --  -10.26038 -10.25948 -10.25912 -10.25843 -10.25748
 Alpha  occ. eigenvalues --  -10.25673 -10.25646 -10.25550 -10.25517 -10.25410
 Alpha  occ. eigenvalues --  -10.25388 -10.25341 -10.25292 -10.25161 -10.25105
 Alpha  occ. eigenvalues --  -10.24952 -10.23139  -1.10582  -1.06919  -0.94910
 Alpha  occ. eigenvalues --   -0.93109  -0.92613  -0.91837  -0.90715  -0.89693
 Alpha  occ. eigenvalues --   -0.87877  -0.86962  -0.86403  -0.85688  -0.84813
 Alpha  occ. eigenvalues --   -0.83259  -0.82228  -0.80289  -0.79622  -0.77881
 Alpha  occ. eigenvalues --   -0.77001  -0.76820  -0.76623  -0.75433  -0.74878
 Alpha  occ. eigenvalues --   -0.74719  -0.74157  -0.74073  -0.73818  -0.71241
 Alpha  occ. eigenvalues --   -0.69727  -0.67449  -0.66430  -0.65581  -0.64041
 Alpha  occ. eigenvalues --   -0.63558  -0.63078  -0.62403  -0.60896  -0.59936
 Alpha  occ. eigenvalues --   -0.59382  -0.58681  -0.57963  -0.57399  -0.56436
 Alpha  occ. eigenvalues --   -0.55999  -0.55639  -0.55099  -0.53942  -0.53732
 Alpha  occ. eigenvalues --   -0.52985  -0.52746  -0.51825  -0.51383  -0.50619
 Alpha  occ. eigenvalues --   -0.50318  -0.50096  -0.49678  -0.49522  -0.49194
 Alpha  occ. eigenvalues --   -0.48613  -0.48249  -0.48099  -0.47876  -0.47696
 Alpha  occ. eigenvalues --   -0.47513  -0.47416  -0.46855  -0.46631  -0.46520
 Alpha  occ. eigenvalues --   -0.46073  -0.45420  -0.45362  -0.45088  -0.44624
 Alpha  occ. eigenvalues --   -0.44328  -0.44173  -0.43869  -0.43374  -0.43070
 Alpha  occ. eigenvalues --   -0.42708  -0.42470  -0.42076  -0.41823  -0.41644
 Alpha  occ. eigenvalues --   -0.41520  -0.41231  -0.41015  -0.40558  -0.40346
 Alpha  occ. eigenvalues --   -0.40042  -0.39758  -0.39354  -0.39066  -0.38955
 Alpha  occ. eigenvalues --   -0.38775  -0.38601  -0.38358  -0.38320  -0.37787
 Alpha  occ. eigenvalues --   -0.36965  -0.36928  -0.36242  -0.36086  -0.35741
 Alpha  occ. eigenvalues --   -0.35120  -0.34954  -0.34122  -0.32865  -0.32312
 Alpha  occ. eigenvalues --   -0.31386  -0.30058  -0.28109  -0.26381  -0.23501
 Alpha  occ. eigenvalues --   -0.20191
 Alpha virt. eigenvalues --   -0.04881  -0.01171   0.02679   0.05061   0.07390
 Alpha virt. eigenvalues --    0.09674   0.11217   0.11592   0.12149   0.12612
 Alpha virt. eigenvalues --    0.12827   0.13143   0.13375   0.13878   0.14118

 Mulliken charges:
               1
     1  O   -0.544999
     2  O   -0.585216
     3  C   -0.008452
     4  C   -0.015016
     5  C   -0.183515
     6  C   -0.181283
     7  C    0.159719
     8  C    0.182992
     9  C    0.055801
    10  C    0.056708
    11  C   -0.229857
    12  C   -0.212608
    13  C    0.089017
    14  C    0.090222
    15  C   -0.296970
    16  C   -0.294909
    17  C   -0.285524
    18  C   -0.305000
    19  C   -0.119604
    20  C   -0.102371
    21  C   -0.380693
    22  C   -0.386026
    23  C   -0.099382
    24  C   -0.113519
    25  C    0.058871
    26  C    0.106093
    27  C   -0.373882
    28  C   -0.404222
    29  C   -0.109195
    30  C   -0.126436
    31  C   -0.105177
    32  C   -0.073359
    33  C   -0.068986
    34  C   -0.117958
    35  C    0.097102
    36  C    0.115933
    37  C   -0.358184
    38  C   -0.365523
    39  C   -0.136559
    40  C   -0.125147
    41  C   -0.072693
    42  C   -0.079618
    43  H    0.082467
    44  H    0.065621
    45  H    0.077227
    46  H    0.125766
    47  H    0.072956
    48  H    0.072048
    49  H    0.121390
    50  H    0.123938
    51  H    0.079836
    52  H    0.089441
    53  H    0.074836
    54  H    0.119327
    55  H    0.117729
    56  H    0.090826
    57  H    0.104152
    58  H    0.071140
    59  H    0.091894
    60  H    0.088152
    61  H    0.094493
    62  H    0.100924
    63  H    0.100723
    64  H    0.087169
    65  H    0.102265
    66  H    0.082579
    67  H    0.122613
    68  H    0.120794
    69  H    0.077251
    70  H    0.091710
    71  H    0.123618
    72  H    0.135329
    73  H    0.290375
    74  H    0.307531
    75  H    0.089715
    76  H    0.106030
    77  H    0.107003
    78  H    0.126539
    79  H    0.121169
    80  H    0.117427
    81  H    0.125213
    82  H    0.120590
    83  H    0.070820
    84  H    0.056946
    85  H    0.093559
    86  H    0.067823
    87  H    0.079400
    88  H    0.085850
    89  H    0.133179
    90  H    0.086715
    91  H    0.099574
    92  H    0.131601
    93  H    0.135124
    94  H    0.096693
    95  H    0.070786
    96  H    0.083047
    97  H    0.067204
    98  H    0.071299
 Sum of Mulliken charges =  -0.00000

 Dipole moment (field-independent basis, Debye):
    X=             -1.2573    Y=             -2.1453    Z=              0.8960  Tot=              2.6431
 Quadrupole moment (field-independent basis, Debye-Ang):
   XX=           -270.4710   YY=           -242.2804   ZZ=           -262.0808
   XY=             11.5562   XZ=             -8.3862   YZ=              4.5486

 Normal termination of Gaussian 16 at Wed Jul 17 02:25:58 2019.
