 Gaussian 16, Revision A.03,
 Gaussian 16:  ES64L-G16RevA.03 25-Dec-2016

 -------------------------------------
 # td=(NStates=1) CAM-B3LYP/6-31G(d,p)
 -------------------------------------

 --
 TD
 --
 Symbolic Z-matrix:
 Charge =  0 Multiplicity = 1

                         Standard orientation:
 ---------------------------------------------------------------------
 Center     Atomic      Atomic             Coordinates (Angstroms)
 Number     Number       Type             X           Y           Z
 ---------------------------------------------------------------------
      1          8           0       14.579083   -2.219342   -0.123318
      2          8           0      -14.726152    1.945825    0.812691
      3          6           0       11.150615   -1.501303    0.937230
      4          6           0      -12.366722   -0.966969    0.592328
      5          6           0       12.619161   -1.813291    0.946921
      6          6           0      -13.615546   -0.173562    0.651065
      7          6           0       13.279667   -1.929328   -0.420634
      8          6           0      -13.447178    1.319454    0.808553
      9          6           0       10.880499   -0.307302   -0.027122
     10          6           0      -11.294052   -0.262801   -0.194546
     11          6           0       13.244402   -0.524009   -1.045789
     12          6           0      -12.630361    1.839767   -0.334666
     13          6           0       11.874729    0.086217   -0.938358
     14          6           0      -11.425226    1.022967   -0.673043
     15          6           0       10.741668   -1.161574    2.350898
     16          6           0       10.252250   -2.624262    0.431897
     17          6           0      -11.770859   -1.373916    1.988460
     18          6           0      -12.742143   -2.202680   -0.117964
     19          6           0        9.595833    0.335231    0.190155
     20          6           0      -10.058991   -1.019009   -0.424349
     21          6           0       11.609719    1.150439   -1.877468
     22          6           0      -10.311099    1.732915   -1.476638
     23          6           0        9.298525    1.722740    0.128877
     24          6           0       -8.691869   -0.612345   -0.240296
     25          6           0        7.976083    2.325750    0.325403
     26          6           0       -7.506695   -1.433348   -0.448168
     27          6           0        7.881185    3.739853    0.509274
     28          6           0       -7.641388   -2.860510   -0.790767
     29          6           0        6.791564    1.539072    0.115141
     30          6           0       -6.345802   -0.701859   -0.307716
     31          6           0        5.576519    2.064051    0.278654
     32          6           0       -4.975046   -1.157911   -0.519444
     33          6           0        4.432654    1.357805    0.014217
     34          6           0       -3.820840   -0.383841   -0.375969
     35          6           0        3.070587    1.802340    0.122956
     36          6           0       -2.499461   -0.807062   -0.509166
     37          6           0        2.743042    3.196841    0.596439
     38          6           0       -2.171924   -2.169350   -0.894934
     39          6           0        2.133372    0.832962   -0.140575
     40          6           0       -1.572095    0.256181   -0.261415
     41          6           0        0.714227    1.044100   -0.123081
     42          6           0       -0.202563    0.107060   -0.379664
     43          1           0       13.095542   -1.195200    1.704963
     44          1           0       12.744113   -2.927476    1.331472
     45          1           0      -14.468899   -0.616335    1.389782
     46          1           0      -14.101246   -0.298802   -0.225625
     47          1           0       12.733744   -2.667185   -1.098001
     48          1           0      -13.087068    1.644759    1.720842
     49          1           0       13.989148    0.128474   -0.472671
     50          1           0       13.623230   -0.508361   -2.099668
     51          1           0      -13.247435    1.853427   -1.168849
     52          1           0      -12.229499    2.890445   -0.077713
     53          1           0       11.277873   -2.067097    2.915582
     54          1           0        9.713976   -0.997732    2.713561
     55          1           0       11.363630   -0.341925    2.575851
     56          1           0       10.670764   -3.098326   -0.463966
     57          1           0        9.882240   -3.281524    1.203845
     58          1           0        9.252660   -2.000263    0.153903
     59          1           0      -11.407315   -0.495290    2.721986
     60          1           0      -10.803251   -1.914825    2.059393
     61          1           0      -12.570506   -1.824321    2.463357
     62          1           0      -13.458621   -2.837375    0.552930
     63          1           0      -11.893444   -2.926945   -0.249052
     64          1           0      -13.192681   -2.204359   -1.288359
     65          1           0        8.904694   -0.383330    0.625022
     66          1           0      -10.332534   -2.255589   -0.554090
     67          1           0       10.430285    1.406995   -2.096819
     68          1           0       12.134783    1.894632   -1.591889
     69          1           0       12.190319    1.065699   -2.959080
     70          1           0      -10.472612    2.347479   -2.333210
     71          1           0       -9.644176    0.797575   -1.676470
     72          1           0       -9.664333    2.386435   -0.625837
     73          1           0       14.798374   -3.352451   -0.150955
     74          1           0      -15.319244    1.312366    1.370143
     75          1           0       10.013178    2.586377   -0.068035
     76          1           0       -8.536607    0.581879   -0.106007
     77          1           0        8.935277    4.311589    0.703168
     78          1           0        7.413747    4.167710   -0.476543
     79          1           0        7.024421    3.885110    1.251669
     80          1           0       -8.134678   -3.352627    0.260063
     81          1           0       -8.150134   -2.909592   -1.808834
     82          1           0       -6.738744   -3.533374   -0.997453
     83          1           0        6.965866    0.388458   -0.158432
     84          1           0       -6.429430    0.516019    0.010312
     85          1           0        5.447093    3.176161    0.627349
     86          1           0       -4.751873   -2.287332   -0.691017
     87          1           0        4.451277    0.283809   -0.159344
     88          1           0       -4.111795    0.605907   -0.103155
     89          1           0        2.823200    3.213542    1.642707
     90          1           0        1.712163    3.350236    0.452123
     91          1           0        3.353226    3.877954    0.068136
     92          1           0       -2.522397   -2.994356    0.003602
     93          1           0       -2.769556   -2.321558   -1.671653
     94          1           0       -1.100128   -2.149919   -0.834442
     95          1           0        2.284740   -0.303726   -0.207524
     96          1           0       -1.870950    1.344022   -0.033707
     97          1           0        0.254391    2.117844    0.208891
     98          1           0        0.043110   -0.836652   -0.597429
 ---------------------------------------------------------------------

 SCF Done:  E(RCAM-B3LYP) =  -1706.90037533     A.U. after   15 cycles

 Excitation energies and oscillator strengths:

 Excited State   1:      Singlet-A      2.0548 eV  603.39 nm  f=3.7113  <S**2>=0.000
     155 ->158         0.17420
     156 ->157         0.68345
 This state for optimization and/or second-order correction.
 Total Energy, E(TD-HF/TD-DFT) =  -1706.82486287
 Copying the excited state density for this state as the 1-particle RhoCI density.

 The electronic state is 1-A.
 Alpha  occ. eigenvalues --  -19.22679 -19.20389 -10.30995 -10.28661 -10.28185
 Alpha  occ. eigenvalues --  -10.27990 -10.27859 -10.27656 -10.27625 -10.27540
 Alpha  occ. eigenvalues --  -10.27509 -10.27366 -10.27340 -10.27293 -10.27116
 Alpha  occ. eigenvalues --  -10.27027 -10.26863 -10.26846 -10.26711 -10.26697
 Alpha  occ. eigenvalues --  -10.26688 -10.26677 -10.26655 -10.26321 -10.26222
 Alpha  occ. eigenvalues --  -10.26185 -10.26148 -10.25997 -10.25988 -10.25785
 Alpha  occ. eigenvalues --  -10.25781 -10.25605 -10.25415 -10.25275 -10.25145
 Alpha  occ. eigenvalues --  -10.25002 -10.24995 -10.24756 -10.24677 -10.24478
 Alpha  occ. eigenvalues --  -10.24434 -10.24430  -1.09460  -1.07921  -0.94353
 Alpha  occ. eigenvalues --   -0.93522  -0.92767  -0.92018  -0.90537  -0.89973
 Alpha  occ. eigenvalues --   -0.87719  -0.87522  -0.87114  -0.85094  -0.84404
 Alpha  occ. eigenvalues --   -0.83230  -0.82181  -0.79883  -0.79309  -0.78285
 Alpha  occ. eigenvalues --   -0.76911  -0.76365  -0.76196  -0.76046  -0.75207
 Alpha  occ. eigenvalues --   -0.75159  -0.74893  -0.74754  -0.72680  -0.69971
 Alpha  occ. eigenvalues --   -0.68837  -0.67408  -0.65238  -0.64689  -0.63781
 Alpha  occ. eigenvalues --   -0.63018  -0.62384  -0.61999  -0.59789  -0.59183
 Alpha  occ. eigenvalues --   -0.58986  -0.58811  -0.57392  -0.57201  -0.56248
 Alpha  occ. eigenvalues --   -0.55744  -0.55398  -0.54408  -0.53934  -0.53195
 Alpha  occ. eigenvalues --   -0.52805  -0.52254  -0.51985  -0.51484  -0.50718
 Alpha  occ. eigenvalues --   -0.50666  -0.50310  -0.50051  -0.49742  -0.49589
 Alpha  occ. eigenvalues --   -0.49174  -0.48809  -0.48655  -0.48155  -0.48014
 Alpha  occ. eigenvalues --   -0.47719  -0.47688  -0.47305  -0.47026  -0.46089
 Alpha  occ. eigenvalues --   -0.45838  -0.45453  -0.45435  -0.45132  -0.44594
 Alpha  occ. eigenvalues --   -0.44383  -0.44121  -0.43796  -0.43536  -0.43143
 Alpha  occ. eigenvalues --   -0.42706  -0.42606  -0.42327  -0.41802  -0.41514
 Alpha  occ. eigenvalues --   -0.41015  -0.40793  -0.40738  -0.40584  -0.40398
 Alpha  occ. eigenvalues --   -0.40327  -0.40045  -0.39561  -0.39488  -0.39154
 Alpha  occ. eigenvalues --   -0.38986  -0.38730  -0.38512  -0.38200  -0.37895
 Alpha  occ. eigenvalues --   -0.37587  -0.37416  -0.36910  -0.36161  -0.35798
 Alpha  occ. eigenvalues --   -0.35299  -0.34390  -0.33423  -0.31986  -0.31513
 Alpha  occ. eigenvalues --   -0.31253  -0.29571  -0.27485  -0.25518  -0.22226
 Alpha  occ. eigenvalues --   -0.18778
 Alpha virt. eigenvalues --   -0.05813  -0.01660   0.02306   0.05445   0.06994
 Alpha virt. eigenvalues --    0.07917   0.09682   0.10933   0.11457   0.11560
 Alpha virt. eigenvalues --    0.11767   0.11909   0.12561   0.12679   0.13231

 Mulliken charges:
               1
     1  O   -0.554062
     2  O   -0.579436
     3  C   -0.002346
     4  C   -0.002354
     5  C   -0.172278
     6  C   -0.209307
     7  C    0.171857
     8  C    0.190974
     9  C    0.057119
    10  C    0.098116
    11  C   -0.224809
    12  C   -0.219194
    13  C    0.064718
    14  C    0.039620
    15  C   -0.307884
    16  C   -0.283713
    17  C   -0.297547
    18  C   -0.296404
    19  C   -0.115250
    20  C   -0.174003
    21  C   -0.361776
    22  C   -0.361296
    23  C   -0.120704
    24  C   -0.115432
    25  C    0.090240
    26  C    0.136003
    27  C   -0.386681
    28  C   -0.356684
    29  C   -0.088913
    30  C   -0.132613
    31  C   -0.091410
    32  C   -0.123189
    33  C   -0.112396
    34  C   -0.078713
    35  C    0.088800
    36  C    0.074615
    37  C   -0.360333
    38  C   -0.337221
    39  C   -0.141455
    40  C   -0.112024
    41  C   -0.092055
    42  C   -0.055398
    43  H    0.109296
    44  H    0.054247
    45  H    0.052546
    46  H    0.123839
    47  H    0.081878
    48  H    0.088648
    49  H    0.118818
    50  H    0.100250
    51  H    0.127454
    52  H    0.099754
    53  H    0.077467
    54  H    0.108401
    55  H    0.111642
    56  H    0.097300
    57  H    0.104429
    58  H    0.073167
    59  H    0.084577
    60  H    0.117664
    61  H    0.105625
    62  H    0.087018
    63  H    0.099002
    64  H    0.088057
    65  H    0.092602
    66  H    0.063021
    67  H    0.111846
    68  H    0.135084
    69  H    0.064832
    70  H    0.118203
    71  H    0.124137
    72  H    0.077840
    73  H    0.306730
    74  H    0.302167
    75  H    0.087651
    76  H    0.093769
    77  H    0.100587
    78  H    0.123894
    79  H    0.125797
    80  H    0.103972
    81  H    0.129995
    82  H    0.111429
    83  H    0.083188
    84  H    0.070702
    85  H    0.077320
    86  H    0.066198
    87  H    0.077829
    88  H    0.074926
    89  H    0.138266
    90  H    0.113673
    91  H    0.123299
    92  H    0.089776
    93  H    0.144104
    94  H    0.115403
    95  H    0.089148
    96  H    0.081542
    97  H    0.065446
    98  H    0.059363
 Sum of Mulliken charges =  -0.00000

 Dipole moment (field-independent basis, Debye):
    X=              2.3162    Y=             -2.4130    Z=              0.6019  Tot=              3.3984
 Quadrupole moment (field-independent basis, Debye-Ang):
   XX=           -269.1341   YY=           -242.0894   ZZ=           -264.7059
   XY=             13.1254   XZ=            -12.3918   YZ=              3.4806

 Normal termination of Gaussian 16 at Mon Jul 15 20:10:17 2019.
