 Gaussian 16, Revision A.03,
 Gaussian 16:  ES64L-G16RevA.03 25-Dec-2016

 -------------------------------------
 # td=(NStates=1) CAM-B3LYP/6-31G(d,p)
 -------------------------------------

 --
 TD
 --
 Symbolic Z-matrix:
 Charge =  0 Multiplicity = 1

                         Standard orientation:
 ---------------------------------------------------------------------
 Center     Atomic      Atomic             Coordinates (Angstroms)
 Number     Number       Type             X           Y           Z
 ---------------------------------------------------------------------
      1          8           0       14.735441   -2.149068   -0.359368
      2          8           0      -14.716970    1.898280    0.868754
      3          6           0       11.166239   -1.478604    0.972114
      4          6           0      -12.446993   -1.060601    0.446346
      5          6           0       12.761335   -1.795482    1.008534
      6          6           0      -13.677415   -0.310841    0.475695
      7          6           0       13.354412   -1.773280   -0.421268
      8          6           0      -13.469985    1.187491    0.871236
      9          6           0       10.906615   -0.319081   -0.066891
     10          6           0      -11.301442   -0.243810   -0.222220
     11          6           0       13.207922   -0.495477   -1.045430
     12          6           0      -12.664527    1.883971   -0.234369
     13          6           0       11.857105    0.183882   -0.917819
     14          6           0      -11.502883    1.076486   -0.589041
     15          6           0       10.859965   -1.063825    2.337754
     16          6           0       10.349004   -2.568392    0.583819
     17          6           0      -11.976462   -1.308900    1.889555
     18          6           0      -12.553075   -2.385894   -0.177210
     19          6           0        9.684758    0.438037    0.139119
     20          6           0      -10.060843   -0.969589   -0.561470
     21          6           0       11.652867    1.230209   -1.960886
     22          6           0      -10.628211    1.891860   -1.402526
     23          6           0        9.370096    1.671252    0.068870
     24          6           0       -8.785953   -0.516156   -0.318522
     25          6           0        8.039206    2.185530    0.171239
     26          6           0       -7.568068   -1.225631   -0.541467
     27          6           0        7.999376    3.776832    0.361866
     28          6           0       -7.675395   -2.611317   -1.089450
     29          6           0        6.956567    1.507939   -0.033371
     30          6           0       -6.386281   -0.575953   -0.332738
     31          6           0        5.547830    1.959949    0.244697
     32          6           0       -5.027563   -1.138312   -0.381051
     33          6           0        4.413910    1.139680    0.113057
     34          6           0       -3.912333   -0.331297   -0.152060
     35          6           0        3.148081    1.552929    0.208876
     36          6           0       -2.624157   -0.843979   -0.166226
     37          6           0        2.837475    3.036419    0.623656
     38          6           0       -2.216578   -2.138770   -0.660386
     39          6           0        2.036949    0.650089   -0.032171
     40          6           0       -1.648487    0.147989   -0.069177
     41          6           0        0.689377    0.933898    0.081354
     42          6           0       -0.226321   -0.076820   -0.180609
     43          1           0       13.150832   -1.097656    1.670512
     44          1           0       12.919037   -2.900958    1.356660
     45          1           0      -14.365904   -0.689256    1.206401
     46          1           0      -14.277516   -0.154756   -0.610272
     47          1           0       12.656206   -2.680608   -0.923760
     48          1           0      -13.193467    1.257312    1.780629
     49          1           0       13.973043    0.216686   -0.812684
     50          1           0       13.448994   -0.604121   -2.158707
     51          1           0      -13.402339    1.934292   -0.999324
     52          1           0      -12.438910    2.860937    0.062355
     53          1           0       11.036447   -1.955026    2.917184
     54          1           0        9.800227   -0.938751    2.640247
     55          1           0       11.255104    0.086114    2.463016
     56          1           0       10.520783   -2.933672   -0.465401
     57          1           0       10.491984   -3.518756    1.158699
     58          1           0        9.352791   -2.365323    0.440791
     59          1           0      -12.020469   -0.256698    2.461168
     60          1           0      -10.819744   -1.408598    1.813458
     61          1           0      -12.466571   -2.292841    2.358164
     62          1           0      -13.384495   -2.846521    0.426812
     63          1           0      -11.650817   -3.040280    0.140380
     64          1           0      -12.725908   -2.315701   -1.232316
     65          1           0        8.962091   -0.087842    0.512535
     66          1           0      -10.144282   -2.012250   -1.226492
     67          1           0       10.576127    1.128740   -2.408064
     68          1           0       11.857914    2.277196   -1.408822
     69          1           0       12.451225    1.076102   -2.881970
     70          1           0      -11.284910    2.563608   -2.306512
     71          1           0       -9.852411    1.442301   -2.007706
     72          1           0       -9.883962    2.627267   -0.904123
     73          1           0       14.712264   -3.124733   -0.284798
     74          1           0      -15.045628    1.552133    1.700784
     75          1           0       10.105910    2.554889   -0.257325
     76          1           0       -8.679716    0.380355    0.323417
     77          1           0        9.146106    4.080451    0.313489
     78          1           0        7.144100    4.275434   -0.267591
     79          1           0        7.622480    3.841903    1.554664
     80          1           0       -8.371815   -3.056409   -0.547472
     81          1           0       -7.966519   -2.492200   -2.272059
     82          1           0       -6.664769   -3.152099   -1.196262
     83          1           0        6.968330    0.406269   -0.308977
     84          1           0       -6.461151    0.442712   -0.120162
     85          1           0        5.506936    3.120240    0.554140
     86          1           0       -5.027300   -2.143657   -0.762576
     87          1           0        4.587701   -0.047833    0.176603
     88          1           0       -4.079197    0.721209    0.108222
     89          1           0        3.458468    3.229643    1.412790
     90          1           0        1.763281    2.974499    0.906322
     91          1           0        3.129245    3.954533   -0.130828
     92          1           0       -2.871872   -2.716507    0.014723
     93          1           0       -2.423443   -2.573173   -1.707637
     94          1           0       -1.161512   -2.482538   -0.031039
     95          1           0        2.220119   -0.411420   -0.311931
     96          1           0       -1.628351    1.155017    0.148277
     97          1           0        0.238843    1.873953    0.149581
     98          1           0        0.171908   -1.061906   -0.550890
 ---------------------------------------------------------------------

 SCF Done:  E(RCAM-B3LYP) =  -1706.88674894     A.U. after   15 cycles

 Excitation energies and oscillator strengths:

 Excited State   1:      Singlet-A      2.1694 eV  571.53 nm  f=3.7019  <S**2>=0.000
     155 ->158        -0.13878
     156 ->157         0.69476
 This state for optimization and/or second-order correction.
 Total Energy, E(TD-HF/TD-DFT) =  -1706.80702669
 Copying the excited state density for this state as the 1-particle RhoCI density.

 The electronic state is 1-A.
 Alpha  occ. eigenvalues --  -19.21525 -19.20603 -10.31444 -10.28906 -10.28377
 Alpha  occ. eigenvalues --  -10.28219 -10.28162 -10.27619 -10.27570 -10.27460
 Alpha  occ. eigenvalues --  -10.27289 -10.27115 -10.26973 -10.26910 -10.26894
 Alpha  occ. eigenvalues --  -10.26825 -10.26608 -10.26571 -10.26451 -10.26430
 Alpha  occ. eigenvalues --  -10.26429 -10.26422 -10.26324 -10.26314 -10.26292
 Alpha  occ. eigenvalues --  -10.26218 -10.26195 -10.26119 -10.26065 -10.25965
 Alpha  occ. eigenvalues --  -10.25840 -10.25754 -10.25636 -10.25445 -10.25378
 Alpha  occ. eigenvalues --  -10.25263 -10.25147 -10.25070 -10.24896 -10.23987
 Alpha  occ. eigenvalues --  -10.23761 -10.23644  -1.09749  -1.09318  -0.94437
 Alpha  occ. eigenvalues --   -0.94425  -0.92867  -0.91753  -0.91151  -0.90638
 Alpha  occ. eigenvalues --   -0.88564  -0.88445  -0.87833  -0.85576  -0.84819
 Alpha  occ. eigenvalues --   -0.82778  -0.81682  -0.80121  -0.79531  -0.78094
 Alpha  occ. eigenvalues --   -0.77438  -0.76936  -0.76085  -0.75914  -0.75535
 Alpha  occ. eigenvalues --   -0.75220  -0.74891  -0.74449  -0.73073  -0.70724
 Alpha  occ. eigenvalues --   -0.68612  -0.67667  -0.65925  -0.64779  -0.63912
 Alpha  occ. eigenvalues --   -0.63349  -0.63308  -0.62300  -0.60840  -0.59788
 Alpha  occ. eigenvalues --   -0.59101  -0.58739  -0.57961  -0.57641  -0.56548
 Alpha  occ. eigenvalues --   -0.56114  -0.55139  -0.55035  -0.54468  -0.54018
 Alpha  occ. eigenvalues --   -0.53476  -0.52727  -0.52369  -0.52095  -0.51299
 Alpha  occ. eigenvalues --   -0.51006  -0.50750  -0.50479  -0.49748  -0.49501
 Alpha  occ. eigenvalues --   -0.49174  -0.49127  -0.48568  -0.48012  -0.47933
 Alpha  occ. eigenvalues --   -0.47391  -0.46789  -0.46569  -0.46269  -0.45884
 Alpha  occ. eigenvalues --   -0.45762  -0.45264  -0.44960  -0.44755  -0.44516
 Alpha  occ. eigenvalues --   -0.44276  -0.44087  -0.43874  -0.43611  -0.43379
 Alpha  occ. eigenvalues --   -0.43270  -0.43242  -0.42876  -0.42678  -0.42017
 Alpha  occ. eigenvalues --   -0.41854  -0.41623  -0.41279  -0.40314  -0.40267
 Alpha  occ. eigenvalues --   -0.39978  -0.39882  -0.39504  -0.39345  -0.38895
 Alpha  occ. eigenvalues --   -0.38662  -0.38521  -0.38135  -0.37905  -0.37684
 Alpha  occ. eigenvalues --   -0.37495  -0.37401  -0.37087  -0.37056  -0.36126
 Alpha  occ. eigenvalues --   -0.35707  -0.35092  -0.34632  -0.32334  -0.31634
 Alpha  occ. eigenvalues --   -0.31205  -0.30143  -0.27967  -0.26426  -0.23841
 Alpha  occ. eigenvalues --   -0.19277
 Alpha virt. eigenvalues --   -0.06126  -0.00668   0.02243   0.05125   0.07299
 Alpha virt. eigenvalues --    0.09364   0.10193   0.10558   0.11413   0.11904
 Alpha virt. eigenvalues --    0.12175   0.12300   0.12931   0.13118   0.13234

 Mulliken charges:
               1
     1  O   -0.554777
     2  O   -0.555826
     3  C    0.009715
     4  C    0.032689
     5  C   -0.162790
     6  C   -0.176536
     7  C    0.161292
     8  C    0.133279
     9  C    0.042635
    10  C    0.026549
    11  C   -0.219477
    12  C   -0.210626
    13  C    0.046256
    14  C    0.093741
    15  C   -0.300398
    16  C   -0.310059
    17  C   -0.304709
    18  C   -0.294028
    19  C   -0.090697
    20  C   -0.157200
    21  C   -0.351167
    22  C   -0.366463
    23  C   -0.083561
    24  C   -0.092598
    25  C    0.095539
    26  C    0.106687
    27  C   -0.352403
    28  C   -0.354219
    29  C   -0.118519
    30  C   -0.124045
    31  C   -0.116121
    32  C   -0.105993
    33  C   -0.116233
    34  C   -0.082997
    35  C    0.096842
    36  C    0.101334
    37  C   -0.351639
    38  C   -0.379684
    39  C   -0.128652
    40  C   -0.091438
    41  C   -0.076894
    42  C   -0.110142
    43  H    0.110334
    44  H    0.062034
    45  H    0.076641
    46  H    0.074488
    47  H    0.049356
    48  H    0.079839
    49  H    0.130607
    50  H    0.100368
    51  H    0.133720
    52  H    0.119784
    53  H    0.106907
    54  H    0.094650
    55  H    0.097564
    56  H    0.093921
    57  H    0.092035
    58  H    0.115771
    59  H    0.083341
    60  H    0.107303
    61  H    0.089206
    62  H    0.090487
    63  H    0.095660
    64  H    0.111170
    65  H    0.064488
    66  H    0.086208
    67  H    0.128328
    68  H    0.110130
    69  H    0.088772
    70  H    0.065504
    71  H    0.118952
    72  H    0.104244
    73  H    0.310318
    74  H    0.295929
    75  H    0.062681
    76  H    0.088203
    77  H    0.105100
    78  H    0.124884
    79  H    0.095428
    80  H    0.131353
    81  H    0.103859
    82  H    0.099216
    83  H    0.073552
    84  H    0.068983
    85  H    0.076623
    86  H    0.078450
    87  H    0.082077
    88  H    0.095326
    89  H    0.132275
    90  H    0.106540
    91  H    0.098385
    92  H    0.121259
    93  H    0.134956
    94  H    0.095207
    95  H    0.084227
    96  H    0.069896
    97  H    0.095465
    98  H    0.081334
 Sum of Mulliken charges =  -0.00000

 Dipole moment (field-independent basis, Debye):
    X=              0.7399    Y=             -2.0526    Z=              0.8833  Tot=              2.3539
 Quadrupole moment (field-independent basis, Debye-Ang):
   XX=           -301.8808   YY=           -244.9991   ZZ=           -262.4558
   XY=              5.9059   XZ=            -16.1998   YZ=              3.8578

 Normal termination of Gaussian 16 at Tue Jul  9 07:09:20 2019.
