 Gaussian 16, Revision A.03,
 Gaussian 16:  ES64L-G16RevA.03 25-Dec-2016

 -------------------------------------
 # td=(NStates=1) CAM-B3LYP/6-31G(d,p)
 -------------------------------------

 --
 TD
 --
 Symbolic Z-matrix:
 Charge =  0 Multiplicity = 1

                         Standard orientation:
 ---------------------------------------------------------------------
 Center     Atomic      Atomic             Coordinates (Angstroms)
 Number     Number       Type             X           Y           Z
 ---------------------------------------------------------------------
      1          8           0       14.693478   -2.332930   -0.084119
      2          8           0      -14.897527    1.772123    0.908967
      3          6           0       11.154893   -1.452936    0.977652
      4          6           0      -12.320876   -1.085105    0.585652
      5          6           0       12.584318   -1.910675    1.084083
      6          6           0      -13.706593   -0.279676    0.652871
      7          6           0       13.359083   -1.962283   -0.266092
      8          6           0      -13.594962    1.117469    0.835873
      9          6           0       10.988573   -0.321705   -0.051734
     10          6           0      -11.192035   -0.349691   -0.089627
     11          6           0       13.362950   -0.581907   -0.934214
     12          6           0      -12.751016    1.772843   -0.269305
     13          6           0       11.984639   -0.005717   -0.897855
     14          6           0      -11.491440    0.962048   -0.482575
     15          6           0       10.731194   -0.999243    2.394986
     16          6           0       10.323139   -2.629074    0.460785
     17          6           0      -12.006986   -1.284817    2.228293
     18          6           0      -12.666192   -2.478125   -0.015922
     19          6           0        9.700996    0.264899    0.109713
     20          6           0       -9.982045   -0.941191   -0.402382
     21          6           0       11.744532    1.159165   -1.927821
     22          6           0      -10.585011    1.708881   -1.422686
     23          6           0        9.369648    1.492117    0.198961
     24          6           0       -8.754058   -0.499955   -0.298273
     25          6           0        8.052664    2.182783    0.193207
     26          6           0       -7.558883   -1.245642   -0.643363
     27          6           0        7.924990    3.689969    0.358113
     28          6           0       -7.680886   -2.633210   -1.085079
     29          6           0        6.890667    1.573017    0.060985
     30          6           0       -6.388173   -0.517702   -0.287137
     31          6           0        5.608072    2.083879    0.279401
     32          6           0       -5.025676   -0.970250   -0.589827
     33          6           0        4.458563    1.294254    0.014310
     34          6           0       -3.873510   -0.151942   -0.347129
     35          6           0        3.198160    1.712780    0.219964
     36          6           0       -2.519726   -0.642187   -0.639007
     37          6           0        2.884894    3.206837    0.659244
     38          6           0       -2.295734   -1.982268   -1.200551
     39          6           0        2.109925    0.855292   -0.127006
     40          6           0       -1.583411    0.328116   -0.290208
     41          6           0        0.727642    1.093668   -0.060996
     42          6           0       -0.253162    0.177294   -0.407761
     43          1           0       12.968213   -1.166681    1.495054
     44          1           0       12.633191   -2.832076    1.698817
     45          1           0      -14.265279   -0.971018    1.490169
     46          1           0      -14.187829   -0.593739   -0.288762
     47          1           0       12.649244   -2.444805   -1.009812
     48          1           0      -13.078922    1.141478    1.859195
     49          1           0       14.112363    0.135438   -0.532631
     50          1           0       13.440833   -0.833758   -2.018326
     51          1           0      -13.295352    1.685962   -1.154324
     52          1           0      -12.593928    2.870421   -0.042908
     53          1           0       10.579487   -1.867885    3.155831
     54          1           0        9.685374   -0.699312    2.306593
     55          1           0       11.288894   -0.228624    2.741990
     56          1           0       10.751808   -3.007169   -0.470488
     57          1           0       10.424837   -3.485001    1.063120
     58          1           0        9.295402   -2.391588    0.311284
     59          1           0      -11.951310   -0.391081    2.595109
     60          1           0      -10.971280   -1.922800    2.483126
     61          1           0      -12.656737   -1.874717    2.667723
     62          1           0      -13.545364   -3.082758    0.496101
     63          1           0      -11.751365   -3.078579    0.076176
     64          1           0      -12.760752   -2.491496   -0.921599
     65          1           0        8.830577   -0.511094    0.359622
     66          1           0      -10.058576   -1.890872   -0.865278
     67          1           0       10.660812    1.652514   -1.886661
     68          1           0       12.428446    2.161959   -1.853425
     69          1           0       11.943300    0.845634   -2.959711
     70          1           0      -10.972564    2.386131   -2.290180
     71          1           0       -9.793475    1.133981   -1.940114
     72          1           0       -9.773947    2.419919   -1.073308
     73          1           0       14.805713   -3.205542    0.398058
     74          1           0      -15.422418    1.194817    1.526379
     75          1           0       10.207423    2.157355    0.392482
     76          1           0       -8.490539    0.507432   -0.024242
     77          1           0        8.955221    4.198942    0.233467
     78          1           0        7.100835    4.315014   -0.280848
     79          1           0        7.784222    3.716932    1.627409
     80          1           0       -7.900328   -3.242810    0.062947
     81          1           0       -8.644991   -2.823468   -1.719671
     82          1           0       -6.682678   -2.945377   -1.619219
     83          1           0        6.595296    0.468441   -0.409464
     84          1           0       -6.651229    0.599903    0.147314
     85          1           0        5.531628    3.211128    0.571670
     86          1           0       -4.989292   -1.949798   -1.369096
     87          1           0        4.719249    0.274686   -0.122897
     88          1           0       -4.027748    0.784014    0.278264
     89          1           0        3.674766    3.394892    1.542532
     90          1           0        1.856266    3.159198    0.920547
     91          1           0        3.040842    3.890043   -0.258616
     92          1           0       -2.768653   -2.932117   -0.825610
     93          1           0       -2.368438   -1.899731   -2.285904
     94          1           0       -1.234673   -2.094653   -1.196529
     95          1           0        2.415239   -0.078600   -0.492571
     96          1           0       -1.868724    1.395155    0.040569
     97          1           0        0.217716    2.095132    0.189562
     98          1           0        0.166578   -0.872984   -0.882951
 ---------------------------------------------------------------------

 SCF Done:  E(RCAM-B3LYP) =  -1706.87586600     A.U. after   15 cycles

 Excitation energies and oscillator strengths:

 Excited State   1:      Singlet-A      2.0431 eV  606.85 nm  f=3.7605  <S**2>=0.000
     155 ->158         0.13959
     156 ->157         0.69581
 This state for optimization and/or second-order correction.
 Total Energy, E(TD-HF/TD-DFT) =  -1706.80078476
 Copying the excited state density for this state as the 1-particle RhoCI density.

 The electronic state is 1-A.
 Alpha  occ. eigenvalues --  -19.22158 -19.20957 -10.30631 -10.30232 -10.29476
 Alpha  occ. eigenvalues --  -10.28991 -10.28727 -10.28645 -10.28481 -10.28209
 Alpha  occ. eigenvalues --  -10.27694 -10.27666 -10.27591 -10.27185 -10.27181
 Alpha  occ. eigenvalues --  -10.27180 -10.27097 -10.26999 -10.26949 -10.26687
 Alpha  occ. eigenvalues --  -10.26548 -10.26452 -10.26327 -10.26319 -10.26292
 Alpha  occ. eigenvalues --  -10.26258 -10.25793 -10.25769 -10.25742 -10.25646
 Alpha  occ. eigenvalues --  -10.25621 -10.25616 -10.25550 -10.25325 -10.25314
 Alpha  occ. eigenvalues --  -10.25157 -10.24432 -10.24084 -10.24011 -10.23703
 Alpha  occ. eigenvalues --  -10.23238 -10.22588  -1.09591  -1.07718  -0.94362
 Alpha  occ. eigenvalues --   -0.93848  -0.92414  -0.91785  -0.90988  -0.90127
 Alpha  occ. eigenvalues --   -0.87447  -0.86842  -0.86455  -0.86138  -0.85724
 Alpha  occ. eigenvalues --   -0.82849  -0.81808  -0.80189  -0.79977  -0.78496
 Alpha  occ. eigenvalues --   -0.77627  -0.77088  -0.76494  -0.76088  -0.76007
 Alpha  occ. eigenvalues --   -0.75395  -0.75289  -0.74709  -0.72948  -0.70576
 Alpha  occ. eigenvalues --   -0.68803  -0.67457  -0.66034  -0.64987  -0.64588
 Alpha  occ. eigenvalues --   -0.63615  -0.62485  -0.60456  -0.60181  -0.59715
 Alpha  occ. eigenvalues --   -0.59369  -0.58784  -0.58104  -0.57140  -0.56023
 Alpha  occ. eigenvalues --   -0.55817  -0.55614  -0.55015  -0.54586  -0.53875
 Alpha  occ. eigenvalues --   -0.53347  -0.52405  -0.52023  -0.51686  -0.51141
 Alpha  occ. eigenvalues --   -0.50733  -0.50396  -0.49801  -0.49610  -0.49235
 Alpha  occ. eigenvalues --   -0.48919  -0.48439  -0.47950  -0.47711  -0.47553
 Alpha  occ. eigenvalues --   -0.47442  -0.46769  -0.46582  -0.46237  -0.46100
 Alpha  occ. eigenvalues --   -0.45670  -0.45334  -0.45177  -0.44735  -0.44619
 Alpha  occ. eigenvalues --   -0.44520  -0.44327  -0.43988  -0.43790  -0.43502
 Alpha  occ. eigenvalues --   -0.43387  -0.43139  -0.42973  -0.42690  -0.42201
 Alpha  occ. eigenvalues --   -0.41551  -0.41493  -0.41238  -0.40731  -0.40629
 Alpha  occ. eigenvalues --   -0.40476  -0.40357  -0.39831  -0.39631  -0.39320
 Alpha  occ. eigenvalues --   -0.38846  -0.38800  -0.38762  -0.38603  -0.38139
 Alpha  occ. eigenvalues --   -0.37633  -0.37077  -0.36761  -0.36486  -0.35708
 Alpha  occ. eigenvalues --   -0.34812  -0.34689  -0.33929  -0.32215  -0.32008
 Alpha  occ. eigenvalues --   -0.31615  -0.29668  -0.28096  -0.26429  -0.23457
 Alpha  occ. eigenvalues --   -0.18830
 Alpha virt. eigenvalues --   -0.06419  -0.00957   0.02551   0.05098   0.06950
 Alpha virt. eigenvalues --    0.09299   0.10203   0.11466   0.11627   0.11868
 Alpha virt. eigenvalues --    0.12185   0.12370   0.12905   0.13017   0.13384

 Mulliken charges:
               1
     1  O   -0.564126
     2  O   -0.572776
     3  C   -0.057102
     4  C   -0.051111
     5  C   -0.156529
     6  C   -0.194473
     7  C    0.179625
     8  C    0.185037
     9  C    0.094024
    10  C    0.098262
    11  C   -0.222262
    12  C   -0.217325
    13  C    0.028113
    14  C    0.052761
    15  C   -0.298919
    16  C   -0.301109
    17  C   -0.294124
    18  C   -0.299284
    19  C   -0.107449
    20  C   -0.147842
    21  C   -0.361587
    22  C   -0.392474
    23  C   -0.096236
    24  C   -0.057528
    25  C    0.070232
    26  C    0.125139
    27  C   -0.358337
    28  C   -0.348580
    29  C   -0.102593
    30  C   -0.129095
    31  C   -0.082157
    32  C   -0.118900
    33  C   -0.117583
    34  C   -0.116888
    35  C    0.082542
    36  C    0.105889
    37  C   -0.344939
    38  C   -0.380050
    39  C   -0.120586
    40  C   -0.109198
    41  C   -0.101331
    42  C   -0.074720
    43  H    0.099337
    44  H    0.074324
    45  H    0.067308
    46  H    0.095836
    47  H    0.066134
    48  H    0.069138
    49  H    0.124704
    50  H    0.115887
    51  H    0.136846
    52  H    0.123527
    53  H    0.085755
    54  H    0.104399
    55  H    0.114832
    56  H    0.100280
    57  H    0.096946
    58  H    0.102756
    59  H    0.114910
    60  H    0.061388
    61  H    0.110687
    62  H    0.088690
    63  H    0.096932
    64  H    0.114437
    65  H    0.080231
    66  H    0.069973
    67  H    0.110021
    68  H    0.084581
    69  H    0.107671
    70  H    0.097022
    71  H    0.115228
    72  H    0.104364
    73  H    0.311370
    74  H    0.304791
    75  H    0.081016
    76  H    0.075219
    77  H    0.104791
    78  H    0.121507
    79  H    0.095205
    80  H    0.101740
    81  H    0.118765
    82  H    0.104204
    83  H    0.061392
    84  H    0.080887
    85  H    0.083523
    86  H    0.076802
    87  H    0.086287
    88  H    0.095514
    89  H    0.106719
    90  H    0.117209
    91  H    0.120549
    92  H    0.133015
    93  H    0.136185
    94  H    0.113574
    95  H    0.079466
    96  H    0.086746
    97  H    0.079443
    98  H    0.065530
 Sum of Mulliken charges =  -0.00000

 Dipole moment (field-independent basis, Debye):
    X=              0.0571    Y=             -2.4833    Z=              0.2451  Tot=              2.4961
 Quadrupole moment (field-independent basis, Debye-Ang):
   XX=           -288.0363   YY=           -244.9786   ZZ=           -261.2609
   XY=             16.1323   XZ=              6.7115   YZ=              1.1007

 Normal termination of Gaussian 16 at Sat Jul 13 14:01:18 2019.
