 Gaussian 16, Revision A.03,
 Gaussian 16:  ES64L-G16RevA.03 25-Dec-2016

 -------------------------------------
 # td=(NStates=1) CAM-B3LYP/6-31G(d,p)
 -------------------------------------

 --
 TD
 --
 Symbolic Z-matrix:
 Charge =  0 Multiplicity = 1

                         Standard orientation:
 ---------------------------------------------------------------------
 Center     Atomic      Atomic             Coordinates (Angstroms)
 Number     Number       Type             X           Y           Z
 ---------------------------------------------------------------------
      1          8           0       14.578510   -2.524316   -0.111215
      2          8           0      -14.678746    1.941023    1.073756
      3          6           0       11.140018   -1.396628    1.034834
      4          6           0      -12.362110   -1.077578    0.600150
      5          6           0       12.567223   -1.795400    1.177783
      6          6           0      -13.586396   -0.241493    0.767069
      7          6           0       13.243832   -2.096317   -0.256295
      8          6           0      -13.469197    1.220613    0.968567
      9          6           0       10.922430   -0.269003    0.095753
     10          6           0      -11.224823   -0.245436   -0.099779
     11          6           0       13.258475   -0.702185   -0.965654
     12          6           0      -12.686030    1.881200   -0.135744
     13          6           0       11.862202    0.016496   -0.869357
     14          6           0      -11.443384    0.981049   -0.487702
     15          6           0       10.795459   -0.865555    2.455501
     16          6           0       10.234103   -2.661604    0.677915
     17          6           0      -11.753167   -1.393187    2.019662
     18          6           0      -12.749446   -2.309063   -0.142976
     19          6           0        9.660873    0.436666    0.092667
     20          6           0      -10.049302   -1.067935   -0.459760
     21          6           0       11.701323    1.162913   -1.844905
     22          6           0      -10.544384    1.895472   -1.223594
     23          6           0        9.375727    1.744428   -0.172140
     24          6           0       -8.807829   -0.599875   -0.468166
     25          6           0        8.068623    2.370948   -0.096751
     26          6           0       -7.496175   -1.326792   -0.651901
     27          6           0        7.976685    3.836669    0.409996
     28          6           0       -7.630637   -2.701977   -1.221201
     29          6           0        6.846764    1.606579   -0.182479
     30          6           0       -6.324584   -0.696877   -0.465559
     31          6           0        5.575748    2.126011    0.086726
     32          6           0       -5.003203   -1.203553   -0.622276
     33          6           0        4.497124    1.256475   -0.008326
     34          6           0       -3.932284   -0.435415   -0.401633
     35          6           0        3.172736    1.754430    0.143369
     36          6           0       -2.602330   -0.724587   -0.513363
     37          6           0        2.762518    3.162647    0.567953
     38          6           0       -2.217142   -2.189906   -0.893601
     39          6           0        2.106631    0.805976   -0.094975
     40          6           0       -1.585898    0.284996   -0.310233
     41          6           0        0.697506    1.047033   -0.013535
     42          6           0       -0.231105    0.029243   -0.335792
     43          1           0       13.063222   -0.863333    1.562297
     44          1           0       12.704352   -2.529949    1.843671
     45          1           0      -14.180974   -0.603952    1.429082
     46          1           0      -14.216209   -0.343199   -0.022210
     47          1           0       12.614997   -2.854045   -0.729172
     48          1           0      -12.861369    1.264441    1.833503
     49          1           0       13.974904    0.071662   -0.399257
     50          1           0       13.558939   -0.634071   -1.831619
     51          1           0      -13.408441    1.736022   -0.872829
     52          1           0      -12.373107    2.813641   -0.132895
     53          1           0       10.917794   -1.721528    3.083291
     54          1           0        9.694172   -0.725442    2.486986
     55          1           0       11.533308   -0.049290    2.732195
     56          1           0       10.485899   -2.957539   -0.242280
     57          1           0       10.286493   -3.427911    1.509514
     58          1           0        9.204283   -2.355606    0.636203
     59          1           0      -11.650207   -0.591181    2.737550
     60          1           0      -10.896490   -1.974709    1.975522
     61          1           0      -12.360616   -2.239281    2.375181
     62          1           0      -13.544707   -2.807639    0.294722
     63          1           0      -12.019935   -3.074603   -0.114877
     64          1           0      -13.115738   -2.444796   -1.145487
     65          1           0        8.761333   -0.208605    0.422026
     66          1           0      -10.378215   -2.184950   -0.770089
     67          1           0       10.728523    1.400540   -2.107015
     68          1           0       12.185844    2.178538   -1.640269
     69          1           0       12.097969    0.698991   -2.802901
     70          1           0      -11.219091    2.615774   -1.941965
     71          1           0       -9.833937    1.569727   -1.904461
     72          1           0      -10.104943    2.676403   -0.587833
     73          1           0       14.603389   -3.302678    0.462151
     74          1           0      -15.221917    1.851667    1.857782
     75          1           0       10.180180    2.224303   -0.211544
     76          1           0       -8.637103    0.512945   -0.084244
     77          1           0        8.923325    4.216722    0.341895
     78          1           0        7.305898    4.420694   -0.101774
     79          1           0        7.577103    3.803644    1.421544
     80          1           0       -8.144516   -3.309990   -0.488135
     81          1           0       -8.525455   -2.802847   -2.072497
     82          1           0       -6.699197   -3.224669   -1.516791
     83          1           0        7.098093    0.459898   -0.547001
     84          1           0       -6.401360    0.397010   -0.121733
     85          1           0        5.571072    3.154164    0.406030
     86          1           0       -4.687318   -2.208490   -0.871747
     87          1           0        4.550854    0.171903   -0.419072
     88          1           0       -3.996513    0.786265   -0.437025
     89          1           0        3.595387    3.405760    1.431907
     90          1           0        1.671454    3.277650    0.712245
     91          1           0        2.980431    3.840868   -0.388581
     92          1           0       -2.619405   -2.732891    0.061981
     93          1           0       -2.589048   -2.581032   -1.752050
     94          1           0       -1.084310   -2.203479   -1.100791
     95          1           0        2.476035   -0.252571   -0.457855
     96          1           0       -1.880759    1.301702    0.058177
     97          1           0        0.510495    2.167935    0.172073
     98          1           0       -0.002414   -0.859115   -0.693333
 ---------------------------------------------------------------------

 SCF Done:  E(RCAM-B3LYP) =  -1706.94991570     A.U. after   16 cycles

 Excitation energies and oscillator strengths:

 Excited State   1:      Singlet-A      2.0252 eV  612.21 nm  f=3.6022  <S**2>=0.000
     155 ->158        -0.14104
     156 ->157         0.69580
     156 <-157        -0.10150
 This state for optimization and/or second-order correction.
 Total Energy, E(TD-HF/TD-DFT) =  -1706.87549119
 Copying the excited state density for this state as the 1-particle RhoCI density.

 The electronic state is 1-A.
 Alpha  occ. eigenvalues --  -19.21276 -19.20667 -10.31278 -10.28928 -10.28392
 Alpha  occ. eigenvalues --  -10.27746 -10.27624 -10.27609 -10.27378 -10.27352
 Alpha  occ. eigenvalues --  -10.27306 -10.27148 -10.26933 -10.26932 -10.26660
 Alpha  occ. eigenvalues --  -10.26574 -10.26490 -10.26480 -10.26456 -10.26377
 Alpha  occ. eigenvalues --  -10.26361 -10.26360 -10.26163 -10.26050 -10.25787
 Alpha  occ. eigenvalues --  -10.25702 -10.25632 -10.25509 -10.25386 -10.25325
 Alpha  occ. eigenvalues --  -10.25082 -10.24769 -10.24631 -10.24501 -10.24428
 Alpha  occ. eigenvalues --  -10.24389 -10.24322 -10.24085 -10.23725 -10.23515
 Alpha  occ. eigenvalues --  -10.22769 -10.21378  -1.09656  -1.09019  -0.93900
 Alpha  occ. eigenvalues --   -0.93789  -0.91917  -0.91081  -0.89929  -0.89237
 Alpha  occ. eigenvalues --   -0.87703  -0.87298  -0.86745  -0.85555  -0.84848
 Alpha  occ. eigenvalues --   -0.83050  -0.81810  -0.80171  -0.79866  -0.77749
 Alpha  occ. eigenvalues --   -0.77549  -0.77227  -0.76881  -0.76779  -0.75953
 Alpha  occ. eigenvalues --   -0.75678  -0.75619  -0.75425  -0.72969  -0.70766
 Alpha  occ. eigenvalues --   -0.68809  -0.68102  -0.66625  -0.65815  -0.65032
 Alpha  occ. eigenvalues --   -0.64143  -0.63157  -0.62536  -0.60206  -0.59603
 Alpha  occ. eigenvalues --   -0.59222  -0.58783  -0.58501  -0.56827  -0.56101
 Alpha  occ. eigenvalues --   -0.55979  -0.55541  -0.55380  -0.54725  -0.53708
 Alpha  occ. eigenvalues --   -0.53185  -0.52981  -0.52141  -0.51934  -0.51388
 Alpha  occ. eigenvalues --   -0.51187  -0.50063  -0.49777  -0.49631  -0.49360
 Alpha  occ. eigenvalues --   -0.48921  -0.48588  -0.48290  -0.48105  -0.47931
 Alpha  occ. eigenvalues --   -0.47342  -0.46939  -0.46781  -0.46563  -0.46085
 Alpha  occ. eigenvalues --   -0.45871  -0.45516  -0.45350  -0.45259  -0.44974
 Alpha  occ. eigenvalues --   -0.44230  -0.44171  -0.44035  -0.43843  -0.43748
 Alpha  occ. eigenvalues --   -0.43501  -0.43199  -0.43033  -0.42810  -0.42380
 Alpha  occ. eigenvalues --   -0.42201  -0.41926  -0.41463  -0.41243  -0.40911
 Alpha  occ. eigenvalues --   -0.40693  -0.40201  -0.40105  -0.39606  -0.39503
 Alpha  occ. eigenvalues --   -0.39247  -0.38758  -0.38600  -0.38210  -0.37920
 Alpha  occ. eigenvalues --   -0.37202  -0.36792  -0.36566  -0.36199  -0.36086
 Alpha  occ. eigenvalues --   -0.35071  -0.34680  -0.33588  -0.32394  -0.32115
 Alpha  occ. eigenvalues --   -0.31317  -0.29820  -0.28088  -0.26049  -0.23185
 Alpha  occ. eigenvalues --   -0.18422
 Alpha virt. eigenvalues --   -0.06062  -0.00662   0.03124   0.05909   0.08458
 Alpha virt. eigenvalues --    0.10266   0.11381   0.11990   0.12744   0.12832
 Alpha virt. eigenvalues --    0.12981   0.13285   0.13470   0.13826   0.14021

 Mulliken charges:
               1
     1  O   -0.558996
     2  O   -0.575018
     3  C   -0.054226
     4  C   -0.011898
     5  C   -0.185484
     6  C   -0.167589
     7  C    0.176844
     8  C    0.153473
     9  C    0.100315
    10  C    0.061004
    11  C   -0.164293
    12  C   -0.185083
    13  C    0.006344
    14  C    0.056686
    15  C   -0.292502
    16  C   -0.306836
    17  C   -0.314115
    18  C   -0.341111
    19  C   -0.112760
    20  C   -0.113241
    21  C   -0.375896
    22  C   -0.387002
    23  C   -0.083397
    24  C   -0.115666
    25  C    0.035217
    26  C    0.137526
    27  C   -0.370041
    28  C   -0.376984
    29  C   -0.105382
    30  C   -0.140056
    31  C   -0.096149
    32  C   -0.095122
    33  C   -0.110260
    34  C   -0.086643
    35  C    0.108139
    36  C    0.066533
    37  C   -0.353233
    38  C   -0.364766
    39  C   -0.131863
    40  C   -0.118070
    41  C   -0.097501
    42  C   -0.048468
    43  H    0.093302
    44  H    0.077936
    45  H    0.083675
    46  H    0.095675
    47  H    0.081943
    48  H    0.068635
    49  H    0.104157
    50  H    0.094510
    51  H    0.123914
    52  H    0.106967
    53  H    0.094770
    54  H    0.100315
    55  H    0.104279
    56  H    0.116970
    57  H    0.093327
    58  H    0.103764
    59  H    0.116290
    60  H    0.114717
    61  H    0.085645
    62  H    0.106985
    63  H    0.098400
    64  H    0.119091
    65  H    0.073361
    66  H    0.080736
    67  H    0.138812
    68  H    0.112823
    69  H    0.092507
    70  H    0.075667
    71  H    0.124559
    72  H    0.118808
    73  H    0.304903
    74  H    0.304717
    75  H    0.065624
    76  H    0.080530
    77  H    0.113054
    78  H    0.127264
    79  H    0.129539
    80  H    0.123707
    81  H    0.096535
    82  H    0.109575
    83  H    0.070521
    84  H    0.081860
    85  H    0.095776
    86  H    0.086995
    87  H    0.096539
    88  H    0.062220
    89  H    0.107300
    90  H    0.117234
    91  H    0.112134
    92  H    0.120962
    93  H    0.134748
    94  H    0.095003
    95  H    0.066123
    96  H    0.081907
    97  H    0.080272
    98  H    0.069988
 Sum of Mulliken charges =  -0.00000

 Dipole moment (field-independent basis, Debye):
    X=              0.2131    Y=             -1.6448    Z=              1.5493  Tot=              2.2696
 Quadrupole moment (field-independent basis, Debye-Ang):
   XX=           -257.0686   YY=           -238.1875   ZZ=           -261.1536
   XY=             11.9940   XZ=             -6.7742   YZ=              1.9755

 Normal termination of Gaussian 16 at Thu Jul 18 06:14:12 2019.
