 Gaussian 16, Revision A.03,
 Gaussian 16:  ES64L-G16RevA.03 25-Dec-2016

 -------------------------------------
 # td=(NStates=1) CAM-B3LYP/6-31G(d,p)
 -------------------------------------

 --
 TD
 --
 Symbolic Z-matrix:
 Charge =  0 Multiplicity = 1

                         Standard orientation:
 ---------------------------------------------------------------------
 Center     Atomic      Atomic             Coordinates (Angstroms)
 Number     Number       Type             X           Y           Z
 ---------------------------------------------------------------------
      1          8           0       14.757080   -2.047428   -0.061430
      2          8           0      -14.623226    1.891635    1.190320
      3          6           0       11.160384   -1.395699    1.074928
      4          6           0      -12.429999   -1.131317    0.540797
      5          6           0       12.670571   -1.767982    1.255693
      6          6           0      -13.731386   -0.243836    0.615092
      7          6           0       13.406722   -1.830532   -0.154130
      8          6           0      -13.424498    1.152795    1.036132
      9          6           0       10.974255   -0.297243   -0.023850
     10          6           0      -11.220800   -0.200340   -0.109425
     11          6           0       13.246051   -0.635339   -0.966062
     12          6           0      -12.651959    1.873989   -0.017276
     13          6           0       11.862399    0.028934   -0.926946
     14          6           0      -11.500630    1.082746   -0.448001
     15          6           0       10.603171   -1.018016    2.466256
     16          6           0       10.356491   -2.731600    0.681329
     17          6           0      -11.969016   -1.509433    2.030122
     18          6           0      -12.686719   -2.322836   -0.401814
     19          6           0        9.667518    0.322142    0.088486
     20          6           0      -10.138371   -1.034707   -0.356132
     21          6           0       11.645391    1.063367   -1.974425
     22          6           0      -10.394691    1.910746   -1.143291
     23          6           0        9.442748    1.641100   -0.005819
     24          6           0       -8.830273   -0.608987   -0.381037
     25          6           0        8.133211    2.270596    0.077544
     26          6           0       -7.576449   -1.162240   -0.656040
     27          6           0        8.033129    3.654478    0.416797
     28          6           0       -7.681511   -2.526425   -1.121885
     29          6           0        6.969253    1.448312    0.042384
     30          6           0       -6.432284   -0.472703   -0.296230
     31          6           0        5.649869    2.005153    0.164643
     32          6           0       -5.141837   -1.021107   -0.681572
     33          6           0        4.519301    1.169982    0.022117
     34          6           0       -3.999946   -0.248501   -0.398227
     35          6           0        3.149389    1.573159    0.094821
     36          6           0       -2.705390   -0.649673   -0.602345
     37          6           0        2.878573    2.995242    0.421447
     38          6           0       -2.345889   -2.019017   -1.053445
     39          6           0        2.109568    0.675333   -0.222127
     40          6           0       -1.616716    0.253665   -0.304759
     41          6           0        0.767805    0.945322   -0.075263
     42          6           0       -0.162654   -0.071182   -0.423967
     43          1           0       13.104042   -0.996189    1.781802
     44          1           0       12.997557   -2.570483    1.639512
     45          1           0      -14.565506   -0.756204    1.302116
     46          1           0      -14.033749   -0.344351   -0.427979
     47          1           0       12.900563   -2.633810   -0.791592
     48          1           0      -12.934394    1.074192    1.858296
     49          1           0       13.960500    0.124919   -0.598521
     50          1           0       13.372640   -0.840029   -2.008931
     51          1           0      -13.339480    2.039758   -0.894445
     52          1           0      -12.560119    2.859195    0.360939
     53          1           0       10.719097   -1.698726    3.231681
     54          1           0        9.421252   -0.864278    2.397009
     55          1           0       10.966724    0.028173    2.440840
     56          1           0       10.874493   -3.144749   -0.250267
     57          1           0       10.396505   -3.553608    1.387037
     58          1           0        9.250845   -2.514834    0.353963
     59          1           0      -11.965596   -0.559394    2.511007
     60          1           0      -11.034625   -2.111240    2.025307
     61          1           0      -12.723151   -2.022924    2.492635
     62          1           0      -13.792808   -2.565526   -0.172306
     63          1           0      -12.099942   -3.370678   -0.120296
     64          1           0      -12.724423   -1.940261   -1.444999
     65          1           0        8.630817   -0.153656    0.241392
     66          1           0      -10.295210   -2.018182   -0.285592
     67          1           0       10.497491    1.170896   -2.315672
     68          1           0       11.736039    2.040431   -1.422235
     69          1           0       12.349129    0.940341   -3.027194
     70          1           0      -10.909175    2.799647   -1.692270
     71          1           0       -9.915905    1.216352   -1.916745
     72          1           0       -9.460361    2.476992   -0.242698
     73          1           0       15.040401   -3.062991    0.050180
     74          1           0      -15.295341    0.896931    1.402297
     75          1           0       10.212949    2.461759    0.071331
     76          1           0       -8.801522    0.475714   -0.283305
     77          1           0        9.187558    3.922334    0.491368
     78          1           0        7.489163    4.463287   -0.331456
     79          1           0        7.484903    3.929232    1.386314
     80          1           0       -8.306831   -3.405548   -0.493521
     81          1           0       -8.177519   -2.503705   -2.166504
     82          1           0       -6.755537   -2.991897   -1.319722
     83          1           0        6.920530    0.355665   -0.163114
     84          1           0       -6.483345    0.682037   -0.076719
     85          1           0        5.660741    3.047356    0.430801
     86          1           0       -5.082135   -1.925824   -1.144102
     87          1           0        4.704906    0.245175   -0.359656
     88          1           0       -4.148387    0.797317   -0.048519
     89          1           0        3.589232    3.070834    1.321445
     90          1           0        1.797820    3.226353    0.600858
     91          1           0        3.324708    3.620227   -0.425531
     92          1           0       -3.132427   -2.725211   -0.562767
     93          1           0       -2.644868   -2.149540   -2.110972
     94          1           0       -1.301151   -2.282918   -0.927578
     95          1           0        2.370463   -0.281806   -0.145938
     96          1           0       -1.849916    1.251671    0.058400
     97          1           0        0.507156    2.027698    0.045049
     98          1           0        0.165660   -1.019644   -0.448663
 ---------------------------------------------------------------------

 SCF Done:  E(RCAM-B3LYP) =  -1706.90145643     A.U. after   15 cycles

 Excitation energies and oscillator strengths:

 Excited State   1:      Singlet-A      1.9951 eV  621.45 nm  f=3.7447  <S**2>=0.000
     155 ->158         0.15962
     156 ->157         0.68824
 This state for optimization and/or second-order correction.
 Total Energy, E(TD-HF/TD-DFT) =  -1706.82813904
 Copying the excited state density for this state as the 1-particle RhoCI density.

 The electronic state is 1-A.
 Alpha  occ. eigenvalues --  -19.22171 -19.21651 -10.30069 -10.28262 -10.28175
 Alpha  occ. eigenvalues --  -10.28041 -10.27932 -10.27863 -10.27641 -10.27521
 Alpha  occ. eigenvalues --  -10.27510 -10.27444 -10.27290 -10.27091 -10.27039
 Alpha  occ. eigenvalues --  -10.26965 -10.26849 -10.26794 -10.26590 -10.26586
 Alpha  occ. eigenvalues --  -10.26546 -10.26539 -10.26460 -10.26414 -10.26340
 Alpha  occ. eigenvalues --  -10.26301 -10.26274 -10.26206 -10.26118 -10.26029
 Alpha  occ. eigenvalues --  -10.26022 -10.25700 -10.25692 -10.25346 -10.24743
 Alpha  occ. eigenvalues --  -10.24579 -10.24533 -10.24476 -10.24439 -10.24154
 Alpha  occ. eigenvalues --  -10.24006 -10.22741  -1.09825  -1.06816  -0.93607
 Alpha  occ. eigenvalues --   -0.93273  -0.92270  -0.91808  -0.90967  -0.90268
 Alpha  occ. eigenvalues --   -0.87356  -0.86716  -0.86419  -0.85772  -0.85088
 Alpha  occ. eigenvalues --   -0.83221  -0.82012  -0.80087  -0.79008  -0.78083
 Alpha  occ. eigenvalues --   -0.76853  -0.76539  -0.76314  -0.75711  -0.75561
 Alpha  occ. eigenvalues --   -0.75396  -0.74909  -0.74641  -0.72584  -0.70203
 Alpha  occ. eigenvalues --   -0.68667  -0.67246  -0.66378  -0.65253  -0.64241
 Alpha  occ. eigenvalues --   -0.63850  -0.63413  -0.62036  -0.60878  -0.60482
 Alpha  occ. eigenvalues --   -0.59466  -0.59448  -0.58353  -0.57535  -0.56713
 Alpha  occ. eigenvalues --   -0.55968  -0.54849  -0.54555  -0.54386  -0.53812
 Alpha  occ. eigenvalues --   -0.53419  -0.53105  -0.52035  -0.51299  -0.51111
 Alpha  occ. eigenvalues --   -0.50810  -0.49923  -0.49283  -0.48977  -0.48656
 Alpha  occ. eigenvalues --   -0.48513  -0.48341  -0.48098  -0.47797  -0.47285
 Alpha  occ. eigenvalues --   -0.47075  -0.46912  -0.46781  -0.46749  -0.46424
 Alpha  occ. eigenvalues --   -0.45983  -0.45740  -0.45717  -0.45345  -0.45102
 Alpha  occ. eigenvalues --   -0.44912  -0.44758  -0.44298  -0.44025  -0.43642
 Alpha  occ. eigenvalues --   -0.43216  -0.42978  -0.42692  -0.42540  -0.42119
 Alpha  occ. eigenvalues --   -0.41988  -0.41675  -0.41601  -0.41385  -0.40833
 Alpha  occ. eigenvalues --   -0.40575  -0.40105  -0.40066  -0.39905  -0.39670
 Alpha  occ. eigenvalues --   -0.39244  -0.39140  -0.38415  -0.37827  -0.37547
 Alpha  occ. eigenvalues --   -0.37068  -0.36775  -0.36617  -0.36193  -0.35533
 Alpha  occ. eigenvalues --   -0.35003  -0.34126  -0.33447  -0.32319  -0.31738
 Alpha  occ. eigenvalues --   -0.31209  -0.30010  -0.28511  -0.25881  -0.22879
 Alpha  occ. eigenvalues --   -0.18925
 Alpha virt. eigenvalues --   -0.06442  -0.02024   0.01836   0.05170   0.07348
 Alpha virt. eigenvalues --    0.07564   0.08666   0.09843   0.10725   0.11520
 Alpha virt. eigenvalues --    0.11959   0.12316   0.12712   0.13242   0.13430

 Mulliken charges:
               1
     1  O   -0.563162
     2  O   -0.571058
     3  C   -0.017525
     4  C   -0.031576
     5  C   -0.150980
     6  C   -0.250222
     7  C    0.158779
     8  C    0.230961
     9  C    0.054193
    10  C    0.079462
    11  C   -0.197434
    12  C   -0.232038
    13  C    0.056861
    14  C    0.041748
    15  C   -0.288674
    16  C   -0.302493
    17  C   -0.299592
    18  C   -0.315585
    19  C   -0.118819
    20  C   -0.086947
    21  C   -0.361621
    22  C   -0.329464
    23  C   -0.093326
    24  C   -0.129366
    25  C    0.101738
    26  C    0.138133
    27  C   -0.382892
    28  C   -0.371988
    29  C   -0.126318
    30  C   -0.125210
    31  C   -0.080266
    32  C   -0.092797
    33  C   -0.122056
    34  C   -0.114483
    35  C    0.091225
    36  C    0.130358
    37  C   -0.361533
    38  C   -0.377094
    39  C   -0.108511
    40  C   -0.141438
    41  C   -0.079416
    42  C   -0.094198
    43  H    0.098855
    44  H    0.077426
    45  H    0.063458
    46  H    0.108935
    47  H    0.059625
    48  H    0.090900
    49  H    0.118986
    50  H    0.107937
    51  H    0.112582
    52  H    0.126154
    53  H    0.113368
    54  H    0.077571
    55  H    0.105985
    56  H    0.082792
    57  H    0.103083
    58  H    0.086370
    59  H    0.110763
    60  H    0.105495
    61  H    0.103864
    62  H    0.091049
    63  H    0.092994
    64  H    0.121711
    65  H    0.093194
    66  H    0.066379
    67  H    0.115734
    68  H    0.126239
    69  H    0.082191
    70  H    0.090907
    71  H    0.122581
    72  H    0.053632
    73  H    0.314532
    74  H    0.282324
    75  H    0.070373
    76  H    0.074500
    77  H    0.090246
    78  H    0.104404
    79  H    0.130446
    80  H    0.096664
    81  H    0.117449
    82  H    0.105822
    83  H    0.087876
    84  H    0.094780
    85  H    0.085077
    86  H    0.086212
    87  H    0.079917
    88  H    0.082936
    89  H    0.118336
    90  H    0.105154
    91  H    0.122228
    92  H    0.103221
    93  H    0.123723
    94  H    0.114756
    95  H    0.077149
    96  H    0.083466
    97  H    0.083420
    98  H    0.088853
 Sum of Mulliken charges =  -0.00000

 Dipole moment (field-independent basis, Debye):
    X=              2.2058    Y=             -2.9977    Z=             -0.1603  Tot=              3.7252
 Quadrupole moment (field-independent basis, Debye-Ang):
   XX=           -271.9229   YY=           -243.9611   ZZ=           -265.4367
   XY=             14.5852   XZ=              4.6333   YZ=              0.1515

 Normal termination of Gaussian 16 at Fri Jul 12 16:14:48 2019.
