 Gaussian 16, Revision A.03,
 Gaussian 16:  ES64L-G16RevA.03 25-Dec-2016

 -------------------------------------
 # td=(NStates=1) CAM-B3LYP/6-31G(d,p)
 -------------------------------------

 --
 TD
 --
 Symbolic Z-matrix:
 Charge =  0 Multiplicity = 1

                         Standard orientation:
 ---------------------------------------------------------------------
 Center     Atomic      Atomic             Coordinates (Angstroms)
 Number     Number       Type             X           Y           Z
 ---------------------------------------------------------------------
      1          8           0       14.752328   -2.273867   -0.428853
      2          8           0      -14.880001    1.735613    0.782323
      3          6           0       11.342722   -1.429963    0.994337
      4          6           0      -12.317308   -1.026927    0.525690
      5          6           0       12.778748   -1.865025    0.870784
      6          6           0      -13.689729   -0.322448    0.682394
      7          6           0       13.370724   -1.887196   -0.472529
      8          6           0      -13.592783    1.087886    0.911906
      9          6           0       11.032394   -0.287363   -0.010004
     10          6           0      -11.280845   -0.191832   -0.221662
     11          6           0       13.348333   -0.484452   -1.008386
     12          6           0      -12.776934    1.861282   -0.251142
     13          6           0       11.944845    0.144410   -0.884718
     14          6           0      -11.565376    1.041374   -0.619766
     15          6           0       10.964481   -0.951313    2.467896
     16          6           0       10.398196   -2.687191    0.605508
     17          6           0      -11.859825   -1.335864    1.939064
     18          6           0      -12.678968   -2.326027   -0.156816
     19          6           0        9.702671    0.369043    0.209453
     20          6           0      -10.061226   -0.952813   -0.554159
     21          6           0       11.648204    1.105254   -1.995181
     22          6           0      -10.554174    1.798666   -1.472515
     23          6           0        9.424576    1.700985    0.106956
     24          6           0       -8.863115   -0.426024   -0.349784
     25          6           0        8.085087    2.200034    0.181109
     26          6           0       -7.678183   -1.192910   -0.460590
     27          6           0        8.071285    3.753090    0.421465
     28          6           0       -7.653803   -2.598423   -0.878878
     29          6           0        6.917156    1.447771    0.144166
     30          6           0       -6.466173   -0.657624   -0.380028
     31          6           0        5.594149    1.931809    0.303461
     32          6           0       -5.104214   -1.114691   -0.482263
     33          6           0        4.420997    1.226469    0.067021
     34          6           0       -4.021416   -0.316015   -0.281817
     35          6           0        3.123698    1.751269    0.127879
     36          6           0       -2.581282   -0.726852   -0.448111
     37          6           0        2.795115    3.131340    0.612594
     38          6           0       -2.320301   -2.201080   -0.699367
     39          6           0        2.001481    0.858929   -0.113556
     40          6           0       -1.617382    0.246662   -0.247883
     41          6           0        0.636713    0.936154   -0.139290
     42          6           0       -0.273620    0.051904   -0.239654
     43          1           0       13.225001   -1.056044    1.373101
     44          1           0       12.866819   -3.012174    1.424898
     45          1           0      -14.366161   -0.666354    1.562273
     46          1           0      -14.247878   -0.543400   -0.298304
     47          1           0       12.838567   -2.629266   -1.063493
     48          1           0      -12.957214    1.315442    1.810607
     49          1           0       14.028317    0.225801   -0.547903
     50          1           0       13.588714   -0.467765   -1.945032
     51          1           0      -13.488744    1.983054   -1.008413
     52          1           0      -12.565982    2.629725    0.345776
     53          1           0       10.961265   -1.928683    3.020776
     54          1           0        9.973915   -0.459644    2.487038
     55          1           0       11.623453   -0.318457    2.991903
     56          1           0       10.452833   -3.017703   -0.516537
     57          1           0       10.589588   -3.528496    1.108584
     58          1           0        9.211904   -2.497164    0.827282
     59          1           0      -11.615425   -0.481067    2.617146
     60          1           0      -10.878408   -1.957412    2.005080
     61          1           0      -12.624172   -1.818997    2.450675
     62          1           0      -13.752335   -2.825031    0.000834
     63          1           0      -11.711788   -3.028237   -0.060807
     64          1           0      -13.016394   -2.209515   -1.315123
     65          1           0        8.931719   -0.190039    0.596050
     66          1           0      -10.216877   -1.933787   -1.068648
     67          1           0       10.524074    1.063941   -2.101177
     68          1           0       12.055008    2.162717   -2.021801
     69          1           0       11.995583    0.483036   -2.840982
     70          1           0      -10.946277    2.411269   -2.456549
     71          1           0       -9.706745    1.065379   -1.927405
     72          1           0       -9.894198    2.476901   -0.739103
     73          1           0       14.914434   -3.014954    0.338499
     74          1           0      -15.156611    1.752305    1.930964
     75          1           0       10.171651    2.448791    0.056545
     76          1           0       -8.856151    0.507948    0.118632
     77          1           0        9.066319    4.271631    0.240849
     78          1           0        7.413674    4.421452   -0.131988
     79          1           0        7.582577    4.073207    1.430519
     80          1           0       -8.070099   -3.248431   -0.013215
     81          1           0       -8.276952   -2.692692   -1.696370
     82          1           0       -6.599995   -3.096991   -1.202888
     83          1           0        7.146763    0.460302   -0.086385
     84          1           0       -6.354906    0.357411    0.078450
     85          1           0        5.423952    2.921232    0.507632
     86          1           0       -5.001666   -1.987797   -0.831511
     87          1           0        4.648171    0.194647   -0.176665
     88          1           0       -4.194188    0.752764    0.000047
     89          1           0        3.218031    3.221020    1.636518
     90          1           0        1.761240    3.304251    0.339919
     91          1           0        3.441925    3.901354   -0.053196
     92          1           0       -3.080924   -2.763498    0.174129
     93          1           0       -2.798722   -2.331126   -1.704887
     94          1           0       -1.207292   -2.444967   -0.572559
     95          1           0        2.494534   -0.001167   -0.342954
     96          1           0       -2.045368    1.122965   -0.022476
     97          1           0        0.556596    1.944504    0.329623
     98          1           0        0.076737   -0.989936   -0.707243
 ---------------------------------------------------------------------

 SCF Done:  E(RCAM-B3LYP) =  -1706.91686226     A.U. after   15 cycles

 Excitation energies and oscillator strengths:

 Excited State   1:      Singlet-A      2.3167 eV  535.17 nm  f=3.5810  <S**2>=0.000
     155 ->158         0.15286
     156 ->157         0.68851
 This state for optimization and/or second-order correction.
 Total Energy, E(TD-HF/TD-DFT) =  -1706.83172446
 Copying the excited state density for this state as the 1-particle RhoCI density.

 The electronic state is 1-A.
 Alpha  occ. eigenvalues --  -19.23275 -19.21199 -10.29938 -10.29844 -10.28550
 Alpha  occ. eigenvalues --  -10.28281 -10.28004 -10.27889 -10.27789 -10.27512
 Alpha  occ. eigenvalues --  -10.27304 -10.27121 -10.27037 -10.26736 -10.26533
 Alpha  occ. eigenvalues --  -10.26422 -10.26248 -10.26232 -10.26218 -10.26083
 Alpha  occ. eigenvalues --  -10.26075 -10.26043 -10.26013 -10.25998 -10.25959
 Alpha  occ. eigenvalues --  -10.25931 -10.25827 -10.25826 -10.25640 -10.25620
 Alpha  occ. eigenvalues --  -10.25461 -10.25319 -10.25289 -10.25188 -10.25121
 Alpha  occ. eigenvalues --  -10.25072 -10.25035 -10.24926 -10.24852 -10.24524
 Alpha  occ. eigenvalues --  -10.23975 -10.23508  -1.07025  -1.06815  -0.94125
 Alpha  occ. eigenvalues --   -0.93731  -0.92889  -0.92136  -0.91298  -0.90149
 Alpha  occ. eigenvalues --   -0.88396  -0.87025  -0.86893  -0.85889  -0.85058
 Alpha  occ. eigenvalues --   -0.83590  -0.82453  -0.80108  -0.79651  -0.78622
 Alpha  occ. eigenvalues --   -0.76521  -0.76440  -0.76152  -0.75811  -0.75638
 Alpha  occ. eigenvalues --   -0.75610  -0.75189  -0.74691  -0.73971  -0.71144
 Alpha  occ. eigenvalues --   -0.69362  -0.67788  -0.66694  -0.65303  -0.63857
 Alpha  occ. eigenvalues --   -0.63712  -0.62876  -0.62439  -0.60888  -0.60619
 Alpha  occ. eigenvalues --   -0.59947  -0.58713  -0.58289  -0.57895  -0.56937
 Alpha  occ. eigenvalues --   -0.56198  -0.55444  -0.55300  -0.54134  -0.53671
 Alpha  occ. eigenvalues --   -0.52983  -0.52880  -0.52637  -0.51638  -0.51383
 Alpha  occ. eigenvalues --   -0.50685  -0.50250  -0.49855  -0.49471  -0.49428
 Alpha  occ. eigenvalues --   -0.49024  -0.48840  -0.48412  -0.48196  -0.47862
 Alpha  occ. eigenvalues --   -0.47706  -0.47560  -0.46799  -0.46203  -0.45810
 Alpha  occ. eigenvalues --   -0.45672  -0.45600  -0.45443  -0.45273  -0.45141
 Alpha  occ. eigenvalues --   -0.44894  -0.44256  -0.44010  -0.43731  -0.43477
 Alpha  occ. eigenvalues --   -0.43276  -0.43025  -0.42561  -0.42399  -0.42136
 Alpha  occ. eigenvalues --   -0.41892  -0.41363  -0.41267  -0.41045  -0.40950
 Alpha  occ. eigenvalues --   -0.40865  -0.39993  -0.39972  -0.39358  -0.39061
 Alpha  occ. eigenvalues --   -0.38856  -0.38627  -0.38589  -0.38162  -0.37968
 Alpha  occ. eigenvalues --   -0.37025  -0.36864  -0.36653  -0.36541  -0.35975
 Alpha  occ. eigenvalues --   -0.35269  -0.34445  -0.34065  -0.32499  -0.32188
 Alpha  occ. eigenvalues --   -0.31177  -0.30238  -0.29053  -0.26735  -0.24027
 Alpha  occ. eigenvalues --   -0.19907
 Alpha virt. eigenvalues --   -0.05722  -0.01028   0.02305   0.06208   0.06948
 Alpha virt. eigenvalues --    0.08484   0.09730   0.10715   0.11389   0.11894
 Alpha virt. eigenvalues --    0.12140   0.12603   0.13431   0.13442   0.13806

 Mulliken charges:
               1
     1  O   -0.582926
     2  O   -0.539890
     3  C   -0.020782
     4  C   -0.012877
     5  C   -0.191490
     6  C   -0.139742
     7  C    0.212470
     8  C    0.093131
     9  C    0.104975
    10  C    0.075785
    11  C   -0.202291
    12  C   -0.195955
    13  C   -0.006407
    14  C    0.044494
    15  C   -0.307727
    16  C   -0.308585
    17  C   -0.296824
    18  C   -0.304465
    19  C   -0.139043
    20  C   -0.139638
    21  C   -0.367440
    22  C   -0.358897
    23  C   -0.087931
    24  C   -0.067262
    25  C    0.100534
    26  C    0.125984
    27  C   -0.391530
    28  C   -0.377275
    29  C   -0.120173
    30  C   -0.145224
    31  C   -0.077258
    32  C   -0.034819
    33  C   -0.106338
    34  C   -0.121560
    35  C    0.085486
    36  C    0.081442
    37  C   -0.368311
    38  C   -0.351663
    39  C   -0.124318
    40  C   -0.073314
    41  C   -0.037814
    42  C   -0.088747
    43  H    0.110202
    44  H    0.044448
    45  H    0.069212
    46  H    0.090166
    47  H    0.082322
    48  H    0.081721
    49  H    0.124399
    50  H    0.109434
    51  H    0.130768
    52  H    0.120277
    53  H    0.094653
    54  H    0.112572
    55  H    0.113376
    56  H    0.095404
    57  H    0.114629
    58  H    0.074384
    59  H    0.093224
    60  H    0.087673
    61  H    0.110686
    62  H    0.103630
    63  H    0.086604
    64  H    0.084729
    65  H    0.090816
    66  H    0.104324
    67  H    0.122517
    68  H    0.114116
    69  H    0.107994
    70  H    0.089661
    71  H    0.105328
    72  H    0.092699
    73  H    0.301679
    74  H    0.289464
    75  H    0.091828
    76  H    0.097910
    77  H    0.103205
    78  H    0.119614
    79  H    0.108697
    80  H    0.107417
    81  H    0.125704
    82  H    0.098799
    83  H    0.076519
    84  H    0.051289
    85  H    0.067766
    86  H    0.046204
    87  H    0.083681
    88  H    0.083852
    89  H    0.134169
    90  H    0.121840
    91  H    0.093619
    92  H    0.096202
    93  H    0.132424
    94  H    0.114059
    95  H    0.051374
    96  H    0.071369
    97  H    0.062375
    98  H    0.071189
 Sum of Mulliken charges =  -0.00000

 Dipole moment (field-independent basis, Debye):
    X=              0.1652    Y=             -0.7766    Z=              2.4373  Tot=              2.5633
 Quadrupole moment (field-independent basis, Debye-Ang):
   XX=           -278.9786   YY=           -246.8103   ZZ=           -259.2318
   XY=              9.1055   XZ=             -7.6814   YZ=              3.9754

 Normal termination of Gaussian 16 at Thu Jul 11 23:52:09 2019.
