 Gaussian 16, Revision A.03,
 Gaussian 16:  ES64L-G16RevA.03 25-Dec-2016

 -------------------------------------
 # td=(NStates=1) CAM-B3LYP/6-31G(d,p)
 -------------------------------------

 --
 TD
 --
 Symbolic Z-matrix:
 Charge =  0 Multiplicity = 1

                         Standard orientation:
 ---------------------------------------------------------------------
 Center     Atomic      Atomic             Coordinates (Angstroms)
 Number     Number       Type             X           Y           Z
 ---------------------------------------------------------------------
      1          8           0       14.708366   -2.173091   -0.276721
      2          8           0      -14.841312    1.823294    0.914619
      3          6           0       11.213428   -1.394365    0.991733
      4          6           0      -12.301484   -1.056382    0.630516
      5          6           0       12.680510   -1.740164    1.030404
      6          6           0      -13.657330   -0.219875    0.708350
      7          6           0       13.386617   -1.986571   -0.309238
      8          6           0      -13.531120    1.289940    0.898331
      9          6           0       10.902620   -0.347853   -0.007389
     10          6           0      -11.247331   -0.252556   -0.168101
     11          6           0       13.246982   -0.541895   -1.069087
     12          6           0      -12.814447    1.746728   -0.236503
     13          6           0       11.810892    0.074462   -1.005910
     14          6           0      -11.534646    0.977766   -0.613403
     15          6           0       10.924216   -0.909434    2.432190
     16          6           0       10.369074   -2.664733    0.682335
     17          6           0      -11.678777   -1.295160    2.067376
     18          6           0      -12.557092   -2.392618    0.092703
     19          6           0        9.605183    0.313050    0.153405
     20          6           0      -10.005685   -0.989108   -0.381591
     21          6           0       11.487768    1.229300   -2.027171
     22          6           0      -10.722342    1.877157   -1.583060
     23          6           0        9.356175    1.598530   -0.078255
     24          6           0       -8.831020   -0.520552   -0.394123
     25          6           0        8.119191    2.266698    0.174628
     26          6           0       -7.602987   -1.183919   -0.611074
     27          6           0        8.187159    3.727333    0.560448
     28          6           0       -7.656010   -2.631915   -1.059774
     29          6           0        6.902827    1.449555    0.262450
     30          6           0       -6.428984   -0.582287   -0.438574
     31          6           0        5.586262    2.023815    0.406549
     32          6           0       -5.105057   -1.105592   -0.589791
     33          6           0        4.430842    1.373628    0.158072
     34          6           0       -3.967219   -0.370081   -0.395652
     35          6           0        3.087735    1.759267    0.158827
     36          6           0       -2.582432   -0.791456   -0.560696
     37          6           0        2.815052    3.096094    0.470338
     38          6           0       -2.329002   -2.255966   -0.834764
     39          6           0        2.062817    0.756332   -0.024967
     40          6           0       -1.566635    0.182134   -0.364960
     41          6           0        0.702407    0.961111   -0.150813
     42          6           0       -0.205754   -0.117379   -0.318265
     43          1           0       13.422196   -1.056124    1.464435
     44          1           0       12.788299   -2.731630    1.360928
     45          1           0      -14.095453   -0.471319    1.661080
     46          1           0      -14.476171   -0.388653   -0.162378
     47          1           0       12.846873   -2.893810   -0.885921
     48          1           0      -12.936592    1.387477    1.794269
     49          1           0       13.951466    0.138987   -0.588093
     50          1           0       13.525237   -0.641217   -2.070248
     51          1           0      -13.445886    1.860571   -0.880091
     52          1           0      -12.521660    2.849098    0.204703
     53          1           0       11.144228   -1.548780    3.202359
     54          1           0        9.706446   -0.881388    2.493598
     55          1           0       11.388288    0.140161    2.679604
     56          1           0       10.457662   -2.997934   -0.504019
     57          1           0       10.774235   -3.482308    1.364221
     58          1           0        9.367134   -2.411411    0.680958
     59          1           0      -11.564825   -0.294054    2.600639
     60          1           0      -10.671947   -1.930212    1.955219
     61          1           0      -12.313241   -1.836571    2.742097
     62          1           0      -13.403714   -2.682234    0.906855
     63          1           0      -11.817485   -3.167251    0.163472
     64          1           0      -12.787943   -2.316418   -1.010882
     65          1           0        8.909795   -0.122167    0.824670
     66          1           0      -10.249113   -1.846249   -0.600938
     67          1           0       10.408603    1.154600   -2.366865
     68          1           0       11.723006    2.194101   -1.670402
     69          1           0       12.252295    0.891933   -2.778981
     70          1           0      -11.295681    2.181290   -2.593028
     71          1           0       -9.852937    0.937995   -2.009113
     72          1           0      -10.064641    2.805271   -1.142363
     73          1           0       14.873410   -3.194886   -0.024331
     74          1           0      -15.353156    1.440931    1.618919
     75          1           0       10.150573    2.097911   -0.617117
     76          1           0       -8.710879    0.472795   -0.180750
     77          1           0        9.224040    4.180815    0.683260
     78          1           0        7.536361    4.127148   -0.263975
     79          1           0        7.541076    4.052333    1.434442
     80          1           0       -8.655038   -2.959318   -0.504628
     81          1           0       -7.974865   -2.805748   -2.153845
     82          1           0       -6.662381   -3.259068   -0.898601
     83          1           0        7.158306    0.369899   -0.237327
     84          1           0       -6.355468    0.426413   -0.119528
     85          1           0        5.359253    3.194661    0.796037
     86          1           0       -4.928415   -2.193263   -0.856428
     87          1           0        4.585205    0.314216    0.030656
     88          1           0       -3.898028    0.717682   -0.247726
     89          1           0        3.135051    3.177734    1.448845
     90          1           0        1.890099    3.669446    0.503778
     91          1           0        3.390826    3.869027   -0.122221
     92          1           0       -2.820774   -2.840587   -0.181222
     93          1           0       -2.956911   -2.533651   -1.670764
     94          1           0       -1.207540   -2.423778   -1.053859
     95          1           0        2.527952   -0.208188   -0.517965
     96          1           0       -2.040631    1.231571   -0.264806
     97          1           0        0.601569    2.060367   -0.106622
     98          1           0        0.171044   -1.146070   -0.366164
 ---------------------------------------------------------------------

 SCF Done:  E(RCAM-B3LYP) =  -1706.87795076     A.U. after   15 cycles

 Excitation energies and oscillator strengths:

 Excited State   1:      Singlet-A      2.1242 eV  583.68 nm  f=3.5591  <S**2>=0.000
     155 ->158         0.14968
     156 ->157         0.69147
 This state for optimization and/or second-order correction.
 Total Energy, E(TD-HF/TD-DFT) =  -1706.79988834
 Copying the excited state density for this state as the 1-particle RhoCI density.

 The electronic state is 1-A.
 Alpha  occ. eigenvalues --  -19.23262 -19.21349 -10.31339 -10.28868 -10.28692
 Alpha  occ. eigenvalues --  -10.28266 -10.27844 -10.27682 -10.27664 -10.27423
 Alpha  occ. eigenvalues --  -10.27388 -10.27232 -10.27226 -10.27214 -10.27209
 Alpha  occ. eigenvalues --  -10.26957 -10.26811 -10.26797 -10.26615 -10.26580
 Alpha  occ. eigenvalues --  -10.26433 -10.26245 -10.26199 -10.26163 -10.25902
 Alpha  occ. eigenvalues --  -10.25899 -10.25785 -10.25699 -10.25641 -10.25576
 Alpha  occ. eigenvalues --  -10.25300 -10.25185 -10.25015 -10.24972 -10.24907
 Alpha  occ. eigenvalues --  -10.24876 -10.24783 -10.24758 -10.23966 -10.23786
 Alpha  occ. eigenvalues --  -10.23134 -10.23008  -1.11959  -1.10216  -0.94167
 Alpha  occ. eigenvalues --   -0.93438  -0.92513  -0.91878  -0.90641  -0.90004
 Alpha  occ. eigenvalues --   -0.87807  -0.87249  -0.86251  -0.85758  -0.84402
 Alpha  occ. eigenvalues --   -0.83033  -0.82289  -0.80171  -0.79742  -0.79181
 Alpha  occ. eigenvalues --   -0.76416  -0.76336  -0.76013  -0.75685  -0.75587
 Alpha  occ. eigenvalues --   -0.75073  -0.74953  -0.74594  -0.72939  -0.70610
 Alpha  occ. eigenvalues --   -0.68845  -0.67456  -0.65534  -0.64834  -0.64338
 Alpha  occ. eigenvalues --   -0.63993  -0.62570  -0.61440  -0.60636  -0.60082
 Alpha  occ. eigenvalues --   -0.59800  -0.59033  -0.58895  -0.57955  -0.56890
 Alpha  occ. eigenvalues --   -0.56098  -0.56030  -0.55097  -0.54497  -0.53701
 Alpha  occ. eigenvalues --   -0.53013  -0.52630  -0.51769  -0.51445  -0.50723
 Alpha  occ. eigenvalues --   -0.50449  -0.50156  -0.50053  -0.49830  -0.49395
 Alpha  occ. eigenvalues --   -0.49271  -0.48694  -0.48558  -0.48360  -0.48074
 Alpha  occ. eigenvalues --   -0.47703  -0.47141  -0.46760  -0.46511  -0.46235
 Alpha  occ. eigenvalues --   -0.46026  -0.45544  -0.45524  -0.45426  -0.44865
 Alpha  occ. eigenvalues --   -0.44842  -0.44479  -0.43683  -0.43583  -0.43453
 Alpha  occ. eigenvalues --   -0.43397  -0.42777  -0.42074  -0.41951  -0.41762
 Alpha  occ. eigenvalues --   -0.41596  -0.41381  -0.41200  -0.41136  -0.40338
 Alpha  occ. eigenvalues --   -0.40123  -0.39954  -0.39556  -0.39334  -0.39054
 Alpha  occ. eigenvalues --   -0.38782  -0.38529  -0.38443  -0.37706  -0.37537
 Alpha  occ. eigenvalues --   -0.37048  -0.36815  -0.36626  -0.36512  -0.36035
 Alpha  occ. eigenvalues --   -0.35451  -0.34375  -0.33542  -0.32293  -0.31714
 Alpha  occ. eigenvalues --   -0.30742  -0.29873  -0.28142  -0.25934  -0.23426
 Alpha  occ. eigenvalues --   -0.18902
 Alpha virt. eigenvalues --   -0.05816  -0.00749   0.02343   0.05986   0.07904
 Alpha virt. eigenvalues --    0.09235   0.09892   0.11208   0.11932   0.12322
 Alpha virt. eigenvalues --    0.12408   0.12753   0.12929   0.13288   0.13946

 Mulliken charges:
               1
     1  O   -0.523464
     2  O   -0.560863
     3  C   -0.023160
     4  C   -0.031227
     5  C   -0.159300
     6  C   -0.205748
     7  C    0.147093
     8  C    0.163120
     9  C    0.090430
    10  C    0.075996
    11  C   -0.227503
    12  C   -0.153540
    13  C   -0.000789
    14  C    0.016315
    15  C   -0.284168
    16  C   -0.295866
    17  C   -0.302315
    18  C   -0.282934
    19  C   -0.116400
    20  C   -0.079720
    21  C   -0.371849
    22  C   -0.332954
    23  C   -0.099839
    24  C   -0.055328
    25  C    0.074143
    26  C    0.129583
    27  C   -0.368082
    28  C   -0.364559
    29  C   -0.146705
    30  C   -0.127062
    31  C   -0.096446
    32  C   -0.101255
    33  C   -0.108038
    34  C   -0.102382
    35  C    0.138739
    36  C    0.096205
    37  C   -0.427295
    38  C   -0.374120
    39  C   -0.144817
    40  C   -0.113777
    41  C   -0.064425
    42  C   -0.111056
    43  H    0.103907
    44  H    0.067052
    45  H    0.069915
    46  H    0.089368
    47  H    0.044401
    48  H    0.078988
    49  H    0.120140
    50  H    0.105693
    51  H    0.112955
    52  H    0.070702
    53  H    0.114190
    54  H    0.067690
    55  H    0.103453
    56  H    0.082233
    57  H    0.100578
    58  H    0.118068
    59  H    0.095783
    60  H    0.099558
    61  H    0.102295
    62  H    0.086235
    63  H    0.107566
    64  H    0.101285
    65  H    0.088505
    66  H    0.051574
    67  H    0.132828
    68  H    0.138168
    69  H    0.096767
    70  H    0.106908
    71  H    0.058093
    72  H    0.105538
    73  H    0.310466
    74  H    0.305733
    75  H    0.080670
    76  H    0.082865
    77  H    0.115365
    78  H    0.129570
    79  H    0.126125
    80  H    0.093663
    81  H    0.115872
    82  H    0.102472
    83  H    0.094145
    84  H    0.077748
    85  H    0.066041
    86  H    0.065887
    87  H    0.075709
    88  H    0.071356
    89  H    0.144307
    90  H    0.119077
    91  H    0.117133
    92  H    0.135426
    93  H    0.122306
    94  H    0.101687
    95  H    0.071187
    96  H    0.085702
    97  H    0.090851
    98  H    0.103561
 Sum of Mulliken charges =  -0.00000

 Dipole moment (field-independent basis, Debye):
    X=              2.1990    Y=             -1.5540    Z=              1.4333  Tot=              3.0504
 Quadrupole moment (field-independent basis, Debye-Ang):
   XX=           -252.6820   YY=           -240.0718   ZZ=           -262.9640
   XY=              4.2699   XZ=            -10.3043   YZ=              2.6594

 Normal termination of Gaussian 16 at Sat Jul 13 09:29:00 2019.
