 Gaussian 16, Revision A.03,
 Gaussian 16:  ES64L-G16RevA.03 25-Dec-2016

 -------------------------------------
 # td=(NStates=1) CAM-B3LYP/6-31G(d,p)
 -------------------------------------

 --
 TD
 --
 Symbolic Z-matrix:
 Charge =  0 Multiplicity = 1

                         Standard orientation:
 ---------------------------------------------------------------------
 Center     Atomic      Atomic             Coordinates (Angstroms)
 Number     Number       Type             X           Y           Z
 ---------------------------------------------------------------------
      1          8           0       14.567025   -2.433899   -0.340198
      2          8           0      -14.869763    1.826433    1.078933
      3          6           0       11.110712   -1.480804    0.988600
      4          6           0      -12.369733   -1.118536    0.487490
      5          6           0       12.627534   -1.901256    0.978868
      6          6           0      -13.837325   -0.354533    0.796125
      7          6           0       13.200428   -1.990910   -0.395074
      8          6           0      -13.618494    1.168278    0.943853
      9          6           0       11.000732   -0.230907    0.067188
     10          6           0      -11.340892   -0.239349   -0.367448
     11          6           0       13.244693   -0.600374   -0.863442
     12          6           0      -12.799329    1.802722   -0.264616
     13          6           0       11.907808    0.067533   -0.888335
     14          6           0      -11.607200    0.991869   -0.633340
     15          6           0       10.796909   -0.986931    2.389193
     16          6           0       10.208862   -2.655972    0.463442
     17          6           0      -11.780152   -1.465848    1.905615
     18          6           0      -12.721364   -2.415562   -0.229814
     19          6           0        9.647238    0.384089    0.156501
     20          6           0      -10.050410   -0.874046   -0.652410
     21          6           0       11.696353    1.208813   -1.779234
     22          6           0      -10.623628    1.893785   -1.431845
     23          6           0        9.439154    1.748321    0.152887
     24          6           0       -8.823069   -0.456935   -0.314674
     25          6           0        8.176774    2.324391    0.266090
     26          6           0       -7.577086   -1.130945   -0.565532
     27          6           0        8.069050    3.865845    0.399176
     28          6           0       -7.582700   -2.548672   -1.015583
     29          6           0        6.997805    1.603954    0.008166
     30          6           0       -6.391451   -0.482025   -0.270563
     31          6           0        5.654488    2.133529    0.150784
     32          6           0       -5.103007   -0.861251   -0.477796
     33          6           0        4.546614    1.279408   -0.001795
     34          6           0       -3.895431   -0.196738   -0.385137
     35          6           0        3.174479    1.515537    0.094883
     36          6           0       -2.540907   -0.712259   -0.403900
     37          6           0        2.850104    2.967203    0.418865
     38          6           0       -2.189521   -2.186087   -0.728930
     39          6           0        2.256827    0.618214   -0.125739
     40          6           0       -1.562398    0.216483   -0.198363
     41          6           0        0.840064    0.910937   -0.123724
     42          6           0       -0.191877   -0.016774   -0.358745
     43          1           0       13.301374   -1.222084    1.445922
     44          1           0       12.753869   -3.101904    1.370775
     45          1           0      -14.243376   -0.875674    1.726821
     46          1           0      -14.395634   -0.429655   -0.160525
     47          1           0       12.516302   -2.427672   -1.199184
     48          1           0      -13.012658    1.274174    2.011000
     49          1           0       13.980117    0.131642   -0.213881
     50          1           0       13.557200   -0.388299   -1.921829
     51          1           0      -13.552356    1.898435   -1.024275
     52          1           0      -12.446490    2.771578    0.002715
     53          1           0       10.924290   -1.777485    3.126921
     54          1           0        9.801968   -0.593355    2.561793
     55          1           0       11.509504   -0.010385    2.673179
     56          1           0       10.699919   -3.227346   -0.547471
     57          1           0       10.304990   -3.191230    1.301164
     58          1           0        9.190568   -2.343961    0.314440
     59          1           0      -11.762783   -0.578350    2.697592
     60          1           0      -10.595767   -2.183001    1.819849
     61          1           0      -12.559261   -2.027306    2.468836
     62          1           0      -13.459111   -2.890483    0.212567
     63          1           0      -11.824007   -3.098982    0.116258
     64          1           0      -12.888009   -2.291720   -1.159819
     65          1           0        8.967633   -0.466300    0.335782
     66          1           0      -10.305413   -1.908267   -0.997186
     67          1           0       10.629019    1.524840   -1.840332
     68          1           0       12.141427    2.245561   -1.228734
     69          1           0       12.243299    1.004097   -2.810983
     70          1           0      -11.137067    2.595719   -2.056495
     71          1           0       -9.850806    1.233619   -1.950776
     72          1           0      -10.159621    2.484256   -0.669406
     73          1           0       14.527541   -3.541225   -0.287525
     74          1           0      -15.263451    1.457634    1.720157
     75          1           0       10.453653    2.363793    0.153990
     76          1           0       -8.614153    0.453705    0.192956
     77          1           0        9.096058    4.548194    0.476138
     78          1           0        7.424935    4.143089   -0.444412
     79          1           0        7.352118    3.989928    1.329632
     80          1           0       -8.157399   -3.232832   -0.509781
     81          1           0       -8.268208   -2.540870   -2.011249
     82          1           0       -6.600947   -2.984884   -1.170480
     83          1           0        7.093934    0.440025    0.035938
     84          1           0       -6.595229    0.505134    0.188492
     85          1           0        5.643315    3.107171    0.421471
     86          1           0       -5.077093   -2.041295   -0.580441
     87          1           0        4.727167    0.169519   -0.127888
     88          1           0       -4.138125    0.908944   -0.084066
     89          1           0        3.679652    3.300618    1.286009
     90          1           0        1.953318    3.277444    0.981535
     91          1           0        2.995943    3.818600   -0.442351
     92          1           0       -2.644194   -2.556863    0.231140
     93          1           0       -2.683764   -2.824450   -1.705736
     94          1           0       -1.096903   -2.314603   -0.540336
     95          1           0        2.552087   -0.547723   -0.280588
     96          1           0       -1.880449    1.309846    0.122664
     97          1           0        0.404787    1.889472    0.058406
     98          1           0        0.164261   -1.134283   -0.478398
 ---------------------------------------------------------------------

 SCF Done:  E(RCAM-B3LYP) =  -1706.88638256     A.U. after   15 cycles

 Excitation energies and oscillator strengths:

 Excited State   1:      Singlet-A      2.2893 eV  541.59 nm  f=3.7114  <S**2>=0.000
     155 ->158        -0.18370
     156 ->157         0.67886
 This state for optimization and/or second-order correction.
 Total Energy, E(TD-HF/TD-DFT) =  -1706.80225354
 Copying the excited state density for this state as the 1-particle RhoCI density.

 The electronic state is 1-A.
 Alpha  occ. eigenvalues --  -19.22644 -19.20176 -10.32062 -10.30294 -10.28764
 Alpha  occ. eigenvalues --  -10.28518 -10.28328 -10.28270 -10.28025 -10.27831
 Alpha  occ. eigenvalues --  -10.27660 -10.27522 -10.27487 -10.27486 -10.27377
 Alpha  occ. eigenvalues --  -10.27238 -10.26973 -10.26952 -10.26884 -10.26826
 Alpha  occ. eigenvalues --  -10.26717 -10.26715 -10.26667 -10.26621 -10.26418
 Alpha  occ. eigenvalues --  -10.26396 -10.26330 -10.26293 -10.26246 -10.26098
 Alpha  occ. eigenvalues --  -10.25987 -10.25897 -10.25737 -10.25624 -10.25580
 Alpha  occ. eigenvalues --  -10.25572 -10.25506 -10.25453 -10.25226 -10.24981
 Alpha  occ. eigenvalues --  -10.24410 -10.23061  -1.12511  -1.07410  -0.93890
 Alpha  occ. eigenvalues --   -0.93130  -0.92368  -0.91757  -0.90758  -0.90242
 Alpha  occ. eigenvalues --   -0.87237  -0.87057  -0.86718  -0.85721  -0.84647
 Alpha  occ. eigenvalues --   -0.83218  -0.81949  -0.80042  -0.79558  -0.77321
 Alpha  occ. eigenvalues --   -0.77115  -0.76738  -0.76564  -0.75751  -0.75112
 Alpha  occ. eigenvalues --   -0.74684  -0.74597  -0.74489  -0.73321  -0.70968
 Alpha  occ. eigenvalues --   -0.69337  -0.67405  -0.66081  -0.64661  -0.64130
 Alpha  occ. eigenvalues --   -0.63345  -0.62778  -0.60844  -0.59947  -0.59394
 Alpha  occ. eigenvalues --   -0.59212  -0.58745  -0.58043  -0.57703  -0.56186
 Alpha  occ. eigenvalues --   -0.55296  -0.54917  -0.54321  -0.53849  -0.53292
 Alpha  occ. eigenvalues --   -0.53022  -0.52300  -0.52180  -0.51491  -0.51293
 Alpha  occ. eigenvalues --   -0.50154  -0.49853  -0.49553  -0.49049  -0.48904
 Alpha  occ. eigenvalues --   -0.48789  -0.48321  -0.47837  -0.47678  -0.47482
 Alpha  occ. eigenvalues --   -0.47100  -0.46812  -0.46585  -0.46410  -0.46375
 Alpha  occ. eigenvalues --   -0.45895  -0.45721  -0.45347  -0.44863  -0.44803
 Alpha  occ. eigenvalues --   -0.44546  -0.44395  -0.44166  -0.43708  -0.43316
 Alpha  occ. eigenvalues --   -0.43009  -0.42895  -0.42681  -0.42392  -0.42285
 Alpha  occ. eigenvalues --   -0.42118  -0.41417  -0.41069  -0.40906  -0.40506
 Alpha  occ. eigenvalues --   -0.40443  -0.39773  -0.39648  -0.39205  -0.39118
 Alpha  occ. eigenvalues --   -0.38872  -0.38751  -0.38585  -0.38534  -0.37855
 Alpha  occ. eigenvalues --   -0.37777  -0.37112  -0.36815  -0.36334  -0.35505
 Alpha  occ. eigenvalues --   -0.35115  -0.34587  -0.33926  -0.32650  -0.32432
 Alpha  occ. eigenvalues --   -0.31419  -0.29933  -0.28454  -0.26661  -0.23127
 Alpha  occ. eigenvalues --   -0.19859
 Alpha virt. eigenvalues --   -0.05592  -0.01713   0.02388   0.06003   0.07890
 Alpha virt. eigenvalues --    0.09072   0.09307   0.09824   0.11240   0.11423
 Alpha virt. eigenvalues --    0.11892   0.12364   0.12940   0.12960   0.13494

 Mulliken charges:
               1
     1  O   -0.559382
     2  O   -0.515513
     3  C   -0.035789
     4  C   -0.027936
     5  C   -0.144274
     6  C   -0.206639
     7  C    0.163833
     8  C    0.155232
     9  C    0.039010
    10  C    0.074574
    11  C   -0.198976
    12  C   -0.224530
    13  C    0.066896
    14  C    0.039737
    15  C   -0.299808
    16  C   -0.287349
    17  C   -0.278818
    18  C   -0.277652
    19  C   -0.081347
    20  C   -0.168722
    21  C   -0.360336
    22  C   -0.367515
    23  C   -0.134307
    24  C   -0.063048
    25  C    0.077355
    26  C    0.140205
    27  C   -0.372767
    28  C   -0.373033
    29  C   -0.112314
    30  C   -0.133355
    31  C   -0.074279
    32  C   -0.087667
    33  C   -0.132611
    34  C   -0.117019
    35  C    0.187106
    36  C    0.090568
    37  C   -0.369121
    38  C   -0.347831
    39  C   -0.149589
    40  C   -0.111065
    41  C   -0.095852
    42  C   -0.089678
    43  H    0.117681
    44  H    0.034244
    45  H    0.088848
    46  H    0.104312
    47  H    0.082079
    48  H    0.039500
    49  H    0.091721
    50  H    0.087699
    51  H    0.128849
    52  H    0.120432
    53  H    0.099640
    54  H    0.112110
    55  H    0.087149
    56  H    0.084708
    57  H    0.122406
    58  H    0.110317
    59  H    0.091573
    60  H    0.061272
    61  H    0.096541
    62  H    0.110135
    63  H    0.079343
    64  H    0.113607
    65  H    0.084562
    66  H    0.086891
    67  H    0.136901
    68  H    0.079324
    69  H    0.089044
    70  H    0.109491
    71  H    0.115425
    72  H    0.118871
    73  H    0.302351
    74  H    0.279882
    75  H    0.099520
    76  H    0.088342
    77  H    0.100880
    78  H    0.139255
    79  H    0.112503
    80  H    0.133913
    81  H    0.094229
    82  H    0.111146
    83  H    0.073351
    84  H    0.069379
    85  H    0.080704
    86  H    0.060000
    87  H    0.071781
    88  H    0.077036
    89  H    0.080311
    90  H    0.117481
    91  H    0.106115
    92  H    0.129480
    93  H    0.113035
    94  H    0.113674
    95  H    0.081145
    96  H    0.085249
    97  H    0.087399
    98  H    0.070770
 Sum of Mulliken charges =  -0.00000

 Dipole moment (field-independent basis, Debye):
    X=             -1.4470    Y=             -2.3066    Z=              1.6024  Tot=              3.1594
 Quadrupole moment (field-independent basis, Debye-Ang):
   XX=           -279.7661   YY=           -242.6676   ZZ=           -264.8209
   XY=              9.1624   XZ=             -8.7460   YZ=              3.2819

 Normal termination of Gaussian 16 at Thu Jul 18 17:08:27 2019.
