 Gaussian 16, Revision A.03,
 Gaussian 16:  ES64L-G16RevA.03 25-Dec-2016

 -------------------------------------
 # td=(NStates=1) CAM-B3LYP/6-31G(d,p)
 -------------------------------------

 --
 TD
 --
 Symbolic Z-matrix:
 Charge =  0 Multiplicity = 1

                         Standard orientation:
 ---------------------------------------------------------------------
 Center     Atomic      Atomic             Coordinates (Angstroms)
 Number     Number       Type             X           Y           Z
 ---------------------------------------------------------------------
      1          8           0       14.542786   -2.412489   -0.286752
      2          8           0      -14.861285    1.729319    0.900423
      3          6           0       11.143847   -1.448235    1.008893
      4          6           0      -12.387512   -1.042028    0.608522
      5          6           0       12.725973   -1.757730    1.070035
      6          6           0      -13.699075   -0.335489    0.687044
      7          6           0       13.220380   -1.972606   -0.347640
      8          6           0      -13.611682    1.176044    0.895502
      9          6           0       10.969222   -0.392224   -0.116029
     10          6           0      -11.315149   -0.297049   -0.240252
     11          6           0       13.291823   -0.671283   -1.046376
     12          6           0      -12.799721    1.733981   -0.420872
     13          6           0       11.877940   -0.037539   -1.033181
     14          6           0      -11.597742    0.957477   -0.679571
     15          6           0       10.697182   -0.975217    2.411577
     16          6           0       10.289137   -2.714952    0.689938
     17          6           0      -11.786377   -1.300580    1.997217
     18          6           0      -12.602865   -2.446016   -0.127541
     19          6           0        9.678680    0.313475    0.014664
     20          6           0      -10.049631   -0.920781   -0.575287
     21          6           0       11.570474    0.908843   -2.143494
     22          6           0      -10.637487    1.701986   -1.606307
     23          6           0        9.344476    1.632993   -0.069953
     24          6           0       -8.735473   -0.480938   -0.238984
     25          6           0        8.104028    2.322034    0.143493
     26          6           0       -7.545950   -1.264681   -0.535377
     27          6           0        8.060930    3.757222    0.423356
     28          6           0       -7.617660   -2.689734   -0.993821
     29          6           0        6.912673    1.621647    0.047735
     30          6           0       -6.349615   -0.581844   -0.198189
     31          6           0        5.594630    2.107990    0.305724
     32          6           0       -5.050081   -1.139687   -0.384334
     33          6           0        4.481141    1.332184    0.065068
     34          6           0       -3.928174   -0.331253   -0.151230
     35          6           0        3.170644    1.778158    0.157784
     36          6           0       -2.632025   -0.609062   -0.310943
     37          6           0        2.897984    3.278639    0.612275
     38          6           0       -2.166543   -2.020864   -0.995734
     39          6           0        2.180518    0.918880   -0.109040
     40          6           0       -1.615736    0.337299   -0.041736
     41          6           0        0.783692    1.079025    0.121049
     42          6           0       -0.203012    0.217390   -0.194202
     43          1           0       13.303010   -0.876027    1.643404
     44          1           0       12.964302   -2.690730    1.723419
     45          1           0      -14.383482   -0.743927    1.392695
     46          1           0      -14.153580   -0.415173   -0.420034
     47          1           0       12.538831   -2.633664   -0.677834
     48          1           0      -12.994434    1.432707    1.769404
     49          1           0       14.170367   -0.072295   -0.417403
     50          1           0       13.910570   -0.855975   -2.079756
     51          1           0      -13.506974    1.615712   -1.329724
     52          1           0      -12.363906    2.661144   -0.116104
     53          1           0       11.042293   -1.739126    3.174355
     54          1           0        9.755879   -0.732189    2.655113
     55          1           0       11.304895    0.009857    2.755876
     56          1           0       10.735657   -3.127008   -0.280074
     57          1           0       10.337709   -3.514743    1.501458
     58          1           0        9.300714   -2.436160    0.630004
     59          1           0      -11.635339   -0.407516    2.511413
     60          1           0      -10.794834   -1.601437    1.924289
     61          1           0      -12.445127   -1.978373    2.498008
     62          1           0      -13.400763   -3.241703    0.324126
     63          1           0      -11.720502   -3.060109    0.045472
     64          1           0      -12.701888   -2.402589   -1.078820
     65          1           0        8.864320   -0.250306    0.347641
     66          1           0      -10.099244   -2.087052   -1.024735
     67          1           0       10.456263    1.037528   -2.581374
     68          1           0       11.735997    2.002883   -1.672074
     69          1           0       12.181945    0.701796   -2.882475
     70          1           0      -11.201436    2.058938   -2.464961
     71          1           0       -9.653674    1.134576   -1.959540
     72          1           0      -10.156418    2.673226   -1.163627
     73          1           0       14.765266   -3.127564    0.305105
     74          1           0      -15.059269    1.750166    1.810772
     75          1           0       10.045325    2.361747   -0.485469
     76          1           0       -8.614550    0.507178    0.194142
     77          1           0        9.142712    4.078683    0.695790
     78          1           0        7.666049    4.443230   -0.460819
     79          1           0        7.429012    3.917342    1.209098
     80          1           0       -7.988010   -3.333011   -0.084037
     81          1           0       -8.632933   -2.861683   -1.744445
     82          1           0       -6.721652   -3.114693   -1.342051
     83          1           0        7.032171    0.470300   -0.208177
     84          1           0       -6.427954    0.393322   -0.015386
     85          1           0        5.519264    3.114545    0.578190
     86          1           0       -4.801162   -2.125316   -0.939676
     87          1           0        4.589793    0.401552   -0.209152
     88          1           0       -4.065611    0.691440    0.197345
     89          1           0        3.275956    3.503642    1.656955
     90          1           0        1.774107    3.695863    0.572275
     91          1           0        3.499948    3.933054   -0.045082
     92          1           0       -2.933368   -2.774279   -0.491616
     93          1           0       -2.278835   -2.118320   -2.192384
     94          1           0       -1.174813   -2.004542   -0.670891
     95          1           0        2.417763    0.095425   -0.747536
     96          1           0       -1.933641    1.272168    0.726218
     97          1           0        0.415048    1.960090    0.682395
     98          1           0        0.233057   -0.600081   -0.847763
 ---------------------------------------------------------------------

 SCF Done:  E(RCAM-B3LYP) =  -1706.98427252     A.U. after   15 cycles

 Excitation energies and oscillator strengths:

 Excited State   1:      Singlet-A      2.1641 eV  572.92 nm  f=3.8973  <S**2>=0.000
     155 ->158         0.16511
     156 ->157         0.68687
 This state for optimization and/or second-order correction.
 Total Energy, E(TD-HF/TD-DFT) =  -1706.90474420
 Copying the excited state density for this state as the 1-particle RhoCI density.

 The electronic state is 1-A.
 Alpha  occ. eigenvalues --  -19.21703 -19.20292 -10.30712 -10.28988 -10.28301
 Alpha  occ. eigenvalues --  -10.28208 -10.28155 -10.27933 -10.27879 -10.27548
 Alpha  occ. eigenvalues --  -10.27449 -10.27440 -10.27381 -10.27346 -10.27285
 Alpha  occ. eigenvalues --  -10.27274 -10.27051 -10.26959 -10.26658 -10.26622
 Alpha  occ. eigenvalues --  -10.26362 -10.26214 -10.26196 -10.26135 -10.26127
 Alpha  occ. eigenvalues --  -10.26104 -10.25995 -10.25813 -10.25793 -10.25756
 Alpha  occ. eigenvalues --  -10.25755 -10.25658 -10.25586 -10.25513 -10.25505
 Alpha  occ. eigenvalues --  -10.25470 -10.25365 -10.24965 -10.24778 -10.24750
 Alpha  occ. eigenvalues --  -10.24007 -10.22748  -1.12753  -1.09785  -0.93286
 Alpha  occ. eigenvalues --   -0.93272  -0.92504  -0.91597  -0.90686  -0.89756
 Alpha  occ. eigenvalues --   -0.87427  -0.86868  -0.86406  -0.85227  -0.84381
 Alpha  occ. eigenvalues --   -0.83064  -0.81544  -0.80544  -0.78879  -0.77343
 Alpha  occ. eigenvalues --   -0.77034  -0.76319  -0.76161  -0.75829  -0.75703
 Alpha  occ. eigenvalues --   -0.75311  -0.74576  -0.74541  -0.73382  -0.71008
 Alpha  occ. eigenvalues --   -0.69542  -0.67773  -0.66125  -0.65374  -0.64021
 Alpha  occ. eigenvalues --   -0.63470  -0.62966  -0.61284  -0.61060  -0.60565
 Alpha  occ. eigenvalues --   -0.60551  -0.60028  -0.58819  -0.57514  -0.56107
 Alpha  occ. eigenvalues --   -0.55374  -0.55284  -0.54790  -0.54088  -0.53722
 Alpha  occ. eigenvalues --   -0.53051  -0.52356  -0.52058  -0.51206  -0.50894
 Alpha  occ. eigenvalues --   -0.50198  -0.49801  -0.49548  -0.49206  -0.48991
 Alpha  occ. eigenvalues --   -0.48356  -0.48328  -0.48210  -0.48023  -0.47758
 Alpha  occ. eigenvalues --   -0.47449  -0.46973  -0.46800  -0.46370  -0.46305
 Alpha  occ. eigenvalues --   -0.45843  -0.45647  -0.45459  -0.45334  -0.44792
 Alpha  occ. eigenvalues --   -0.44568  -0.44428  -0.44178  -0.43941  -0.43860
 Alpha  occ. eigenvalues --   -0.43191  -0.43097  -0.42791  -0.42495  -0.42106
 Alpha  occ. eigenvalues --   -0.41912  -0.41665  -0.41121  -0.40755  -0.40580
 Alpha  occ. eigenvalues --   -0.40200  -0.40113  -0.39933  -0.39760  -0.39601
 Alpha  occ. eigenvalues --   -0.39389  -0.38998  -0.38363  -0.38079  -0.37713
 Alpha  occ. eigenvalues --   -0.37439  -0.37367  -0.36489  -0.36436  -0.35688
 Alpha  occ. eigenvalues --   -0.35389  -0.35060  -0.34189  -0.32319  -0.31820
 Alpha  occ. eigenvalues --   -0.31193  -0.29643  -0.28103  -0.26518  -0.23105
 Alpha  occ. eigenvalues --   -0.19376
 Alpha virt. eigenvalues --   -0.06074  -0.01529   0.02641   0.05210   0.07344
 Alpha virt. eigenvalues --    0.09003   0.11340   0.11709   0.12126   0.12730
 Alpha virt. eigenvalues --    0.12768   0.12935   0.13276   0.13731   0.13902

 Mulliken charges:
               1
     1  O   -0.578823
     2  O   -0.518003
     3  C   -0.026450
     4  C   -0.004038
     5  C   -0.194744
     6  C   -0.160598
     7  C    0.224116
     8  C    0.131980
     9  C    0.084843
    10  C    0.059331
    11  C   -0.216676
    12  C   -0.228796
    13  C    0.047395
    14  C    0.058041
    15  C   -0.296117
    16  C   -0.294080
    17  C   -0.301588
    18  C   -0.306491
    19  C   -0.116846
    20  C   -0.157888
    21  C   -0.342617
    22  C   -0.361813
    23  C   -0.097509
    24  C   -0.098582
    25  C    0.082720
    26  C    0.127795
    27  C   -0.373014
    28  C   -0.362091
    29  C   -0.109558
    30  C   -0.114413
    31  C   -0.093164
    32  C   -0.107412
    33  C   -0.077254
    34  C   -0.089511
    35  C    0.135724
    36  C    0.084920
    37  C   -0.373185
    38  C   -0.342833
    39  C   -0.155205
    40  C   -0.138781
    41  C   -0.075032
    42  C   -0.084059
    43  H    0.085582
    44  H    0.060945
    45  H    0.083876
    46  H    0.080809
    47  H    0.086148
    48  H    0.075709
    49  H    0.102142
    50  H    0.095426
    51  H    0.121877
    52  H    0.112443
    53  H    0.091224
    54  H    0.115688
    55  H    0.076982
    56  H    0.096123
    57  H    0.096843
    58  H    0.118282
    59  H    0.096796
    60  H    0.113303
    61  H    0.100369
    62  H    0.070571
    63  H    0.098704
    64  H    0.116593
    65  H    0.071640
    66  H    0.064212
    67  H    0.109838
    68  H    0.101134
    69  H    0.114607
    70  H    0.111396
    71  H    0.109736
    72  H    0.089307
    73  H    0.300037
    74  H    0.304931
    75  H    0.068718
    76  H    0.094418
    77  H    0.100315
    78  H    0.110208
    79  H    0.137591
    80  H    0.121314
    81  H    0.094247
    82  H    0.122969
    83  H    0.068676
    84  H    0.083992
    85  H    0.079287
    86  H    0.089123
    87  H    0.068584
    88  H    0.075906
    89  H    0.116075
    90  H    0.102550
    91  H    0.123422
    92  H    0.101357
    93  H    0.107120
    94  H    0.127073
    95  H    0.083921
    96  H    0.063714
    97  H    0.072122
    98  H    0.074334
 Sum of Mulliken charges =  -0.00000

 Dipole moment (field-independent basis, Debye):
    X=             -0.3578    Y=             -0.5478    Z=              1.9821  Tot=              2.0873
 Quadrupole moment (field-independent basis, Debye-Ang):
   XX=           -278.9500   YY=           -244.2194   ZZ=           -258.6808
   XY=             -1.1514   XZ=             -9.5137   YZ=              4.1797

 Normal termination of Gaussian 16 at Mon Jul 15 17:58:13 2019.
