 Gaussian 16, Revision A.03,
 Gaussian 16:  ES64L-G16RevA.03 25-Dec-2016

 -------------------------------------
 # td=(NStates=1) CAM-B3LYP/6-31G(d,p)
 -------------------------------------

 --
 TD
 --
 Symbolic Z-matrix:
 Charge =  0 Multiplicity = 1

                         Standard orientation:
 ---------------------------------------------------------------------
 Center     Atomic      Atomic             Coordinates (Angstroms)
 Number     Number       Type             X           Y           Z
 ---------------------------------------------------------------------
      1          8           0       14.676903   -2.066270   -0.085088
      2          8           0      -14.751351    1.900818    0.837013
      3          6           0       11.024383   -1.600589    0.970238
      4          6           0      -12.331699   -0.972643    0.642507
      5          6           0       12.547254   -1.848814    1.022619
      6          6           0      -13.690867   -0.255359    0.610188
      7          6           0       13.309069   -1.770997   -0.280675
      8          6           0      -13.506682    1.260440    0.944624
      9          6           0       10.870050   -0.340703    0.012253
     10          6           0      -11.209823   -0.237125   -0.082785
     11          6           0       13.206074   -0.425321   -0.837997
     12          6           0      -12.662907    1.881919   -0.161888
     13          6           0       11.801449    0.148967   -0.876787
     14          6           0      -11.383557    1.012855   -0.529921
     15          6           0       10.569460   -1.201598    2.358902
     16          6           0       10.296465   -2.727530    0.367644
     17          6           0      -11.931501   -1.345342    2.088808
     18          6           0      -12.634804   -2.249871   -0.199576
     19          6           0        9.648785    0.315395    0.133473
     20          6           0      -10.001894   -1.015092   -0.397489
     21          6           0       11.690940    1.222173   -1.812431
     22          6           0      -10.440548    1.967199   -1.208013
     23          6           0        9.279379    1.658115    0.181170
     24          6           0       -8.743351   -0.586170   -0.261342
     25          6           0        8.074561    2.364897    0.248538
     26          6           0       -7.489823   -1.310830   -0.515984
     27          6           0        7.921506    3.841155    0.403324
     28          6           0       -7.506748   -2.603359   -1.022746
     29          6           0        6.909469    1.608795    0.110484
     30          6           0       -6.371108   -0.670966   -0.215369
     31          6           0        5.577004    2.149631    0.055884
     32          6           0       -5.005593   -1.117410   -0.501360
     33          6           0        4.485078    1.404411   -0.107224
     34          6           0       -3.889014   -0.416453   -0.325834
     35          6           0        3.106985    1.713809   -0.048748
     36          6           0       -2.505573   -0.885041   -0.532044
     37          6           0        2.694113    3.115183    0.383689
     38          6           0       -2.262480   -2.306512   -1.059736
     39          6           0        2.098067    0.753157   -0.175905
     40          6           0       -1.596437   -0.007388   -0.334324
     41          6           0        0.789509    0.836751   -0.041732
     42          6           0       -0.183479   -0.156872   -0.381736
     43          1           0       13.112102   -1.305894    1.880297
     44          1           0       12.789144   -2.966974    1.527368
     45          1           0      -14.235794   -0.458195    1.484091
     46          1           0      -14.212185   -0.421320   -0.259727
     47          1           0       12.716553   -2.618252   -0.825177
     48          1           0      -12.863593    1.519369    1.721888
     49          1           0       13.846986    0.217169   -0.223059
     50          1           0       13.701475   -0.481789   -1.661516
     51          1           0      -13.235536    1.923900   -1.149290
     52          1           0      -12.330563    2.785686    0.565626
     53          1           0       10.922044   -1.948227    3.105108
     54          1           0        9.496240   -1.079033    2.353970
     55          1           0       10.915249   -0.391713    2.771365
     56          1           0       10.679171   -3.068449   -0.548503
     57          1           0       10.204012   -3.777403    0.964273
     58          1           0        9.202543   -2.479631    0.283645
     59          1           0      -11.666190   -0.434710    2.721858
     60          1           0      -10.965868   -1.886173    2.114492
     61          1           0      -12.618086   -1.878438    2.447382
     62          1           0      -13.587056   -2.870125   -0.080739
     63          1           0      -11.777374   -2.977234   -0.056850
     64          1           0      -12.545420   -2.196602   -1.402323
     65          1           0        8.753641   -0.193164    0.214891
     66          1           0      -10.163348   -2.079444   -0.749009
     67          1           0       10.647009    1.639197   -1.825895
     68          1           0       12.212212    1.985060   -1.229300
     69          1           0       12.193005    1.015080   -2.823165
     70          1           0      -10.954293    2.644606   -2.028912
     71          1           0       -9.617673    1.306001   -1.804036
     72          1           0       -9.708240    2.672073   -0.598184
     73          1           0       14.754931   -2.900255    0.447821
     74          1           0      -15.480452    1.801933    1.518895
     75          1           0       10.260187    2.162650    0.198227
     76          1           0       -8.378141    0.442402    0.127509
     77          1           0        8.909436    4.274559    0.661640
     78          1           0        7.436583    4.294718   -0.398641
     79          1           0        7.314727    4.101016    1.401197
     80          1           0       -7.966888   -3.498974   -0.412448
     81          1           0       -8.234508   -2.585974   -1.958908
     82          1           0       -6.748684   -3.010999   -1.603341
     83          1           0        7.195166    0.663935   -0.007279
     84          1           0       -6.376881    0.489061   -0.134217
     85          1           0        5.429962    3.288773    0.266544
     86          1           0       -4.850240   -2.209769   -1.089414
     87          1           0        4.937113    0.249516   -0.349305
     88          1           0       -4.158533    0.663033    0.055037
     89          1           0        3.146698    3.345437    1.322207
     90          1           0        1.624917    3.132484    0.440257
     91          1           0        3.060087    3.931603   -0.340215
     92          1           0       -2.673935   -3.018099   -0.407762
     93          1           0       -2.749568   -2.516581   -2.037687
     94          1           0       -1.214505   -2.675494   -1.341722
     95          1           0        2.532020   -0.138029   -0.491219
     96          1           0       -2.019521    0.923746    0.274845
     97          1           0        0.223239    1.768560    0.088840
     98          1           0        0.401940   -1.068195   -0.873033
 ---------------------------------------------------------------------

 SCF Done:  E(RCAM-B3LYP) =  -1706.92613106     A.U. after   15 cycles

 Excitation energies and oscillator strengths:

 Excited State   1:      Singlet-A      2.3254 eV  533.17 nm  f=3.2931  <S**2>=0.000
     155 ->158        -0.15079
     156 ->157         0.68818
 This state for optimization and/or second-order correction.
 Total Energy, E(TD-HF/TD-DFT) =  -1706.84067435
 Copying the excited state density for this state as the 1-particle RhoCI density.

 The electronic state is 1-A.
 Alpha  occ. eigenvalues --  -19.21589 -19.20792 -10.30390 -10.29082 -10.27987
 Alpha  occ. eigenvalues --  -10.27882 -10.27659 -10.27542 -10.27527 -10.27153
 Alpha  occ. eigenvalues --  -10.27140 -10.26998 -10.26952 -10.26939 -10.26911
 Alpha  occ. eigenvalues --  -10.26815 -10.26629 -10.26522 -10.26445 -10.26440
 Alpha  occ. eigenvalues --  -10.26330 -10.26328 -10.26256 -10.26221 -10.26214
 Alpha  occ. eigenvalues --  -10.26142 -10.25948 -10.25930 -10.25845 -10.25815
 Alpha  occ. eigenvalues --  -10.25712 -10.25693 -10.25439 -10.25433 -10.25226
 Alpha  occ. eigenvalues --  -10.25165 -10.24868 -10.24805 -10.23725 -10.23408
 Alpha  occ. eigenvalues --  -10.23205 -10.23086  -1.09479  -1.08272  -0.94361
 Alpha  occ. eigenvalues --   -0.93409  -0.92628  -0.92159  -0.91567  -0.90746
 Alpha  occ. eigenvalues --   -0.88649  -0.87299  -0.86274  -0.85680  -0.85059
 Alpha  occ. eigenvalues --   -0.83804  -0.82155  -0.81064  -0.79910  -0.78694
 Alpha  occ. eigenvalues --   -0.77741  -0.77225  -0.76998  -0.76772  -0.76119
 Alpha  occ. eigenvalues --   -0.75742  -0.75076  -0.74474  -0.74191  -0.70908
 Alpha  occ. eigenvalues --   -0.68946  -0.67605  -0.65723  -0.65245  -0.64009
 Alpha  occ. eigenvalues --   -0.63771  -0.62732  -0.60812  -0.60223  -0.59551
 Alpha  occ. eigenvalues --   -0.59424  -0.58913  -0.58765  -0.58218  -0.56415
 Alpha  occ. eigenvalues --   -0.55753  -0.55712  -0.55007  -0.54633  -0.53854
 Alpha  occ. eigenvalues --   -0.53491  -0.52868  -0.52670  -0.52016  -0.51416
 Alpha  occ. eigenvalues --   -0.50868  -0.50396  -0.50178  -0.50011  -0.49516
 Alpha  occ. eigenvalues --   -0.49363  -0.48669  -0.48655  -0.48469  -0.48020
 Alpha  occ. eigenvalues --   -0.47913  -0.47647  -0.47246  -0.47089  -0.46368
 Alpha  occ. eigenvalues --   -0.46128  -0.45320  -0.45162  -0.44979  -0.44877
 Alpha  occ. eigenvalues --   -0.44762  -0.43956  -0.43761  -0.43420  -0.42985
 Alpha  occ. eigenvalues --   -0.42853  -0.42703  -0.42421  -0.41715  -0.41522
 Alpha  occ. eigenvalues --   -0.41464  -0.41419  -0.41042  -0.40489  -0.40337
 Alpha  occ. eigenvalues --   -0.40102  -0.40077  -0.39998  -0.39662  -0.38990
 Alpha  occ. eigenvalues --   -0.38526  -0.38350  -0.38262  -0.37853  -0.37397
 Alpha  occ. eigenvalues --   -0.37206  -0.37001  -0.36549  -0.36403  -0.35675
 Alpha  occ. eigenvalues --   -0.35615  -0.34583  -0.33616  -0.32987  -0.31735
 Alpha  occ. eigenvalues --   -0.30424  -0.29958  -0.28979  -0.26130  -0.23941
 Alpha  occ. eigenvalues --   -0.19879
 Alpha virt. eigenvalues --   -0.05588  -0.00643   0.02032   0.06416   0.07768
 Alpha virt. eigenvalues --    0.09767   0.11312   0.11755   0.12107   0.12408
 Alpha virt. eigenvalues --    0.12676   0.13017   0.13183   0.13388   0.13755

 Mulliken charges:
               1
     1  O   -0.566402
     2  O   -0.580077
     3  C    0.022010
     4  C   -0.022898
     5  C   -0.203226
     6  C   -0.165053
     7  C    0.183799
     8  C    0.165212
     9  C    0.049928
    10  C    0.092468
    11  C   -0.190531
    12  C   -0.198861
    13  C    0.052180
    14  C    0.031249
    15  C   -0.297269
    16  C   -0.293272
    17  C   -0.291728
    18  C   -0.329968
    19  C   -0.110038
    20  C   -0.156690
    21  C   -0.371336
    22  C   -0.345803
    23  C   -0.154768
    24  C   -0.077625
    25  C    0.114202
    26  C    0.196936
    27  C   -0.374075
    28  C   -0.400597
    29  C   -0.092659
    30  C   -0.175047
    31  C   -0.081668
    32  C   -0.085315
    33  C   -0.102134
    34  C   -0.119505
    35  C    0.078590
    36  C    0.158225
    37  C   -0.368952
    38  C   -0.385259
    39  C   -0.090046
    40  C   -0.142844
    41  C   -0.081911
    42  C   -0.108250
    43  H    0.087737
    44  H    0.027902
    45  H    0.082814
    46  H    0.110138
    47  H    0.063731
    48  H    0.084099
    49  H    0.121179
    50  H    0.109740
    51  H    0.116796
    52  H    0.089743
    53  H    0.091533
    54  H    0.100515
    55  H    0.121414
    56  H    0.118502
    57  H    0.077857
    58  H    0.102687
    59  H    0.096016
    60  H    0.104331
    61  H    0.113457
    62  H    0.100453
    63  H    0.089950
    64  H    0.091723
    65  H    0.064346
    66  H    0.091536
    67  H    0.121548
    68  H    0.129447
    69  H    0.113252
    70  H    0.098819
    71  H    0.086962
    72  H    0.107761
    73  H    0.308789
    74  H    0.306978
    75  H    0.061190
    76  H    0.080317
    77  H    0.106831
    78  H    0.139717
    79  H    0.106545
    80  H    0.112393
    81  H    0.098234
    82  H    0.125815
    83  H    0.061877
    84  H    0.080391
    85  H    0.078677
    86  H    0.062884
    87  H    0.059613
    88  H    0.077470
    89  H    0.128090
    90  H    0.113200
    91  H    0.106140
    92  H    0.135219
    93  H    0.119169
    94  H    0.112099
    95  H    0.076211
    96  H    0.081951
    97  H    0.085625
    98  H    0.077594
 Sum of Mulliken charges =  -0.00000

 Dipole moment (field-independent basis, Debye):
    X=             -1.0888    Y=             -1.4507    Z=              1.1696  Tot=              2.1583
 Quadrupole moment (field-independent basis, Debye-Ang):
   XX=           -258.3519   YY=           -244.9471   ZZ=           -259.4998
   XY=             11.6945   XZ=             -9.6636   YZ=              5.9400

 Normal termination of Gaussian 16 at Wed Jul 17 05:28:33 2019.
