 Gaussian 16, Revision A.03,
 Gaussian 16:  ES64L-G16RevA.03 25-Dec-2016

 -------------------------------------
 # td=(NStates=1) CAM-B3LYP/6-31G(d,p)
 -------------------------------------

 --
 TD
 --
 Symbolic Z-matrix:
 Charge =  0 Multiplicity = 1

                         Standard orientation:
 ---------------------------------------------------------------------
 Center     Atomic      Atomic             Coordinates (Angstroms)
 Number     Number       Type             X           Y           Z
 ---------------------------------------------------------------------
      1          8           0       14.797853   -2.090149   -0.180624
      2          8           0      -14.736996    1.897149    0.856351
      3          6           0       11.186495   -1.398507    1.017411
      4          6           0      -12.353818   -1.019025    0.808370
      5          6           0       12.673646   -1.789982    1.040475
      6          6           0      -13.628674   -0.212881    0.770130
      7          6           0       13.346225   -1.918486   -0.264259
      8          6           0      -13.485117    1.206042    0.944319
      9          6           0       10.909568   -0.236262    0.057079
     10          6           0      -11.287603   -0.261454   -0.129699
     11          6           0       13.227505   -0.655608   -0.973800
     12          6           0      -12.648651    1.798744   -0.242772
     13          6           0       11.847010    0.072504   -0.836006
     14          6           0      -11.486230    0.996074   -0.538864
     15          6           0       10.784581   -1.142809    2.395988
     16          6           0       10.385308   -2.568002    0.405058
     17          6           0      -11.785859   -1.139020    2.090826
     18          6           0      -12.629490   -2.324939    0.012783
     19          6           0        9.634927    0.406165    0.230637
     20          6           0      -10.072401   -0.997285   -0.428792
     21          6           0       11.712309    1.228332   -1.813723
     22          6           0      -10.534954    1.762576   -1.617127
     23          6           0        9.429669    1.734664    0.080770
     24          6           0       -8.839233   -0.517984   -0.391205
     25          6           0        8.037374    2.338300    0.146139
     26          6           0       -7.574277   -1.238579   -0.583978
     27          6           0        7.982458    3.669625    0.579151
     28          6           0       -7.649783   -2.739485   -0.868209
     29          6           0        6.840861    1.556286   -0.097234
     30          6           0       -6.367167   -0.583977   -0.499607
     31          6           0        5.576260    1.995180    0.081494
     32          6           0       -5.012098   -1.158532   -0.576769
     33          6           0        4.369523    1.203735    0.023261
     34          6           0       -3.856875   -0.419144   -0.314535
     35          6           0        3.090723    1.624100    0.140140
     36          6           0       -2.521415   -0.766457   -0.609220
     37          6           0        2.598562    3.132844    0.507410
     38          6           0       -2.240717   -2.131528   -1.080711
     39          6           0        2.090366    0.757815   -0.154704
     40          6           0       -1.590732    0.159732   -0.221954
     41          6           0        0.646333    0.947163   -0.042491
     42          6           0       -0.225641   -0.033142   -0.368931
     43          1           0       13.180537   -1.104164    1.707921
     44          1           0       12.734523   -2.902548    1.650569
     45          1           0      -14.253999   -0.636621    1.509759
     46          1           0      -13.950572   -0.508543   -0.354385
     47          1           0       13.009179   -2.645687   -0.991866
     48          1           0      -13.145968    1.450329    1.874879
     49          1           0       13.955941    0.168565   -0.933884
     50          1           0       13.228536   -0.986157   -2.040732
     51          1           0      -13.142588    1.907827   -1.201135
     52          1           0      -12.329052    2.579124    0.262482
     53          1           0       11.050104   -1.916965    3.057385
     54          1           0        9.674564   -1.013979    2.580456
     55          1           0       10.976783   -0.165289    2.769889
     56          1           0       10.679670   -2.847922   -0.606310
     57          1           0       10.649588   -3.365399    1.165210
     58          1           0        9.264671   -2.241420    0.416009
     59          1           0      -11.516300   -0.210114    2.670835
     60          1           0      -10.937402   -2.015299    2.151760
     61          1           0      -12.457332   -1.623700    2.617653
     62          1           0      -13.527424   -2.699119    0.386045
     63          1           0      -11.751312   -2.949337    0.002055
     64          1           0      -12.771102   -2.122117   -0.982923
     65          1           0        8.805878   -0.270729    0.386846
     66          1           0      -10.386916   -2.086186   -0.846977
     67          1           0       10.667373    1.272860   -2.209608
     68          1           0       12.019238    2.236620   -1.477037
     69          1           0       12.254596    0.962424   -2.739289
     70          1           0      -11.160872    2.306609   -2.328511
     71          1           0       -9.918467    0.994360   -2.057229
     72          1           0       -9.990605    2.297457   -1.099114
     73          1           0       14.913446   -3.002900    0.320875
     74          1           0      -15.599704    1.474193    1.336723
     75          1           0       10.160201    2.370034   -0.047973
     76          1           0       -8.759292    0.513659   -0.121783
     77          1           0        9.075595    4.283597    0.615775
     78          1           0        7.327869    4.291232   -0.067985
     79          1           0        7.485272    3.755326    1.760751
     80          1           0       -8.071198   -3.043621    0.050886
     81          1           0       -8.562117   -3.025430   -1.698042
     82          1           0       -6.793032   -3.333618   -0.979863
     83          1           0        7.129137    0.502657   -0.590782
     84          1           0       -6.430932    0.371296   -0.134681
     85          1           0        5.425424    3.075070    0.210982
     86          1           0       -4.863399   -2.268402   -0.777134
     87          1           0        4.584186    0.145688    0.024294
     88          1           0       -3.840086    0.607997   -0.313581
     89          1           0        2.964390    3.344916    1.521097
     90          1           0        1.394608    3.160793    0.484206
     91          1           0        3.182551    4.001212   -0.072399
     92          1           0       -2.622779   -3.021345   -0.524568
     93          1           0       -2.709463   -2.331101   -1.968697
     94          1           0       -1.099339   -2.408857   -1.240489
     95          1           0        2.354809   -0.138127   -0.435066
     96          1           0       -2.107234    1.293731    0.070569
     97          1           0        0.333813    1.868814    0.410319
     98          1           0        0.255342   -0.828446   -0.641125
 ---------------------------------------------------------------------

 SCF Done:  E(RCAM-B3LYP) =  -1706.90710656     A.U. after   15 cycles

 Excitation energies and oscillator strengths:

 Excited State   1:      Singlet-A      2.2271 eV  556.70 nm  f=3.5407  <S**2>=0.000
     155 ->158         0.15493
     156 ->157         0.69019
 This state for optimization and/or second-order correction.
 Total Energy, E(TD-HF/TD-DFT) =  -1706.82526123
 Copying the excited state density for this state as the 1-particle RhoCI density.

 The electronic state is 1-A.
 Alpha  occ. eigenvalues --  -19.21512 -19.20306 -10.29897 -10.29035 -10.28131
 Alpha  occ. eigenvalues --  -10.27904 -10.27662 -10.27578 -10.27513 -10.27200
 Alpha  occ. eigenvalues --  -10.27009 -10.26729 -10.26661 -10.26622 -10.26524
 Alpha  occ. eigenvalues --  -10.26439 -10.26359 -10.26314 -10.26269 -10.26037
 Alpha  occ. eigenvalues --  -10.25909 -10.25819 -10.25812 -10.25642 -10.25570
 Alpha  occ. eigenvalues --  -10.25500 -10.25470 -10.25404 -10.25363 -10.25140
 Alpha  occ. eigenvalues --  -10.25075 -10.24954 -10.24917 -10.24759 -10.24710
 Alpha  occ. eigenvalues --  -10.24609 -10.24514 -10.24215 -10.23732 -10.23621
 Alpha  occ. eigenvalues --  -10.23318 -10.22875  -1.07205  -1.06414  -0.94441
 Alpha  occ. eigenvalues --   -0.94384  -0.92686  -0.91568  -0.90495  -0.90073
 Alpha  occ. eigenvalues --   -0.88136  -0.87620  -0.87190  -0.86125  -0.85232
 Alpha  occ. eigenvalues --   -0.83192  -0.81824  -0.80518  -0.79914  -0.78723
 Alpha  occ. eigenvalues --   -0.78036  -0.77073  -0.76961  -0.76531  -0.75809
 Alpha  occ. eigenvalues --   -0.75724  -0.75494  -0.75412  -0.73582  -0.70239
 Alpha  occ. eigenvalues --   -0.69175  -0.68242  -0.65987  -0.65279  -0.64293
 Alpha  occ. eigenvalues --   -0.63881  -0.63431  -0.62765  -0.60548  -0.59826
 Alpha  occ. eigenvalues --   -0.59053  -0.58177  -0.58072  -0.57612  -0.56649
 Alpha  occ. eigenvalues --   -0.56336  -0.55517  -0.54926  -0.54752  -0.54430
 Alpha  occ. eigenvalues --   -0.53770  -0.52903  -0.52381  -0.52042  -0.51202
 Alpha  occ. eigenvalues --   -0.50725  -0.50551  -0.50216  -0.49680  -0.49389
 Alpha  occ. eigenvalues --   -0.49163  -0.48777  -0.48598  -0.48362  -0.48089
 Alpha  occ. eigenvalues --   -0.47696  -0.47145  -0.47085  -0.46583  -0.46498
 Alpha  occ. eigenvalues --   -0.46068  -0.45878  -0.45592  -0.45492  -0.45160
 Alpha  occ. eigenvalues --   -0.44891  -0.44805  -0.44591  -0.44234  -0.43879
 Alpha  occ. eigenvalues --   -0.43752  -0.42976  -0.42446  -0.42001  -0.41953
 Alpha  occ. eigenvalues --   -0.41703  -0.41399  -0.40941  -0.40676  -0.40637
 Alpha  occ. eigenvalues --   -0.40507  -0.40110  -0.39785  -0.39489  -0.39341
 Alpha  occ. eigenvalues --   -0.39045  -0.38897  -0.38560  -0.38419  -0.38249
 Alpha  occ. eigenvalues --   -0.38031  -0.37269  -0.36814  -0.36502  -0.35092
 Alpha  occ. eigenvalues --   -0.34851  -0.33594  -0.32872  -0.32661  -0.32023
 Alpha  occ. eigenvalues --   -0.31776  -0.29736  -0.28019  -0.26711  -0.23199
 Alpha  occ. eigenvalues --   -0.19206
 Alpha virt. eigenvalues --   -0.05538  -0.01030   0.03237   0.05962   0.08750
 Alpha virt. eigenvalues --    0.10082   0.10573   0.10964   0.11805   0.11852
 Alpha virt. eigenvalues --    0.11956   0.12189   0.12399   0.13056   0.13601

 Mulliken charges:
               1
     1  O   -0.571385
     2  O   -0.599782
     3  C   -0.029304
     4  C   -0.009703
     5  C   -0.174919
     6  C   -0.191179
     7  C    0.171136
     8  C    0.195961
     9  C    0.088710
    10  C    0.044148
    11  C   -0.209554
    12  C   -0.186048
    13  C    0.006275
    14  C   -0.027999
    15  C   -0.315199
    16  C   -0.275315
    17  C   -0.282182
    18  C   -0.321324
    19  C   -0.102012
    20  C   -0.113838
    21  C   -0.379099
    22  C   -0.346052
    23  C   -0.078189
    24  C   -0.109024
    25  C    0.095832
    26  C    0.112534
    27  C   -0.375604
    28  C   -0.359097
    29  C   -0.104934
    30  C   -0.130631
    31  C   -0.103785
    32  C   -0.111026
    33  C   -0.141813
    34  C   -0.100247
    35  C    0.143511
    36  C    0.136011
    37  C   -0.363041
    38  C   -0.390345
    39  C   -0.125050
    40  C   -0.134415
    41  C   -0.075701
    42  C   -0.049166
    43  H    0.117929
    44  H    0.032461
    45  H    0.073877
    46  H    0.083766
    47  H    0.096367
    48  H    0.086360
    49  H    0.131145
    50  H    0.102681
    51  H    0.127851
    52  H    0.120233
    53  H    0.107437
    54  H    0.091150
    55  H    0.117235
    56  H    0.107775
    57  H    0.087803
    58  H    0.087925
    59  H    0.108304
    60  H    0.080334
    61  H    0.105565
    62  H    0.103914
    63  H    0.105941
    64  H    0.123011
    65  H    0.091606
    66  H    0.070854
    67  H    0.121968
    68  H    0.118984
    69  H    0.098113
    70  H    0.099816
    71  H    0.121127
    72  H    0.130332
    73  H    0.297686
    74  H    0.299791
    75  H    0.075694
    76  H    0.087992
    77  H    0.086197
    78  H    0.126534
    79  H    0.096337
    80  H    0.134496
    81  H    0.084369
    82  H    0.113946
    83  H    0.079434
    84  H    0.076335
    85  H    0.079915
    86  H    0.078014
    87  H    0.085625
    88  H    0.076342
    89  H    0.124046
    90  H    0.102943
    91  H    0.104612
    92  H    0.120621
    93  H    0.136268
    94  H    0.093212
    95  H    0.060769
    96  H    0.074284
    97  H    0.073090
    98  H    0.072427
 Sum of Mulliken charges =  -0.00000

 Dipole moment (field-independent basis, Debye):
    X=             -1.0393    Y=             -2.0037    Z=              1.3949  Tot=              2.6535
 Quadrupole moment (field-independent basis, Debye-Ang):
   XX=           -259.4934   YY=           -244.4969   ZZ=           -260.8366
   XY=             14.1915   XZ=             -8.3034   YZ=              2.5408

 Normal termination of Gaussian 16 at Sat Jul 13 17:12:53 2019.
