 Gaussian 16, Revision A.03,
 Gaussian 16:  ES64L-G16RevA.03 25-Dec-2016

 -------------------------------------
 # td=(NStates=1) CAM-B3LYP/6-31G(d,p)
 -------------------------------------

 --
 TD
 --
 Symbolic Z-matrix:
 Charge =  0 Multiplicity = 1

                         Standard orientation:
 ---------------------------------------------------------------------
 Center     Atomic      Atomic             Coordinates (Angstroms)
 Number     Number       Type             X           Y           Z
 ---------------------------------------------------------------------
      1          8           0       14.721661   -2.248258    0.019137
      2          8           0      -14.696157    2.008639    1.285598
      3          6           0       11.132168   -1.563054    0.945346
      4          6           0      -12.353573   -1.074132    0.561112
      5          6           0       12.568139   -2.020342    1.062415
      6          6           0      -13.651763   -0.228359    0.601840
      7          6           0       13.400573   -1.933651   -0.226025
      8          6           0      -13.498772    1.233224    1.007796
      9          6           0       10.985411   -0.320887    0.021497
     10          6           0      -11.284331   -0.246002   -0.210345
     11          6           0       13.442182   -0.559600   -0.802034
     12          6           0      -12.712585    1.830776   -0.161808
     13          6           0       11.999566    0.131520   -0.820955
     14          6           0      -11.527401    1.041672   -0.595245
     15          6           0       10.603015   -1.094260    2.337509
     16          6           0       10.259132   -2.634528    0.302446
     17          6           0      -11.978086   -1.528030    2.011117
     18          6           0      -12.722203   -2.326091   -0.184639
     19          6           0        9.694281    0.320490    0.085188
     20          6           0      -10.071154   -0.929960   -0.543432
     21          6           0       11.898882    1.206228   -1.712473
     22          6           0      -10.549677    1.847428   -1.396271
     23          6           0        9.374408    1.630660    0.082822
     24          6           0       -8.788915   -0.546195   -0.402133
     25          6           0        8.130575    2.282841    0.172241
     26          6           0       -7.571189   -1.243750   -0.607344
     27          6           0        8.080799    3.796216    0.460806
     28          6           0       -7.740280   -2.698072   -1.138812
     29          6           0        6.901025    1.631885   -0.034133
     30          6           0       -6.333985   -0.568664   -0.414463
     31          6           0        5.605809    2.162046    0.114567
     32          6           0       -5.081197   -1.184287   -0.494719
     33          6           0        4.432819    1.340791   -0.051286
     34          6           0       -3.929674   -0.326492   -0.289142
     35          6           0        3.069407    1.768479    0.061110
     36          6           0       -2.627862   -0.664634   -0.400761
     37          6           0        2.798821    3.134795    0.548782
     38          6           0       -2.411297   -2.116876   -0.837596
     39          6           0        2.148503    0.810056   -0.146616
     40          6           0       -1.532980    0.219064   -0.193626
     41          6           0        0.744420    0.952551   -0.146519
     42          6           0       -0.219159    0.012884   -0.557716
     43          1           0       12.975431   -1.407834    1.656000
     44          1           0       12.722211   -2.947016    1.489405
     45          1           0      -14.454313   -0.888548    1.185916
     46          1           0      -14.292315   -0.323402   -0.384776
     47          1           0       12.936919   -2.494938   -1.025391
     48          1           0      -12.744127    1.112850    2.005038
     49          1           0       14.119467    0.259717   -0.251706
     50          1           0       13.877981   -0.759533   -1.800266
     51          1           0      -13.441799    1.843510   -1.006623
     52          1           0      -12.486286    2.958706   -0.169860
     53          1           0       10.750324   -1.937264    2.893009
     54          1           0        9.516877   -1.081947    2.558191
     55          1           0       11.257534   -0.087098    2.619521
     56          1           0       10.366763   -2.578510   -0.923909
     57          1           0       10.715092   -3.692526    0.682621
     58          1           0        9.052642   -2.600141    0.803437
     59          1           0      -11.910530   -0.734739    2.984457
     60          1           0      -10.912435   -1.846875    2.070639
     61          1           0      -12.729006   -2.202549    2.277213
     62          1           0      -13.584221   -2.750838    0.295969
     63          1           0      -11.926062   -3.092073   -0.019504
     64          1           0      -12.918879   -2.160241   -1.277283
     65          1           0        8.770781   -0.528684    0.052520
     66          1           0       -9.909164   -2.134098   -0.766234
     67          1           0       10.814016    1.447012   -2.125439
     68          1           0       12.171817    2.193663   -1.325551
     69          1           0       12.663547    1.111837   -2.609845
     70          1           0      -11.161664    2.579884   -1.780074
     71          1           0      -10.027370    1.229406   -2.216174
     72          1           0       -9.761251    2.432924   -0.916119
     73          1           0       14.694090   -3.098957    0.204019
     74          1           0      -15.246651    1.350668    1.998093
     75          1           0       10.354866    2.206767    0.281528
     76          1           0       -8.608026    0.486835    0.055285
     77          1           0        8.979206    4.392946    0.216131
     78          1           0        7.478450    4.326221   -0.125812
     79          1           0        7.543290    4.060538    1.477478
     80          1           0       -8.261379   -3.265493   -0.366715
     81          1           0       -8.655727   -2.732290   -1.921165
     82          1           0       -6.880412   -3.127061   -1.428848
     83          1           0        7.012165    0.507300   -0.427992
     84          1           0       -6.312807    0.405704   -0.128595
     85          1           0        5.386915    3.218810    0.168263
     86          1           0       -5.097226   -2.289828   -0.602433
     87          1           0        4.595926    0.201951   -0.365317
     88          1           0       -4.176550    0.685667   -0.180539
     89          1           0        2.983332    3.364836    1.607006
     90          1           0        1.637379    3.261958    0.308318
     91          1           0        3.266263    3.628997   -0.224094
     92          1           0       -2.485186   -2.873709    0.198951
     93          1           0       -2.824455   -2.616562   -1.683041
     94          1           0       -1.236005   -2.371430   -1.010723
     95          1           0        2.490356   -0.303437   -0.553694
     96          1           0       -1.789929    1.383316    0.007607
     97          1           0        0.263281    1.806012    0.123940
     98          1           0        0.129691   -0.887902   -1.091742
 ---------------------------------------------------------------------

 SCF Done:  E(RCAM-B3LYP) =  -1706.88471952     A.U. after   16 cycles

 Excitation energies and oscillator strengths:

 Excited State   1:      Singlet-A      1.8753 eV  661.14 nm  f=3.8745  <S**2>=0.000
     155 ->158        -0.14790
     156 ->157         0.69478
     156 <-157        -0.10484
 This state for optimization and/or second-order correction.
 Total Energy, E(TD-HF/TD-DFT) =  -1706.81580352
 Copying the excited state density for this state as the 1-particle RhoCI density.

 The electronic state is 1-A.
 Alpha  occ. eigenvalues --  -19.23177 -19.21086 -10.32226 -10.29911 -10.28895
 Alpha  occ. eigenvalues --  -10.28006 -10.27879 -10.27810 -10.27740 -10.27685
 Alpha  occ. eigenvalues --  -10.27672 -10.27621 -10.27429 -10.27337 -10.27255
 Alpha  occ. eigenvalues --  -10.27078 -10.26985 -10.26931 -10.26903 -10.26734
 Alpha  occ. eigenvalues --  -10.26733 -10.26725 -10.26700 -10.26399 -10.26277
 Alpha  occ. eigenvalues --  -10.26174 -10.26143 -10.26138 -10.26087 -10.26074
 Alpha  occ. eigenvalues --  -10.26072 -10.25982 -10.25981 -10.25902 -10.25780
 Alpha  occ. eigenvalues --  -10.25594 -10.25492 -10.25272 -10.25246 -10.24828
 Alpha  occ. eigenvalues --  -10.24350 -10.22711  -1.13777  -1.06739  -0.93617
 Alpha  occ. eigenvalues --   -0.93568  -0.92573  -0.91695  -0.90327  -0.89938
 Alpha  occ. eigenvalues --   -0.87776  -0.87476  -0.87150  -0.85589  -0.84880
 Alpha  occ. eigenvalues --   -0.83083  -0.82184  -0.80370  -0.79811  -0.78788
 Alpha  occ. eigenvalues --   -0.76987  -0.76587  -0.76263  -0.75788  -0.75408
 Alpha  occ. eigenvalues --   -0.75314  -0.74603  -0.74596  -0.72949  -0.71061
 Alpha  occ. eigenvalues --   -0.68869  -0.66831  -0.65597  -0.64418  -0.63993
 Alpha  occ. eigenvalues --   -0.63381  -0.62471  -0.62259  -0.61247  -0.60605
 Alpha  occ. eigenvalues --   -0.59253  -0.58850  -0.57572  -0.57173  -0.55730
 Alpha  occ. eigenvalues --   -0.55420  -0.55077  -0.54871  -0.54255  -0.53885
 Alpha  occ. eigenvalues --   -0.53050  -0.52532  -0.52087  -0.51650  -0.51115
 Alpha  occ. eigenvalues --   -0.50849  -0.50722  -0.50116  -0.49680  -0.49029
 Alpha  occ. eigenvalues --   -0.48642  -0.48249  -0.47864  -0.47551  -0.47193
 Alpha  occ. eigenvalues --   -0.47122  -0.46951  -0.46685  -0.46445  -0.46002
 Alpha  occ. eigenvalues --   -0.45758  -0.45402  -0.45193  -0.45158  -0.44949
 Alpha  occ. eigenvalues --   -0.44783  -0.44532  -0.43787  -0.43602  -0.43332
 Alpha  occ. eigenvalues --   -0.42798  -0.42491  -0.42309  -0.42118  -0.41729
 Alpha  occ. eigenvalues --   -0.41599  -0.41255  -0.41207  -0.41159  -0.40598
 Alpha  occ. eigenvalues --   -0.40259  -0.40196  -0.39466  -0.39091  -0.39058
 Alpha  occ. eigenvalues --   -0.38961  -0.38914  -0.38754  -0.38240  -0.37487
 Alpha  occ. eigenvalues --   -0.37401  -0.37225  -0.36862  -0.36406  -0.35881
 Alpha  occ. eigenvalues --   -0.35649  -0.35114  -0.34371  -0.32839  -0.32374
 Alpha  occ. eigenvalues --   -0.31761  -0.29522  -0.27766  -0.26056  -0.22699
 Alpha  occ. eigenvalues --   -0.18507
 Alpha virt. eigenvalues --   -0.06981  -0.01856   0.02422   0.05450   0.07456
 Alpha virt. eigenvalues --    0.09230   0.09461   0.10386   0.11026   0.12071
 Alpha virt. eigenvalues --    0.12089   0.12827   0.13038   0.13242   0.13852

 Mulliken charges:
               1
     1  O   -0.510183
     2  O   -0.561672
     3  C   -0.001505
     4  C   -0.005077
     5  C   -0.164302
     6  C   -0.200892
     7  C    0.134467
     8  C    0.194544
     9  C    0.029540
    10  C    0.072459
    11  C   -0.205176
    12  C   -0.241483
    13  C    0.073935
    14  C    0.074751
    15  C   -0.297716
    16  C   -0.278612
    17  C   -0.291720
    18  C   -0.298209
    19  C   -0.082545
    20  C   -0.149680
    21  C   -0.390791
    22  C   -0.363802
    23  C   -0.129501
    24  C   -0.084583
    25  C    0.102032
    26  C    0.098884
    27  C   -0.378451
    28  C   -0.385964
    29  C   -0.120271
    30  C   -0.103298
    31  C   -0.105130
    32  C   -0.078350
    33  C   -0.105958
    34  C   -0.132738
    35  C    0.100204
    36  C    0.127844
    37  C   -0.355448
    38  C   -0.365128
    39  C   -0.115823
    40  C   -0.137067
    41  C   -0.084878
    42  C   -0.072562
    43  H    0.109987
    44  H    0.078386
    45  H    0.054636
    46  H    0.084721
    47  H    0.079671
    48  H    0.054265
    49  H    0.102190
    50  H    0.106856
    51  H    0.123014
    52  H    0.106672
    53  H    0.103235
    54  H    0.107904
    55  H    0.096461
    56  H    0.104145
    57  H    0.074940
    58  H    0.073792
    59  H    0.071312
    60  H    0.114212
    61  H    0.110682
    62  H    0.099970
    63  H    0.099155
    64  H    0.110424
    65  H    0.063016
    66  H    0.049066
    67  H    0.114025
    68  H    0.122075
    69  H    0.089099
    70  H    0.105755
    71  H    0.116099
    72  H    0.121163
    73  H    0.286891
    74  H    0.310286
    75  H    0.085801
    76  H    0.068523
    77  H    0.106493
    78  H    0.132871
    79  H    0.106116
    80  H    0.131835
    81  H    0.116520
    82  H    0.111441
    83  H    0.079651
    84  H    0.079737
    85  H    0.090165
    86  H    0.095114
    87  H    0.075982
    88  H    0.079716
    89  H    0.140704
    90  H    0.091245
    91  H    0.139094
    92  H    0.085420
    93  H    0.136173
    94  H    0.078208
    95  H    0.069813
    96  H    0.080431
    97  H    0.072723
    98  H    0.091974
 Sum of Mulliken charges =  -0.00000

 Dipole moment (field-independent basis, Debye):
    X=              0.4204    Y=             -1.9796    Z=              0.3206  Tot=              2.0490
 Quadrupole moment (field-independent basis, Debye-Ang):
   XX=           -277.0260   YY=           -242.0731   ZZ=           -263.6282
   XY=             12.8814   XZ=             -5.5283   YZ=             -0.6997

 Normal termination of Gaussian 16 at Thu Jul 11 20:03:16 2019.
