 Gaussian 16, Revision A.03,
 Gaussian 16:  ES64L-G16RevA.03 25-Dec-2016

 -------------------------------------
 # td=(NStates=1) CAM-B3LYP/6-31G(d,p)
 -------------------------------------

 --
 TD
 --
 Symbolic Z-matrix:
 Charge =  0 Multiplicity = 1

                         Standard orientation:
 ---------------------------------------------------------------------
 Center     Atomic      Atomic             Coordinates (Angstroms)
 Number     Number       Type             X           Y           Z
 ---------------------------------------------------------------------
      1          8           0       14.668297   -2.254469   -0.216070
      2          8           0      -14.545341    2.013215    0.995172
      3          6           0       11.242769   -1.442262    0.963955
      4          6           0      -12.406018   -1.038689    0.493117
      5          6           0       12.587909   -1.839616    1.077573
      6          6           0      -13.684221   -0.275462    0.507671
      7          6           0       13.314505   -1.905753   -0.339423
      8          6           0      -13.389093    1.205672    0.914325
      9          6           0       10.927259   -0.348594    0.041845
     10          6           0      -11.364659   -0.329591   -0.277548
     11          6           0       13.308438   -0.605586   -0.995280
     12          6           0      -12.594530    1.793626   -0.187814
     13          6           0       11.853302    0.145234   -0.820507
     14          6           0      -11.367230    1.003034   -0.586130
     15          6           0       10.705233   -1.018375    2.394379
     16          6           0       10.259114   -2.736042    0.539423
     17          6           0      -11.878361   -1.395600    1.880312
     18          6           0      -12.716260   -2.375669   -0.218297
     19          6           0        9.594123    0.300177    0.119776
     20          6           0      -10.040533   -0.962738   -0.409696
     21          6           0       11.728056    1.207999   -1.921025
     22          6           0      -10.483124    1.640183   -1.402007
     23          6           0        9.333806    1.583729    0.003346
     24          6           0       -8.790079   -0.571581   -0.244883
     25          6           0        7.965718    2.225123    0.019189
     26          6           0       -7.593919   -1.191086   -0.502948
     27          6           0        7.961481    3.618354    0.383632
     28          6           0       -7.628200   -2.680628   -0.900680
     29          6           0        6.798161    1.470117    0.003463
     30          6           0       -6.339284   -0.535826   -0.277468
     31          6           0        5.553687    2.046418    0.218646
     32          6           0       -5.088811   -1.068149   -0.484163
     33          6           0        4.533543    1.292582    0.056921
     34          6           0       -3.944259   -0.356420   -0.233293
     35          6           0        3.138129    1.755771    0.184587
     36          6           0       -2.571785   -0.663619   -0.490102
     37          6           0        2.811800    3.157471    0.536007
     38          6           0       -2.243537   -2.086129   -0.948339
     39          6           0        2.110070    0.863186   -0.202407
     40          6           0       -1.564902    0.234560   -0.197424
     41          6           0        0.687219    1.108100    0.048393
     42          6           0       -0.153251    0.104244   -0.285034
     43          1           0       13.170964   -1.125519    1.684008
     44          1           0       12.484910   -2.954833    1.255177
     45          1           0      -14.342250   -0.711151    1.254717
     46          1           0      -14.440555   -0.253217   -0.295379
     47          1           0       12.844201   -2.481142   -1.196279
     48          1           0      -13.018304    1.185174    2.000167
     49          1           0       14.157027    0.173442   -0.601515
     50          1           0       13.297674   -0.527841   -1.977773
     51          1           0      -13.364321    1.891808   -1.189629
     52          1           0      -12.297346    2.894475    0.283427
     53          1           0       10.744411   -1.916927    3.130523
     54          1           0        9.681087   -0.626307    2.188263
     55          1           0       11.401670   -0.347800    2.863817
     56          1           0       10.351966   -2.851552   -0.474915
     57          1           0       10.456262   -3.648319    1.258547
     58          1           0        9.194963   -2.320755    0.668187
     59          1           0      -11.714800   -0.574312    2.629990
     60          1           0      -10.954873   -1.978694    1.768757
     61          1           0      -12.642306   -2.147321    2.469087
     62          1           0      -13.704643   -2.830531    0.285743
     63          1           0      -11.940499   -3.057801   -0.091780
     64          1           0      -12.812298   -2.058771   -1.273322
     65          1           0        8.570727   -0.208546    0.226261
     66          1           0      -10.186714   -2.013962   -0.672473
     67          1           0       10.751137    1.341162   -2.223890
     68          1           0       11.937081    2.237359   -1.372464
     69          1           0       12.179880    0.930567   -2.656200
     70          1           0      -11.186149    2.337524   -2.116797
     71          1           0       -9.752041    0.928243   -1.930104
     72          1           0       -9.734111    2.418872   -0.884132
     73          1           0       14.897626   -3.033713    0.311153
     74          1           0      -15.202552    1.547051    1.600812
     75          1           0       10.035166    2.443367    0.039174
     76          1           0       -8.570650    0.433547    0.015994
     77          1           0        8.932373    3.927145    0.504221
     78          1           0        7.532771    4.239658   -0.441367
     79          1           0        7.480477    3.941996    1.184580
     80          1           0       -8.304899   -3.248205   -0.220791
     81          1           0       -8.038971   -2.859614   -1.940735
     82          1           0       -6.675105   -2.950255   -1.244072
     83          1           0        6.959706    0.354644   -0.324578
     84          1           0       -6.317730    0.472548    0.112345
     85          1           0        5.477636    3.232695    0.612880
     86          1           0       -5.034361   -2.015182   -1.036576
     87          1           0        4.508213    0.129073   -0.176470
     88          1           0       -4.053897    0.575880    0.221672
     89          1           0        3.013251    3.042808    1.658109
     90          1           0        1.557509    3.114269    0.522678
     91          1           0        3.392631    3.957404    0.190982
     92          1           0       -2.008138   -2.727402    0.278583
     93          1           0       -3.401222   -2.453854   -1.582348
     94          1           0       -1.105237   -2.065427   -1.748560
     95          1           0        2.610173   -0.163232   -0.690203
     96          1           0       -1.764782    1.034311    0.335660
     97          1           0        0.280481    2.148504    0.350069
     98          1           0        0.249529   -0.820319   -0.548585
 ---------------------------------------------------------------------

 SCF Done:  E(RCAM-B3LYP) =  -1706.79733371     A.U. after   15 cycles

 Excitation energies and oscillator strengths:

 Excited State   1:      Singlet-A      2.3869 eV  519.43 nm  f=3.6580  <S**2>=0.000
     155 ->158         0.16955
     156 ->157         0.68305
 This state for optimization and/or second-order correction.
 Total Energy, E(TD-HF/TD-DFT) =  -1706.70961619
 Copying the excited state density for this state as the 1-particle RhoCI density.

 The electronic state is 1-A.
 Alpha  occ. eigenvalues --  -19.20927 -19.20509 -10.32605 -10.30395 -10.30192
 Alpha  occ. eigenvalues --  -10.27873 -10.27818 -10.27510 -10.27471 -10.27365
 Alpha  occ. eigenvalues --  -10.27281 -10.27112 -10.27055 -10.26912 -10.26853
 Alpha  occ. eigenvalues --  -10.26551 -10.26542 -10.26379 -10.26366 -10.26247
 Alpha  occ. eigenvalues --  -10.26194 -10.26154 -10.26058 -10.26017 -10.25985
 Alpha  occ. eigenvalues --  -10.25791 -10.25786 -10.25758 -10.25710 -10.25588
 Alpha  occ. eigenvalues --  -10.25471 -10.25397 -10.25365 -10.25302 -10.25214
 Alpha  occ. eigenvalues --  -10.24835 -10.24835 -10.24796 -10.24588 -10.24588
 Alpha  occ. eigenvalues --  -10.23714 -10.23561  -1.09065  -1.08807  -0.94923
 Alpha  occ. eigenvalues --   -0.93986  -0.92607  -0.92137  -0.91038  -0.90051
 Alpha  occ. eigenvalues --   -0.88608  -0.88009  -0.86841  -0.86035  -0.84981
 Alpha  occ. eigenvalues --   -0.83931  -0.82644  -0.81090  -0.79925  -0.77595
 Alpha  occ. eigenvalues --   -0.77354  -0.76713  -0.76199  -0.75580  -0.75544
 Alpha  occ. eigenvalues --   -0.75225  -0.75082  -0.74330  -0.72741  -0.70827
 Alpha  occ. eigenvalues --   -0.69038  -0.67272  -0.65946  -0.65015  -0.64008
 Alpha  occ. eigenvalues --   -0.63617  -0.62992  -0.62116  -0.60472  -0.59595
 Alpha  occ. eigenvalues --   -0.59020  -0.58321  -0.58028  -0.57025  -0.56241
 Alpha  occ. eigenvalues --   -0.56134  -0.55794  -0.55700  -0.54674  -0.53918
 Alpha  occ. eigenvalues --   -0.53085  -0.52591  -0.52144  -0.52053  -0.51825
 Alpha  occ. eigenvalues --   -0.51366  -0.50586  -0.50211  -0.50017  -0.49495
 Alpha  occ. eigenvalues --   -0.49041  -0.48891  -0.48448  -0.48062  -0.47891
 Alpha  occ. eigenvalues --   -0.47683  -0.47319  -0.46731  -0.46559  -0.46036
 Alpha  occ. eigenvalues --   -0.45789  -0.45537  -0.45198  -0.44924  -0.44533
 Alpha  occ. eigenvalues --   -0.44327  -0.44068  -0.43651  -0.43518  -0.43002
 Alpha  occ. eigenvalues --   -0.42856  -0.42382  -0.42213  -0.42113  -0.42022
 Alpha  occ. eigenvalues --   -0.41607  -0.41428  -0.41225  -0.40582  -0.40537
 Alpha  occ. eigenvalues --   -0.39965  -0.39737  -0.39572  -0.39435  -0.39147
 Alpha  occ. eigenvalues --   -0.38925  -0.38594  -0.38331  -0.38122  -0.37841
 Alpha  occ. eigenvalues --   -0.37525  -0.37243  -0.36618  -0.36116  -0.36064
 Alpha  occ. eigenvalues --   -0.35219  -0.35077  -0.34009  -0.31926  -0.31495
 Alpha  occ. eigenvalues --   -0.31073  -0.29201  -0.27915  -0.26192  -0.23290
 Alpha  occ. eigenvalues --   -0.19884
 Alpha virt. eigenvalues --   -0.05241  -0.01102   0.02442   0.05638   0.07155
 Alpha virt. eigenvalues --    0.07514   0.09241   0.09446   0.11392   0.11673
 Alpha virt. eigenvalues --    0.11964   0.12261   0.12352   0.12768   0.13174

 Mulliken charges:
               1
     1  O   -0.570301
     2  O   -0.568218
     3  C   -0.022197
     4  C   -0.008213
     5  C   -0.195479
     6  C   -0.204825
     7  C    0.180001
     8  C    0.171049
     9  C    0.123620
    10  C    0.078335
    11  C   -0.185686
    12  C   -0.208117
    13  C   -0.047757
    14  C    0.132885
    15  C   -0.291845
    16  C   -0.313580
    17  C   -0.288536
    18  C   -0.289688
    19  C   -0.144479
    20  C   -0.166353
    21  C   -0.317666
    22  C   -0.384241
    23  C   -0.079710
    24  C   -0.068089
    25  C    0.062207
    26  C    0.094978
    27  C   -0.380876
    28  C   -0.366388
    29  C   -0.123119
    30  C   -0.125824
    31  C   -0.083022
    32  C   -0.065571
    33  C   -0.085843
    34  C   -0.102899
    35  C    0.097737
    36  C    0.104637
    37  C   -0.353166
    38  C   -0.289290
    39  C   -0.144512
    40  C   -0.111454
    41  C   -0.105953
    42  C   -0.063821
    43  H    0.110427
    44  H    0.090858
    45  H    0.072490
    46  H    0.103853
    47  H    0.072580
    48  H    0.077526
    49  H    0.090473
    50  H    0.110509
    51  H    0.096458
    52  H    0.090393
    53  H    0.080192
    54  H    0.110244
    55  H    0.101033
    56  H    0.117751
    57  H    0.094455
    58  H    0.094358
    59  H    0.104552
    60  H    0.113831
    61  H    0.067503
    62  H    0.082767
    63  H    0.107111
    64  H    0.108283
    65  H    0.079776
    66  H    0.060919
    67  H    0.126326
    68  H    0.109053
    69  H    0.104083
    70  H    0.089025
    71  H    0.124064
    72  H    0.098629
    73  H    0.302856
    74  H    0.301443
    75  H    0.068828
    76  H    0.070611
    77  H    0.107225
    78  H    0.114348
    79  H    0.135175
    80  H    0.127948
    81  H    0.104863
    82  H    0.107087
    83  H    0.084815
    84  H    0.082079
    85  H    0.089117
    86  H    0.074507
    87  H    0.079734
    88  H    0.075883
    89  H    0.119439
    90  H    0.082881
    91  H    0.130642
    92  H    0.084983
    93  H    0.071258
    94  H    0.075590
    95  H    0.076572
    96  H    0.065953
    97  H    0.106159
    98  H    0.081753
 Sum of Mulliken charges =  -0.00000

 Dipole moment (field-independent basis, Debye):
    X=              0.4573    Y=             -0.9048    Z=              1.4792  Tot=              1.7933
 Quadrupole moment (field-independent basis, Debye-Ang):
   XX=           -268.6177   YY=           -249.5619   ZZ=           -261.6506
   XY=             16.2506   XZ=             -4.6857   YZ=              2.2184

 Normal termination of Gaussian 16 at Tue Jul 16 21:15:08 2019.
