 Gaussian 16, Revision A.03,
 Gaussian 16:  ES64L-G16RevA.03 25-Dec-2016

 -------------------------------------
 # td=(NStates=1) CAM-B3LYP/6-31G(d,p)
 -------------------------------------

 --
 TD
 --
 Symbolic Z-matrix:
 Charge =  0 Multiplicity = 1

                         Standard orientation:
 ---------------------------------------------------------------------
 Center     Atomic      Atomic             Coordinates (Angstroms)
 Number     Number       Type             X           Y           Z
 ---------------------------------------------------------------------
      1          8           0       14.780832   -2.169450   -0.185035
      2          8           0      -14.519820    2.169288    1.123191
      3          6           0       11.233588   -1.356693    1.053050
      4          6           0      -12.359828   -0.963190    0.760234
      5          6           0       12.713520   -1.716825    1.122528
      6          6           0      -13.661135   -0.207854    0.810970
      7          6           0       13.383514   -1.795571   -0.214007
      8          6           0      -13.335949    1.315923    1.048759
      9          6           0       10.894453   -0.271062    0.044764
     10          6           0      -11.328978   -0.161920   -0.158538
     11          6           0       13.314763   -0.406329   -0.811514
     12          6           0      -12.700193    1.871392   -0.151347
     13          6           0       11.935575    0.182759   -0.862013
     14          6           0      -11.502832    1.150747   -0.560266
     15          6           0       10.752642   -0.911982    2.404221
     16          6           0       10.352576   -2.606301    0.688298
     17          6           0      -11.726016   -1.113325    2.167629
     18          6           0      -12.715551   -2.307086    0.069998
     19          6           0        9.642763    0.279228    0.048036
     20          6           0      -10.066379   -0.992626   -0.428439
     21          6           0       11.802626    1.400802   -1.824715
     22          6           0      -10.643155    1.823194   -1.522718
     23          6           0        9.265884    1.620328   -0.037388
     24          6           0       -8.773415   -0.624254   -0.363596
     25          6           0        8.012260    2.303275    0.035276
     26          6           0       -7.552655   -1.298227   -0.682889
     27          6           0        7.965528    3.754775    0.468931
     28          6           0       -7.818763   -2.746617   -1.165580
     29          6           0        6.904297    1.539168   -0.050541
     30          6           0       -6.337303   -0.684577   -0.553607
     31          6           0        5.603232    2.009259    0.093616
     32          6           0       -5.122039   -1.287040   -0.766512
     33          6           0        4.496894    1.233544   -0.012394
     34          6           0       -4.034406   -0.546092   -0.410661
     35          6           0        3.066263    1.623712   -0.020246
     36          6           0       -2.648514   -0.937826   -0.517108
     37          6           0        2.747844    3.001675    0.491398
     38          6           0       -2.375707   -2.346060   -0.911369
     39          6           0        2.120905    0.636964   -0.176867
     40          6           0       -1.575120   -0.088581   -0.319585
     41          6           0        0.687672    0.802100   -0.225972
     42          6           0       -0.196138   -0.204112   -0.477689
     43          1           0       13.184955   -1.050485    1.856953
     44          1           0       12.796485   -2.635878    1.868633
     45          1           0      -14.259232   -0.388409    1.632825
     46          1           0      -14.332759   -0.001107   -0.127211
     47          1           0       12.928735   -2.650073   -0.938005
     48          1           0      -12.789270    1.507190    1.828169
     49          1           0       13.911619    0.293507   -0.183013
     50          1           0       13.715950   -0.485382   -1.930794
     51          1           0      -13.356934    1.785807   -0.940137
     52          1           0      -12.458681    2.961078   -0.105333
     53          1           0       10.959364   -1.771905    3.160426
     54          1           0        9.662148   -0.952600    2.508753
     55          1           0       11.161976    0.138334    2.935660
     56          1           0       10.726178   -3.059705   -0.127487
     57          1           0       10.358527   -3.374564    1.434281
     58          1           0        9.396283   -2.319519    0.581134
     59          1           0      -11.525809   -0.147229    2.555168
     60          1           0      -11.031222   -1.998881    2.073734
     61          1           0      -12.461125   -1.544936    2.764324
     62          1           0      -13.447747   -2.820423    0.399879
     63          1           0      -11.775304   -2.969360    0.108920
     64          1           0      -12.855521   -1.975109   -0.971144
     65          1           0        8.929857   -0.468959    0.381989
     66          1           0      -10.212719   -2.028406   -0.804420
     67          1           0       10.714807    1.248873   -2.205549
     68          1           0       11.972824    2.490836   -1.474508
     69          1           0       12.498298    1.264211   -2.746534
     70          1           0      -11.184622    2.460007   -2.412469
     71          1           0      -10.048173    1.189178   -2.112894
     72          1           0      -10.122807    2.363423   -0.918260
     73          1           0       14.982069   -3.061018    0.024174
     74          1           0      -15.253065    1.895986    1.937610
     75          1           0       10.117470    2.221966   -0.104165
     76          1           0       -8.652233    0.383550   -0.170867
     77          1           0        8.975010    4.079169    0.064613
     78          1           0        7.031258    4.357617    0.194580
     79          1           0        7.934106    3.565211    1.790713
     80          1           0       -8.035293   -3.277275   -0.260264
     81          1           0       -8.867182   -2.907784   -1.815270
     82          1           0       -6.803420   -3.204709   -1.696479
     83          1           0        7.010715    0.443313   -0.626666
     84          1           0       -6.356227    0.395077   -0.411283
     85          1           0        5.634266    3.024910    0.344106
     86          1           0       -5.209663   -2.432546   -0.936796
     87          1           0        4.700647    0.085808   -0.190783
     88          1           0       -4.139253    0.394793   -0.301188
     89          1           0        3.104032    3.021747    1.630313
     90          1           0        1.589175    3.077456    0.585024
     91          1           0        2.908487    3.859831   -0.148734
     92          1           0       -2.750139   -3.037933   -0.132738
     93          1           0       -3.047237   -2.258914   -1.772837
     94          1           0       -1.451537   -2.595953   -1.038778
     95          1           0        2.509432   -0.355501   -0.304621
     96          1           0       -1.775872    0.907515   -0.119414
     97          1           0        0.180791    1.701709    0.135327
     98          1           0       -0.016862   -1.190424   -0.766822
 ---------------------------------------------------------------------

 SCF Done:  E(RCAM-B3LYP) =  -1706.91789923     A.U. after   14 cycles

 Excitation energies and oscillator strengths:

 Excited State   1:      Singlet-A      2.3775 eV  521.50 nm  f=3.8112  <S**2>=0.000
     155 ->158        -0.19453
     156 ->157         0.67336
 This state for optimization and/or second-order correction.
 Total Energy, E(TD-HF/TD-DFT) =  -1706.83052931
 Copying the excited state density for this state as the 1-particle RhoCI density.

 The electronic state is 1-A.
 Alpha  occ. eigenvalues --  -19.21457 -19.20073 -10.31900 -10.29109 -10.28393
 Alpha  occ. eigenvalues --  -10.28004 -10.27749 -10.27641 -10.27570 -10.27486
 Alpha  occ. eigenvalues --  -10.27185 -10.27026 -10.26990 -10.26873 -10.26869
 Alpha  occ. eigenvalues --  -10.26804 -10.26694 -10.26678 -10.26280 -10.26248
 Alpha  occ. eigenvalues --  -10.26189 -10.26175 -10.26158 -10.25978 -10.25932
 Alpha  occ. eigenvalues --  -10.25734 -10.25686 -10.25636 -10.25625 -10.25472
 Alpha  occ. eigenvalues --  -10.25409 -10.25177 -10.25062 -10.24993 -10.24625
 Alpha  occ. eigenvalues --  -10.24479 -10.24151 -10.23960 -10.23713 -10.23707
 Alpha  occ. eigenvalues --  -10.23480 -10.22632  -1.08333  -1.05559  -0.94003
 Alpha  occ. eigenvalues --   -0.93379  -0.92808  -0.91761  -0.90977  -0.89818
 Alpha  occ. eigenvalues --   -0.88203  -0.87681  -0.86610  -0.86270  -0.85090
 Alpha  occ. eigenvalues --   -0.83284  -0.82655  -0.80086  -0.79665  -0.78366
 Alpha  occ. eigenvalues --   -0.77394  -0.76862  -0.76562  -0.76349  -0.75463
 Alpha  occ. eigenvalues --   -0.75184  -0.75041  -0.74573  -0.73404  -0.70873
 Alpha  occ. eigenvalues --   -0.69499  -0.67953  -0.66507  -0.65029  -0.63987
 Alpha  occ. eigenvalues --   -0.63555  -0.63016  -0.62557  -0.61575  -0.60180
 Alpha  occ. eigenvalues --   -0.58938  -0.58522  -0.58044  -0.57582  -0.56136
 Alpha  occ. eigenvalues --   -0.55999  -0.55332  -0.54805  -0.54033  -0.53919
 Alpha  occ. eigenvalues --   -0.53568  -0.52486  -0.51904  -0.51753  -0.51551
 Alpha  occ. eigenvalues --   -0.50488  -0.50453  -0.49960  -0.49912  -0.49734
 Alpha  occ. eigenvalues --   -0.49682  -0.49265  -0.48761  -0.48425  -0.48032
 Alpha  occ. eigenvalues --   -0.47685  -0.47273  -0.46783  -0.46389  -0.46291
 Alpha  occ. eigenvalues --   -0.46135  -0.45847  -0.45745  -0.45175  -0.44959
 Alpha  occ. eigenvalues --   -0.44862  -0.44326  -0.43867  -0.43561  -0.43444
 Alpha  occ. eigenvalues --   -0.42922  -0.42368  -0.42054  -0.41884  -0.41764
 Alpha  occ. eigenvalues --   -0.41527  -0.41485  -0.41286  -0.41198  -0.41021
 Alpha  occ. eigenvalues --   -0.40165  -0.40021  -0.39913  -0.39469  -0.38811
 Alpha  occ. eigenvalues --   -0.38605  -0.38519  -0.38258  -0.37906  -0.37883
 Alpha  occ. eigenvalues --   -0.37636  -0.37498  -0.36971  -0.36132  -0.35861
 Alpha  occ. eigenvalues --   -0.35659  -0.34776  -0.33989  -0.32377  -0.32248
 Alpha  occ. eigenvalues --   -0.31573  -0.29290  -0.27741  -0.25731  -0.22704
 Alpha  occ. eigenvalues --   -0.19867
 Alpha virt. eigenvalues --   -0.05116  -0.01556   0.02335   0.05705   0.07477
 Alpha virt. eigenvalues --    0.09317   0.09533   0.11185   0.11707   0.12049
 Alpha virt. eigenvalues --    0.12354   0.12843   0.13300   0.13647   0.13878

 Mulliken charges:
               1
     1  O   -0.579457
     2  O   -0.589824
     3  C   -0.020280
     4  C   -0.016609
     5  C   -0.197407
     6  C   -0.178646
     7  C    0.190249
     8  C    0.162826
     9  C    0.102787
    10  C    0.013801
    11  C   -0.203857
    12  C   -0.206065
    13  C    0.019122
    14  C    0.043588
    15  C   -0.294489
    16  C   -0.300949
    17  C   -0.296528
    18  C   -0.290541
    19  C   -0.117503
    20  C   -0.136484
    21  C   -0.360395
    22  C   -0.349494
    23  C   -0.105795
    24  C   -0.082475
    25  C    0.079362
    26  C    0.104242
    27  C   -0.336940
    28  C   -0.371372
    29  C   -0.103059
    30  C   -0.113147
    31  C   -0.059907
    32  C   -0.086141
    33  C   -0.135217
    34  C   -0.072252
    35  C    0.110136
    36  C    0.060102
    37  C   -0.371039
    38  C   -0.342894
    39  C   -0.114293
    40  C   -0.139018
    41  C   -0.112041
    42  C   -0.031014
    43  H    0.110473
    44  H    0.068770
    45  H    0.081440
    46  H    0.098749
    47  H    0.065669
    48  H    0.085950
    49  H    0.129359
    50  H    0.095796
    51  H    0.130576
    52  H    0.102747
    53  H    0.081658
    54  H    0.106871
    55  H    0.085078
    56  H    0.110162
    57  H    0.095178
    58  H    0.110418
    59  H    0.114645
    60  H    0.109072
    61  H    0.101401
    62  H    0.108832
    63  H    0.077943
    64  H    0.110665
    65  H    0.074654
    66  H    0.066109
    67  H    0.123109
    68  H    0.114977
    69  H    0.092398
    70  H    0.084896
    71  H    0.128044
    72  H    0.135985
    73  H    0.301529
    74  H    0.288989
    75  H    0.070096
    76  H    0.058577
    77  H    0.116917
    78  H    0.125991
    79  H    0.092653
    80  H    0.139036
    81  H    0.107059
    82  H    0.086392
    83  H    0.069077
    84  H    0.086082
    85  H    0.070412
    86  H    0.094983
    87  H    0.070331
    88  H    0.070100
    89  H    0.120270
    90  H    0.093851
    91  H    0.127246
    92  H    0.114402
    93  H    0.124921
    94  H    0.106131
    95  H    0.087414
    96  H    0.052325
    97  H    0.089481
    98  H    0.063025
 Sum of Mulliken charges =  -0.00000

 Dipole moment (field-independent basis, Debye):
    X=             -1.1563    Y=             -1.4978    Z=              1.6112  Tot=              2.4852
 Quadrupole moment (field-independent basis, Debye-Ang):
   XX=           -264.3514   YY=           -243.1823   ZZ=           -260.4297
   XY=              5.0860   XZ=             -7.7470   YZ=              0.0050

 Normal termination of Gaussian 16 at Fri Jul 19 07:25:08 2019.
