 Gaussian 16, Revision A.03,
 Gaussian 16:  ES64L-G16RevA.03 25-Dec-2016

 -------------------------------------
 # td=(NStates=1) CAM-B3LYP/6-31G(d,p)
 -------------------------------------

 --
 TD
 --
 Symbolic Z-matrix:
 Charge =  0 Multiplicity = 1

                         Standard orientation:
 ---------------------------------------------------------------------
 Center     Atomic      Atomic             Coordinates (Angstroms)
 Number     Number       Type             X           Y           Z
 ---------------------------------------------------------------------
      1          8           0       14.782950   -2.225033   -0.092276
      2          8           0      -14.754702    1.699736    1.148888
      3          6           0       11.161658   -1.513392    0.931888
      4          6           0      -12.311713   -1.032297    0.743132
      5          6           0       12.674871   -1.830075    1.032646
      6          6           0      -13.634095   -0.343539    0.678309
      7          6           0       13.364962   -1.913097   -0.332774
      8          6           0      -13.580018    1.097083    1.010867
      9          6           0       10.969023   -0.378548   -0.036564
     10          6           0      -11.260560   -0.217469   -0.122005
     11          6           0       13.251513   -0.575482   -1.065273
     12          6           0      -12.799276    1.794832   -0.261098
     13          6           0       11.935641    0.081652   -0.876311
     14          6           0      -11.589900    0.995261   -0.654236
     15          6           0       10.649407   -1.188949    2.378594
     16          6           0       10.411833   -2.723857    0.459170
     17          6           0      -11.667320   -1.376653    2.123444
     18          6           0      -12.605463   -2.410797    0.039385
     19          6           0        9.586603    0.318163    0.099799
     20          6           0      -10.086580   -0.956945   -0.490629
     21          6           0       11.718774    1.171851   -1.874532
     22          6           0      -10.637700    1.814683   -1.500212
     23          6           0        9.396585    1.677167    0.122377
     24          6           0       -8.792134   -0.358383   -0.530898
     25          6           0        8.101751    2.295961    0.242110
     26          6           0       -7.577933   -1.130422   -0.823656
     27          6           0        8.040976    3.783897    0.566094
     28          6           0       -7.735519   -2.703146   -1.029084
     29          6           0        6.941056    1.585087    0.099918
     30          6           0       -6.368386   -0.563269   -0.632252
     31          6           0        5.664988    2.037284    0.273145
     32          6           0       -5.071835   -1.018640   -0.826815
     33          6           0        4.442618    1.388475    0.040753
     34          6           0       -3.980045   -0.228430   -0.319924
     35          6           0        3.097531    1.750838    0.137471
     36          6           0       -2.685675   -0.619132   -0.444316
     37          6           0        2.850665    3.172673    0.548039
     38          6           0       -2.326721   -2.038564   -0.914254
     39          6           0        2.138227    0.768431   -0.177567
     40          6           0       -1.630948    0.230691   -0.264461
     41          6           0        0.723019    0.935035    0.025831
     42          6           0       -0.218838    0.025441   -0.268808
     43          1           0       12.957065   -0.846734    1.692713
     44          1           0       12.867606   -2.782949    1.641608
     45          1           0      -14.370617   -0.746749    1.462460
     46          1           0      -14.357394   -0.624645   -0.226745
     47          1           0       12.968371   -2.748939   -1.096325
     48          1           0      -12.861030    1.166525    2.000408
     49          1           0       14.082972    0.028197   -0.531049
     50          1           0       13.547124   -0.604328   -2.029551
     51          1           0      -13.537194    1.874130   -1.259614
     52          1           0      -12.583161    2.862168   -0.227096
     53          1           0       10.850965   -2.030913    3.235020
     54          1           0        9.610093   -0.997512    2.459654
     55          1           0       11.213212   -0.188782    2.655973
     56          1           0       10.524187   -3.258217   -0.658270
     57          1           0       10.572831   -3.498924    1.104040
     58          1           0        9.324327   -2.595073    0.564354
     59          1           0      -11.435396   -0.536661    2.826757
     60          1           0      -10.789460   -1.806981    1.986270
     61          1           0      -12.391874   -1.798116    2.836096
     62          1           0      -13.622531   -2.903536    0.510987
     63          1           0      -11.730288   -3.205017    0.053021
     64          1           0      -13.031995   -2.096407   -1.059560
     65          1           0        8.816772   -0.463841    0.190530
     66          1           0      -10.187811   -1.987889   -0.450469
     67          1           0       10.742997    1.190172   -2.156956
     68          1           0       12.015418    2.255001   -1.731558
     69          1           0       12.341917    0.814630   -2.759892
     70          1           0      -11.215967    2.447797   -2.096906
     71          1           0      -10.169201    1.068308   -2.125111
     72          1           0       -9.957578    2.558536   -0.880593
     73          1           0       14.799865   -3.197992    0.173847
     74          1           0      -15.138136    1.088962    1.683371
     75          1           0       10.311437    2.432274    0.126400
     76          1           0       -8.463917    0.596304   -0.500868
     77          1           0        9.065149    4.328706    0.457978
     78          1           0        7.296180    4.309035   -0.288976
     79          1           0        7.658084    3.881851    1.456508
     80          1           0       -7.798100   -3.084965   -0.064799
     81          1           0       -8.674120   -2.833270   -1.691206
     82          1           0       -6.638821   -2.965086   -1.693136
     83          1           0        7.029193    0.454850   -0.219930
     84          1           0       -6.620517    0.503943   -0.302156
     85          1           0        5.471252    3.094533    0.531618
     86          1           0       -5.025236   -2.026513   -1.153541
     87          1           0        4.611082    0.259863   -0.271050
     88          1           0       -4.116286    0.719535    0.106288
     89          1           0        3.231993    3.416965    1.618133
     90          1           0        1.794737    3.266487    0.583333
     91          1           0        3.204486    4.053535   -0.121254
     92          1           0       -2.715458   -2.574711    0.011800
     93          1           0       -2.835671   -2.269850   -1.938736
     94          1           0       -1.275572   -2.251337   -0.934931
     95          1           0        2.461818   -0.188811   -0.575205
     96          1           0       -1.758100    1.102406   -0.030825
     97          1           0        0.289115    1.736463    0.751162
     98          1           0        0.048925   -1.014574   -0.740742
 ---------------------------------------------------------------------

 SCF Done:  E(RCAM-B3LYP) =  -1706.93144062     A.U. after   15 cycles

 Excitation energies and oscillator strengths:

 Excited State   1:      Singlet-A      2.0938 eV  592.14 nm  f=3.8883  <S**2>=0.000
     155 ->158         0.16738
     156 ->157         0.68633
 This state for optimization and/or second-order correction.
 Total Energy, E(TD-HF/TD-DFT) =  -1706.85449412
 Copying the excited state density for this state as the 1-particle RhoCI density.

 The electronic state is 1-A.
 Alpha  occ. eigenvalues --  -19.22036 -19.20927 -10.31928 -10.31559 -10.28594
 Alpha  occ. eigenvalues --  -10.28302 -10.27822 -10.27773 -10.27487 -10.27361
 Alpha  occ. eigenvalues --  -10.27329 -10.27149 -10.27102 -10.27082 -10.26977
 Alpha  occ. eigenvalues --  -10.26882 -10.26742 -10.26714 -10.26620 -10.26590
 Alpha  occ. eigenvalues --  -10.26589 -10.26548 -10.26459 -10.26455 -10.26441
 Alpha  occ. eigenvalues --  -10.26428 -10.26405 -10.26378 -10.26354 -10.26322
 Alpha  occ. eigenvalues --  -10.26216 -10.26156 -10.25953 -10.25863 -10.25831
 Alpha  occ. eigenvalues --  -10.25757 -10.24890 -10.24742 -10.24739 -10.24505
 Alpha  occ. eigenvalues --  -10.24379 -10.24020  -1.15789  -1.06937  -0.93564
 Alpha  occ. eigenvalues --   -0.93459  -0.92724  -0.91671  -0.90698  -0.90066
 Alpha  occ. eigenvalues --   -0.87547  -0.87457  -0.86838  -0.85078  -0.84388
 Alpha  occ. eigenvalues --   -0.82616  -0.81783  -0.79793  -0.79459  -0.78279
 Alpha  occ. eigenvalues --   -0.76652  -0.76306  -0.76259  -0.76060  -0.75775
 Alpha  occ. eigenvalues --   -0.75493  -0.74999  -0.74262  -0.73431  -0.71423
 Alpha  occ. eigenvalues --   -0.69254  -0.67504  -0.66163  -0.64940  -0.64641
 Alpha  occ. eigenvalues --   -0.63820  -0.63505  -0.61591  -0.60956  -0.59268
 Alpha  occ. eigenvalues --   -0.58943  -0.58638  -0.57868  -0.57013  -0.56747
 Alpha  occ. eigenvalues --   -0.55737  -0.55074  -0.54497  -0.54193  -0.53899
 Alpha  occ. eigenvalues --   -0.53318  -0.52899  -0.52193  -0.51545  -0.50758
 Alpha  occ. eigenvalues --   -0.50563  -0.50378  -0.50127  -0.49602  -0.49404
 Alpha  occ. eigenvalues --   -0.49077  -0.48896  -0.48821  -0.48692  -0.48182
 Alpha  occ. eigenvalues --   -0.47670  -0.47493  -0.47191  -0.46368  -0.46152
 Alpha  occ. eigenvalues --   -0.45958  -0.45582  -0.45494  -0.45202  -0.45011
 Alpha  occ. eigenvalues --   -0.44622  -0.44547  -0.43752  -0.43676  -0.43391
 Alpha  occ. eigenvalues --   -0.43332  -0.43221  -0.43096  -0.42634  -0.41607
 Alpha  occ. eigenvalues --   -0.41558  -0.41357  -0.41237  -0.40847  -0.40399
 Alpha  occ. eigenvalues --   -0.40323  -0.39753  -0.39539  -0.39427  -0.39354
 Alpha  occ. eigenvalues --   -0.39064  -0.38546  -0.38501  -0.38251  -0.38094
 Alpha  occ. eigenvalues --   -0.37427  -0.37323  -0.36729  -0.36451  -0.35849
 Alpha  occ. eigenvalues --   -0.35311  -0.34838  -0.33619  -0.32540  -0.32424
 Alpha  occ. eigenvalues --   -0.31942  -0.30195  -0.28169  -0.26372  -0.22831
 Alpha  occ. eigenvalues --   -0.19331
 Alpha virt. eigenvalues --   -0.06306  -0.01995   0.02376   0.05116   0.07853
 Alpha virt. eigenvalues --    0.09631   0.10950   0.11234   0.11706   0.11957
 Alpha virt. eigenvalues --    0.12023   0.12802   0.12851   0.13176   0.13636

 Mulliken charges:
               1
     1  O   -0.569899
     2  O   -0.487796
     3  C   -0.032937
     4  C   -0.000434
     5  C   -0.162027
     6  C   -0.211242
     7  C    0.158768
     8  C    0.176615
     9  C    0.055735
    10  C    0.087478
    11  C   -0.222734
    12  C   -0.229662
    13  C    0.061523
    14  C    0.055665
    15  C   -0.295273
    16  C   -0.289031
    17  C   -0.297136
    18  C   -0.292565
    19  C   -0.120155
    20  C   -0.160456
    21  C   -0.364411
    22  C   -0.357603
    23  C   -0.109640
    24  C   -0.061125
    25  C    0.085560
    26  C    0.048369
    27  C   -0.354695
    28  C   -0.345366
    29  C   -0.095160
    30  C   -0.090093
    31  C   -0.093123
    32  C   -0.104105
    33  C   -0.124292
    34  C   -0.106792
    35  C    0.133023
    36  C    0.114236
    37  C   -0.378291
    38  C   -0.356585
    39  C   -0.125781
    40  C   -0.083408
    41  C   -0.105167
    42  C   -0.079669
    43  H    0.088203
    44  H    0.073818
    45  H    0.057818
    46  H    0.099905
    47  H    0.071167
    48  H    0.049267
    49  H    0.119881
    50  H    0.115133
    51  H    0.079296
    52  H    0.112668
    53  H    0.084102
    54  H    0.116320
    55  H    0.096170
    56  H    0.076532
    57  H    0.107978
    58  H    0.092854
    59  H    0.096409
    60  H    0.117572
    61  H    0.101059
    62  H    0.081971
    63  H    0.093950
    64  H    0.094002
    65  H    0.099041
    66  H    0.082231
    67  H    0.134984
    68  H    0.109609
    69  H    0.086342
    70  H    0.105896
    71  H    0.125224
    72  H    0.105684
    73  H    0.306486
    74  H    0.288683
    75  H    0.091710
    76  H    0.084520
    77  H    0.098605
    78  H    0.094858
    79  H    0.145552
    80  H    0.145049
    81  H    0.114365
    82  H    0.070626
    83  H    0.074877
    84  H    0.061226
    85  H    0.072651
    86  H    0.094501
    87  H    0.049664
    88  H    0.091695
    89  H    0.113682
    90  H    0.113184
    91  H    0.120286
    92  H    0.118152
    93  H    0.113017
    94  H    0.110475
    95  H    0.099676
    96  H    0.028970
    97  H    0.091529
    98  H    0.060550
 Sum of Mulliken charges =  -0.00000

 Dipole moment (field-independent basis, Debye):
    X=             -1.6974    Y=             -1.7065    Z=              1.4135  Tot=              2.7912
 Quadrupole moment (field-independent basis, Debye-Ang):
   XX=           -284.9088   YY=           -245.1853   ZZ=           -261.4597
   XY=              9.8381   XZ=             -9.0513   YZ=              0.0277

 Normal termination of Gaussian 16 at Fri Jul 12 04:16:01 2019.
