 Gaussian 16, Revision A.03,
 Gaussian 16:  ES64L-G16RevA.03 25-Dec-2016

 -------------------------------------
 # td=(NStates=1) CAM-B3LYP/6-31G(d,p)
 -------------------------------------

 --
 TD
 --
 Symbolic Z-matrix:
 Charge =  0 Multiplicity = 1

                         Standard orientation:
 ---------------------------------------------------------------------
 Center     Atomic      Atomic             Coordinates (Angstroms)
 Number     Number       Type             X           Y           Z
 ---------------------------------------------------------------------
      1          8           0       14.563655   -2.337387   -0.117555
      2          8           0      -14.632533    2.071909    1.086864
      3          6           0       11.019783   -1.527403    0.993702
      4          6           0      -12.306183   -0.935656    0.719086
      5          6           0       12.589963   -1.911175    1.055518
      6          6           0      -13.666580   -0.207433    0.717958
      7          6           0       13.189175   -1.996741   -0.369694
      8          6           0      -13.371097    1.333798    1.043374
      9          6           0       10.998394   -0.225439    0.077331
     10          6           0      -11.255470   -0.300506   -0.176378
     11          6           0       13.149860   -0.670917   -0.991400
     12          6           0      -12.694511    1.764665   -0.210763
     13          6           0       11.914381    0.112719   -0.892745
     14          6           0      -11.476905    0.914269   -0.580820
     15          6           0       10.720762   -1.008849    2.479023
     16          6           0       10.167608   -2.597721    0.652565
     17          6           0      -11.740318   -1.159585    2.198064
     18          6           0      -12.729515   -2.421521    0.242774
     19          6           0        9.678028    0.456181    0.255220
     20          6           0      -10.039671   -1.059279   -0.354091
     21          6           0       11.723979    1.223473   -1.775037
     22          6           0      -10.561677    1.696911   -1.457630
     23          6           0        9.371165    1.820131    0.203289
     24          6           0       -8.805129   -0.534871   -0.361357
     25          6           0        8.030755    2.277996    0.389936
     26          6           0       -7.602602   -1.298739   -0.630151
     27          6           0        7.904592    3.805632    0.575345
     28          6           0       -7.603057   -2.830512   -0.792168
     29          6           0        6.889787    1.542279    0.178968
     30          6           0       -6.393514   -0.614065   -0.601898
     31          6           0        5.565820    2.040691    0.255735
     32          6           0       -5.066943   -1.126523   -0.713033
     33          6           0        4.491019    1.294712   -0.079169
     34          6           0       -3.905966   -0.362950   -0.659900
     35          6           0        3.102930    1.629521   -0.014605
     36          6           0       -2.581926   -0.661064   -0.831066
     37          6           0        2.873502    3.177012    0.406906
     38          6           0       -2.252936   -2.176564   -1.141057
     39          6           0        2.125357    0.735141   -0.211668
     40          6           0       -1.569427    0.244623   -0.675569
     41          6           0        0.804122    1.020285   -0.418945
     42          6           0       -0.113171   -0.056000   -0.592151
     43          1           0       13.080735   -1.038348    1.553123
     44          1           0       12.855825   -2.832146    1.702203
     45          1           0      -14.252756   -0.739837    1.639016
     46          1           0      -14.066350   -0.222774   -0.236448
     47          1           0       12.833368   -2.706904   -1.194056
     48          1           0      -12.684894    1.676042    1.907897
     49          1           0       14.016456    0.169553   -0.339711
     50          1           0       13.556295   -0.681321   -2.167626
     51          1           0      -13.383197    1.838593   -1.110863
     52          1           0      -12.283546    2.839970   -0.235059
     53          1           0       11.083483   -1.833176    3.169810
     54          1           0        9.596609   -0.983430    2.596717
     55          1           0       11.177339   -0.115217    2.909319
     56          1           0       10.492138   -3.059170   -0.500607
     57          1           0       10.196236   -3.485161    1.326262
     58          1           0        9.137827   -2.480741    0.730473
     59          1           0      -11.609758   -0.208027    2.569971
     60          1           0      -10.827936   -1.919565    2.302178
     61          1           0      -12.529153   -1.616164    2.752057
     62          1           0      -13.857670   -2.736870    0.738563
     63          1           0      -12.020392   -3.068702    0.536328
     64          1           0      -13.098329   -2.458109   -0.715918
     65          1           0        8.873428   -0.138756    0.646835
     66          1           0      -10.023729   -2.245679   -0.371089
     67          1           0       10.645945    1.690754   -1.755107
     68          1           0       12.663926    2.075448   -1.682649
     69          1           0       12.113849    0.709495   -2.762390
     70          1           0      -11.328389    1.923256   -2.367360
     71          1           0       -9.658958    1.174937   -2.012019
     72          1           0       -9.985785    2.612234   -1.102613
     73          1           0       14.572880   -3.144039    0.424998
     74          1           0      -15.139370    1.477606    1.755560
     75          1           0       10.291806    2.563305    0.219086
     76          1           0       -8.647129    0.561241   -0.029434
     77          1           0        8.996576    4.305248    0.477577
     78          1           0        7.344543    4.474603   -0.133807
     79          1           0        7.324463    3.898301    1.485804
     80          1           0       -8.080812   -3.393175    0.118472
     81          1           0       -8.312326   -3.221174   -1.613500
     82          1           0       -6.652197   -3.232764   -1.074432
     83          1           0        6.977906    0.482615   -0.087940
     84          1           0       -6.504747    0.518445   -0.235468
     85          1           0        5.577762    3.016777    0.542909
     86          1           0       -5.086583   -2.236759   -0.760423
     87          1           0        4.439493    0.180146   -0.173319
     88          1           0       -3.951337    0.745655   -0.436951
     89          1           0        3.653671    3.507848    1.229461
     90          1           0        1.753763    3.231090    0.752080
     91          1           0        3.051284    3.763093   -0.532846
     92          1           0       -2.049666   -2.729067   -0.175905
     93          1           0       -3.271553   -2.539937   -1.774220
     94          1           0       -1.284253   -2.326519   -1.971096
     95          1           0        2.641379   -0.327780   -0.451978
     96          1           0       -1.825046    1.155887   -0.358053
     97          1           0        0.288857    2.032406   -0.309085
     98          1           0        0.282729   -1.218562   -0.650199
 ---------------------------------------------------------------------

 SCF Done:  E(RCAM-B3LYP) =  -1706.91582741     A.U. after   15 cycles

 Excitation energies and oscillator strengths:

 Excited State   1:      Singlet-A      2.2272 eV  556.68 nm  f=3.8201  <S**2>=0.000
     155 ->158         0.17753
     156 ->157         0.68119
 This state for optimization and/or second-order correction.
 Total Energy, E(TD-HF/TD-DFT) =  -1706.83397860
 Copying the excited state density for this state as the 1-particle RhoCI density.

 The electronic state is 1-A.
 Alpha  occ. eigenvalues --  -19.21443 -19.20662 -10.31399 -10.31239 -10.28818
 Alpha  occ. eigenvalues --  -10.28741 -10.28699 -10.28406 -10.27964 -10.27730
 Alpha  occ. eigenvalues --  -10.27721 -10.27709 -10.27611 -10.27440 -10.27310
 Alpha  occ. eigenvalues --  -10.27215 -10.27177 -10.27139 -10.27114 -10.27047
 Alpha  occ. eigenvalues --  -10.27011 -10.26956 -10.26892 -10.26790 -10.26732
 Alpha  occ. eigenvalues --  -10.26725 -10.26713 -10.26668 -10.26662 -10.26492
 Alpha  occ. eigenvalues --  -10.26408 -10.26179 -10.26179 -10.26135 -10.25948
 Alpha  occ. eigenvalues --  -10.25860 -10.25713 -10.25635 -10.25437 -10.25268
 Alpha  occ. eigenvalues --  -10.24861 -10.24725  -1.08972  -1.07395  -0.94011
 Alpha  occ. eigenvalues --   -0.93752  -0.92211  -0.91562  -0.90509  -0.89830
 Alpha  occ. eigenvalues --   -0.88393  -0.87019  -0.86501  -0.85495  -0.84371
 Alpha  occ. eigenvalues --   -0.83007  -0.81599  -0.80130  -0.79187  -0.77064
 Alpha  occ. eigenvalues --   -0.76698  -0.76334  -0.76069  -0.75339  -0.74954
 Alpha  occ. eigenvalues --   -0.74727  -0.74644  -0.74272  -0.73500  -0.71070
 Alpha  occ. eigenvalues --   -0.69117  -0.67105  -0.65865  -0.64635  -0.64157
 Alpha  occ. eigenvalues --   -0.63825  -0.62736  -0.61216  -0.59955  -0.59260
 Alpha  occ. eigenvalues --   -0.58702  -0.57830  -0.57623  -0.57201  -0.55739
 Alpha  occ. eigenvalues --   -0.55502  -0.54852  -0.54478  -0.54034  -0.53437
 Alpha  occ. eigenvalues --   -0.53166  -0.52621  -0.51889  -0.51680  -0.51021
 Alpha  occ. eigenvalues --   -0.50485  -0.50116  -0.49837  -0.49448  -0.49022
 Alpha  occ. eigenvalues --   -0.48558  -0.48073  -0.47937  -0.47818  -0.47551
 Alpha  occ. eigenvalues --   -0.47438  -0.47138  -0.46682  -0.46574  -0.46329
 Alpha  occ. eigenvalues --   -0.46097  -0.45918  -0.45094  -0.44645  -0.44103
 Alpha  occ. eigenvalues --   -0.43962  -0.43906  -0.43771  -0.43538  -0.43254
 Alpha  occ. eigenvalues --   -0.42666  -0.42441  -0.42156  -0.42134  -0.41625
 Alpha  occ. eigenvalues --   -0.41477  -0.41387  -0.41039  -0.40633  -0.40467
 Alpha  occ. eigenvalues --   -0.40315  -0.39999  -0.39806  -0.39581  -0.39196
 Alpha  occ. eigenvalues --   -0.39105  -0.38928  -0.38458  -0.38381  -0.37811
 Alpha  occ. eigenvalues --   -0.37122  -0.36866  -0.36535  -0.35986  -0.35963
 Alpha  occ. eigenvalues --   -0.35587  -0.35098  -0.34531  -0.32873  -0.31941
 Alpha  occ. eigenvalues --   -0.31657  -0.30231  -0.28601  -0.26279  -0.23114
 Alpha  occ. eigenvalues --   -0.19763
 Alpha virt. eigenvalues --   -0.05873  -0.01795   0.01949   0.05194   0.07386
 Alpha virt. eigenvalues --    0.09578   0.10860   0.10939   0.11226   0.11418
 Alpha virt. eigenvalues --    0.11610   0.12052   0.12274   0.12877   0.12981

 Mulliken charges:
               1
     1  O   -0.563656
     2  O   -0.564926
     3  C   -0.001507
     4  C   -0.057434
     5  C   -0.206798
     6  C   -0.193056
     7  C    0.186592
     8  C    0.155065
     9  C    0.034196
    10  C    0.139321
    11  C   -0.200346
    12  C   -0.229345
    13  C    0.139202
    14  C    0.034489
    15  C   -0.314467
    16  C   -0.288234
    17  C   -0.295949
    18  C   -0.288654
    19  C   -0.113511
    20  C   -0.142149
    21  C   -0.358976
    22  C   -0.369129
    23  C   -0.141999
    24  C   -0.092621
    25  C    0.071866
    26  C    0.119097
    27  C   -0.377613
    28  C   -0.378310
    29  C   -0.100309
    30  C   -0.125146
    31  C   -0.063362
    32  C   -0.108497
    33  C   -0.114169
    34  C   -0.106955
    35  C    0.111028
    36  C    0.129749
    37  C   -0.356352
    38  C   -0.348363
    39  C   -0.129455
    40  C   -0.133465
    41  C   -0.091445
    42  C   -0.087454
    43  H    0.120703
    44  H    0.069967
    45  H    0.073454
    46  H    0.126322
    47  H    0.089851
    48  H    0.090603
    49  H    0.070436
    50  H    0.080889
    51  H    0.118855
    52  H    0.104886
    53  H    0.088398
    54  H    0.092127
    55  H    0.119639
    56  H    0.071550
    57  H    0.103145
    58  H    0.114500
    59  H    0.108663
    60  H    0.095257
    61  H    0.103204
    62  H    0.050006
    63  H    0.106162
    64  H    0.114950
    65  H    0.092465
    66  H    0.078460
    67  H    0.131180
    68  H    0.085776
    69  H    0.096178
    70  H    0.086399
    71  H    0.110746
    72  H    0.114533
    73  H    0.302742
    74  H    0.303819
    75  H    0.103367
    76  H    0.093472
    77  H    0.093409
    78  H    0.120353
    79  H    0.127185
    80  H    0.113374
    81  H    0.111757
    82  H    0.118131
    83  H    0.075929
    84  H    0.069416
    85  H    0.073959
    86  H    0.089914
    87  H    0.068479
    88  H    0.074195
    89  H    0.110004
    90  H    0.096088
    91  H    0.126822
    92  H    0.128184
    93  H    0.088291
    94  H    0.084123
    95  H    0.076567
    96  H    0.074123
    97  H    0.102152
    98  H    0.087888
 Sum of Mulliken charges =  -0.00000

 Dipole moment (field-independent basis, Debye):
    X=              0.6384    Y=             -2.1798    Z=              1.9137  Tot=              2.9701
 Quadrupole moment (field-independent basis, Debye-Ang):
   XX=           -287.1947   YY=           -246.9553   ZZ=           -264.4662
   XY=             14.2221   XZ=             -0.5523   YZ=             -1.7342

 Normal termination of Gaussian 16 at Fri Jul 19 13:15:48 2019.
