 Gaussian 16, Revision A.03,
 Gaussian 16:  ES64L-G16RevA.03 25-Dec-2016

 -------------------------------------
 # td=(NStates=1) CAM-B3LYP/6-31G(d,p)
 -------------------------------------

 --
 TD
 --
 Symbolic Z-matrix:
 Charge =  0 Multiplicity = 1

                         Standard orientation:
 ---------------------------------------------------------------------
 Center     Atomic      Atomic             Coordinates (Angstroms)
 Number     Number       Type             X           Y           Z
 ---------------------------------------------------------------------
      1          8           0       14.687424   -2.338087   -0.237053
      2          8           0      -14.892226    1.727956    1.104383
      3          6           0       11.219435   -1.440217    1.080269
      4          6           0      -12.257449   -1.094873    0.769119
      5          6           0       12.660099   -1.904957    1.171148
      6          6           0      -13.708967   -0.370595    0.856582
      7          6           0       13.323727   -1.897863   -0.319082
      8          6           0      -13.535684    1.114028    1.081180
      9          6           0       11.030673   -0.276281    0.126593
     10          6           0      -11.358298   -0.215934   -0.071191
     11          6           0       13.380074   -0.547727   -0.975826
     12          6           0      -12.815439    1.720440   -0.015905
     13          6           0       11.985859    0.029321   -0.901142
     14          6           0      -11.657810    1.063121   -0.398879
     15          6           0       10.848153   -1.137434    2.435587
     16          6           0       10.366473   -2.590282    0.619070
     17          6           0      -11.639138   -1.413518    2.124142
     18          6           0      -12.512822   -2.469049    0.160743
     19          6           0        9.674459    0.350230    0.239544
     20          6           0      -10.111963   -0.907800   -0.462772
     21          6           0       11.801355    1.202186   -1.857797
     22          6           0      -10.736100    1.765604   -1.542434
     23          6           0        9.392396    1.704793    0.064126
     24          6           0       -8.856964   -0.408316   -0.522656
     25          6           0        8.059690    2.388095    0.248733
     26          6           0       -7.609627   -1.143298   -0.837411
     27          6           0        7.974921    3.812291    0.566450
     28          6           0       -7.647588   -2.552813   -1.308062
     29          6           0        7.032976    1.540445   -0.002345
     30          6           0       -6.430474   -0.413538   -0.542949
     31          6           0        5.652457    1.956822    0.138311
     32          6           0       -5.107632   -0.960473   -0.665486
     33          6           0        4.467961    1.202162   -0.078588
     34          6           0       -3.972856   -0.251886   -0.447884
     35          6           0        3.166804    1.664943    0.126726
     36          6           0       -2.662459   -0.706804   -0.626619
     37          6           0        2.853390    3.111275    0.540296
     38          6           0       -2.419412   -2.110392   -1.177793
     39          6           0        2.121436    0.710254   -0.161099
     40          6           0       -1.584174    0.209751   -0.347807
     41          6           0        0.756752    0.920298   -0.060713
     42          6           0       -0.265166   -0.009736   -0.530797
     43          1           0       13.277952   -1.268727    1.946388
     44          1           0       12.580685   -2.822305    1.501232
     45          1           0      -14.342417   -0.951060    1.727569
     46          1           0      -14.069736   -0.608767   -0.240764
     47          1           0       12.776924   -2.615313   -0.988624
     48          1           0      -12.959129    1.441224    2.014431
     49          1           0       14.219026    0.101860   -0.502044
     50          1           0       13.711834   -0.519340   -1.920468
     51          1           0      -13.422213    1.745622   -0.993828
     52          1           0      -12.598255    2.797853   -0.091564
     53          1           0       11.121560   -2.153463    3.062886
     54          1           0        9.785667   -0.920147    2.728286
     55          1           0       11.338106   -0.275782    3.044091
     56          1           0       10.535317   -3.086334   -0.429090
     57          1           0       10.457210   -3.427554    1.310629
     58          1           0        9.290095   -2.383947    0.729734
     59          1           0      -11.542611   -0.411541    2.721614
     60          1           0      -10.509385   -1.686767    1.980062
     61          1           0      -12.237869   -2.019577    2.730477
     62          1           0      -13.513502   -2.721324    0.589015
     63          1           0      -11.795288   -3.209837    0.457600
     64          1           0      -12.622839   -2.266563   -0.852328
     65          1           0        8.842529   -0.227113    0.421953
     66          1           0      -10.109141   -2.005085   -0.811229
     67          1           0       10.663195    0.885591   -2.204557
     68          1           0       11.501412    2.299715   -1.438602
     69          1           0       12.494825    1.208158   -2.708409
     70          1           0      -11.247056    2.366046   -2.167241
     71          1           0      -10.351788    0.990509   -2.272247
     72          1           0       -9.752742    2.228795   -1.321372
     73          1           0       14.765298   -3.173442    0.270604
     74          1           0      -15.341096    1.736949    2.021768
     75          1           0       10.194164    2.505300    0.073311
     76          1           0       -8.605124    0.714108   -0.116179
     77          1           0        8.864784    4.304978    0.764716
     78          1           0        7.474642    4.677698   -0.171525
     79          1           0        7.261450    3.977136    1.325153
     80          1           0       -8.450649   -3.152905   -0.573759
     81          1           0       -8.037608   -2.474433   -2.203712
     82          1           0       -6.715775   -3.256364   -1.402632
     83          1           0        6.970601    0.401254   -0.383091
     84          1           0       -6.643821    0.559774   -0.339503
     85          1           0        5.613509    3.137482    0.214894
     86          1           0       -4.943524   -1.893068   -1.148508
     87          1           0        4.610874    0.274792   -0.439631
     88          1           0       -4.169398    0.876915   -0.345107
     89          1           0        3.827298    3.602675    1.217482
     90          1           0        1.712418    3.126338    1.243760
     91          1           0        2.658881    3.919564   -0.494519
     92          1           0       -3.567032   -2.603779   -0.769206
     93          1           0       -2.380578   -1.963321   -2.434911
     94          1           0       -1.289255   -2.405206   -0.801972
     95          1           0        2.422621   -0.384720   -0.624145
     96          1           0       -1.839344    1.255783    0.013789
     97          1           0        0.329543    1.744041    0.057496
     98          1           0        0.118770   -0.964972   -0.877106
 ---------------------------------------------------------------------

 SCF Done:  E(RCAM-B3LYP) =  -1706.82365084     A.U. after   15 cycles

 Excitation energies and oscillator strengths:

 Excited State   1:      Singlet-A      1.8395 eV  674.01 nm  f=3.5534  <S**2>=0.000
     155 ->158        -0.12542
     156 ->157         0.70252
     156 <-157        -0.12442
 This state for optimization and/or second-order correction.
 Total Energy, E(TD-HF/TD-DFT) =  -1706.75605042
 Copying the excited state density for this state as the 1-particle RhoCI density.

 The electronic state is 1-A.
 Alpha  occ. eigenvalues --  -19.20845 -19.20151 -10.31660 -10.31609 -10.30715
 Alpha  occ. eigenvalues --  -10.30324 -10.28419 -10.28257 -10.28040 -10.27937
 Alpha  occ. eigenvalues --  -10.27888 -10.27628 -10.27435 -10.27360 -10.27118
 Alpha  occ. eigenvalues --  -10.27108 -10.27056 -10.26999 -10.26981 -10.26763
 Alpha  occ. eigenvalues --  -10.26621 -10.26615 -10.26585 -10.26551 -10.26530
 Alpha  occ. eigenvalues --  -10.26467 -10.26439 -10.26252 -10.26099 -10.26046
 Alpha  occ. eigenvalues --  -10.25982 -10.25904 -10.25866 -10.25560 -10.25289
 Alpha  occ. eigenvalues --  -10.25260 -10.25146 -10.24933 -10.24894 -10.24839
 Alpha  occ. eigenvalues --  -10.24662 -10.23725  -1.07696  -1.06165  -0.94404
 Alpha  occ. eigenvalues --   -0.93855  -0.92116  -0.91405  -0.90599  -0.89720
 Alpha  occ. eigenvalues --   -0.88261  -0.87525  -0.87316  -0.84986  -0.84192
 Alpha  occ. eigenvalues --   -0.83004  -0.81125  -0.79753  -0.79339  -0.78186
 Alpha  occ. eigenvalues --   -0.76636  -0.76035  -0.75840  -0.75746  -0.75631
 Alpha  occ. eigenvalues --   -0.75283  -0.75168  -0.74221  -0.72312  -0.70570
 Alpha  occ. eigenvalues --   -0.68588  -0.67521  -0.66226  -0.64969  -0.63980
 Alpha  occ. eigenvalues --   -0.63610  -0.63149  -0.62230  -0.60248  -0.59462
 Alpha  occ. eigenvalues --   -0.58918  -0.57870  -0.57651  -0.57270  -0.55806
 Alpha  occ. eigenvalues --   -0.55411  -0.55061  -0.54892  -0.54024  -0.53531
 Alpha  occ. eigenvalues --   -0.53243  -0.52976  -0.52277  -0.51197  -0.50738
 Alpha  occ. eigenvalues --   -0.50289  -0.50120  -0.49930  -0.49538  -0.49191
 Alpha  occ. eigenvalues --   -0.48771  -0.48131  -0.47811  -0.47352  -0.47072
 Alpha  occ. eigenvalues --   -0.46758  -0.46676  -0.46424  -0.46223  -0.46139
 Alpha  occ. eigenvalues --   -0.45487  -0.45290  -0.45100  -0.44672  -0.44502
 Alpha  occ. eigenvalues --   -0.44400  -0.44131  -0.43879  -0.43736  -0.43103
 Alpha  occ. eigenvalues --   -0.42981  -0.42937  -0.42125  -0.42039  -0.41960
 Alpha  occ. eigenvalues --   -0.41281  -0.41177  -0.41056  -0.40791  -0.40618
 Alpha  occ. eigenvalues --   -0.40290  -0.40163  -0.39696  -0.39468  -0.39268
 Alpha  occ. eigenvalues --   -0.38772  -0.38527  -0.38348  -0.38001  -0.37539
 Alpha  occ. eigenvalues --   -0.36787  -0.36669  -0.36318  -0.36247  -0.35844
 Alpha  occ. eigenvalues --   -0.35701  -0.34633  -0.33887  -0.31995  -0.31794
 Alpha  occ. eigenvalues --   -0.31077  -0.29465  -0.27619  -0.25470  -0.23535
 Alpha  occ. eigenvalues --   -0.18343
 Alpha virt. eigenvalues --   -0.07246  -0.00999   0.01745   0.04984   0.07123
 Alpha virt. eigenvalues --    0.09047   0.09897   0.10589   0.10676   0.11166
 Alpha virt. eigenvalues --    0.11510   0.12116   0.12186   0.12529   0.12864

 Mulliken charges:
               1
     1  O   -0.579752
     2  O   -0.587908
     3  C   -0.006213
     4  C   -0.025975
     5  C   -0.179646
     6  C   -0.184279
     7  C    0.166839
     8  C    0.171444
     9  C    0.071173
    10  C    0.060795
    11  C   -0.191601
    12  C   -0.238228
    13  C    0.029073
    14  C    0.075153
    15  C   -0.294648
    16  C   -0.303979
    17  C   -0.292504
    18  C   -0.299423
    19  C   -0.109977
    20  C   -0.157862
    21  C   -0.352860
    22  C   -0.372764
    23  C   -0.113996
    24  C   -0.092213
    25  C    0.085129
    26  C    0.102210
    27  C   -0.381114
    28  C   -0.367517
    29  C   -0.091473
    30  C   -0.117486
    31  C   -0.121844
    32  C   -0.107990
    33  C   -0.096063
    34  C   -0.080615
    35  C    0.128201
    36  C    0.077073
    37  C   -0.321965
    38  C   -0.332540
    39  C   -0.127232
    40  C   -0.106545
    41  C   -0.054490
    42  C   -0.093231
    43  H    0.096145
    44  H    0.089133
    45  H    0.073936
    46  H    0.103187
    47  H    0.080105
    48  H    0.093629
    49  H    0.114126
    50  H    0.115192
    51  H    0.122792
    52  H    0.122020
    53  H    0.063955
    54  H    0.099072
    55  H    0.101323
    56  H    0.098013
    57  H    0.096523
    58  H    0.104066
    59  H    0.071519
    60  H    0.104977
    61  H    0.106041
    62  H    0.098489
    63  H    0.105969
    64  H    0.108626
    65  H    0.089734
    66  H    0.083932
    67  H    0.104716
    68  H    0.108405
    69  H    0.104105
    70  H    0.108301
    71  H    0.116362
    72  H    0.111558
    73  H    0.300453
    74  H    0.306818
    75  H    0.073932
    76  H    0.075968
    77  H    0.124928
    78  H    0.094680
    79  H    0.141221
    80  H    0.093715
    81  H    0.148607
    82  H    0.111267
    83  H    0.090646
    84  H    0.074077
    85  H    0.068981
    86  H    0.087520
    87  H    0.076332
    88  H    0.081417
    89  H    0.095464
    90  H    0.081936
    91  H    0.092369
    92  H    0.094265
    93  H    0.107459
    94  H    0.110253
    95  H    0.075182
    96  H    0.079556
    97  H    0.062427
    98  H    0.071418
 Sum of Mulliken charges =  -0.00000

 Dipole moment (field-independent basis, Debye):
    X=             -1.7271    Y=             -0.5575    Z=              0.7826  Tot=              1.9764
 Quadrupole moment (field-independent basis, Debye-Ang):
   XX=           -286.5294   YY=           -242.5947   ZZ=           -259.5541
   XY=              2.2502   XZ=             -3.8052   YZ=              2.7068

 Normal termination of Gaussian 16 at Tue Jul 16 04:05:49 2019.
