 Gaussian 16, Revision A.03,
 Gaussian 16:  ES64L-G16RevA.03 25-Dec-2016

 -------------------------------------
 # td=(NStates=1) CAM-B3LYP/6-31G(d,p)
 -------------------------------------

 --
 TD
 --
 Symbolic Z-matrix:
 Charge =  0 Multiplicity = 1

                         Standard orientation:
 ---------------------------------------------------------------------
 Center     Atomic      Atomic             Coordinates (Angstroms)
 Number     Number       Type             X           Y           Z
 ---------------------------------------------------------------------
      1          8           0       14.929032   -1.982867   -0.058965
      2          8           0      -14.675492    1.922382    1.041764
      3          6           0       11.290992   -1.372528    1.123120
      4          6           0      -12.334556   -1.052550    0.697785
      5          6           0       12.893371   -1.428457    1.172915
      6          6           0      -13.687116   -0.288787    0.727534
      7          6           0       13.482296   -1.874443   -0.182204
      8          6           0      -13.513585    1.178879    0.959481
      9          6           0       10.944003   -0.322434    0.028835
     10          6           0      -11.272373   -0.192685   -0.086840
     11          6           0       13.260915   -0.529631   -0.987857
     12          6           0      -12.693058    1.874582   -0.206867
     13          6           0       11.800821   -0.019567   -0.999533
     14          6           0      -11.509747    1.030685   -0.453947
     15          6           0       10.930784   -0.828872    2.520219
     16          6           0       10.546428   -2.628437    0.853303
     17          6           0      -11.767079   -1.278318    2.133645
     18          6           0      -12.716244   -2.294103    0.018729
     19          6           0        9.617824    0.279603    0.150175
     20          6           0      -10.111064   -0.984264   -0.355602
     21          6           0       11.479612    0.856482   -2.183322
     22          6           0      -10.472833    1.754127   -1.283815
     23          6           0        9.293317    1.580345   -0.002057
     24          6           0       -8.854327   -0.528131   -0.384984
     25          6           0        7.947317    2.140878    0.148631
     26          6           0       -7.639509   -1.278396   -0.682463
     27          6           0        7.825466    3.612231    0.423662
     28          6           0       -7.724888   -2.666230   -1.341933
     29          6           0        6.860293    1.405542   -0.063565
     30          6           0       -6.432933   -0.636506   -0.450202
     31          6           0        5.599337    2.005438    0.119156
     32          6           0       -5.145845   -1.124910   -0.667134
     33          6           0        4.311877    1.258913   -0.127462
     34          6           0       -4.003119   -0.432293   -0.448010
     35          6           0        3.101455    1.690657    0.076387
     36          6           0       -2.587760   -0.648495   -0.593554
     37          6           0        2.870325    3.180690    0.392829
     38          6           0       -2.373346   -2.179372   -0.921360
     39          6           0        2.059116    0.769940   -0.172399
     40          6           0       -1.642998    0.306574   -0.295466
     41          6           0        0.656626    0.981882   -0.160828
     42          6           0       -0.269260   -0.057202   -0.398028
     43          1           0       13.434520   -0.570432    1.702362
     44          1           0       13.209003   -2.396603    1.746973
     45          1           0      -14.234558   -0.651904    1.560375
     46          1           0      -14.214977   -0.484708   -0.324711
     47          1           0       13.045321   -2.709959   -0.572140
     48          1           0      -12.923325    1.295801    1.851623
     49          1           0       13.878645    0.271538   -0.570827
     50          1           0       13.715161   -0.632133   -2.158764
     51          1           0      -13.520190    1.810022   -1.037297
     52          1           0      -12.591956    2.982190    0.258074
     53          1           0       11.335142   -1.495930    3.244514
     54          1           0        9.803968   -0.596049    2.492882
     55          1           0       11.466038    0.212656    2.575930
     56          1           0       10.718833   -2.893409   -0.301258
     57          1           0       11.092342   -3.469300    1.604169
     58          1           0        9.379814   -2.620630    0.852498
     59          1           0      -11.740038   -0.351811    2.765075
     60          1           0      -10.769458   -1.702924    2.171771
     61          1           0      -12.282966   -1.963476    2.604158
     62          1           0      -13.527588   -2.910537    0.315742
     63          1           0      -11.896839   -3.060310   -0.094940
     64          1           0      -13.015029   -2.014607   -1.010678
     65          1           0        8.846238   -0.500998    0.733378
     66          1           0      -10.405317   -2.117418   -0.620735
     67          1           0       10.390842    1.029482   -2.166539
     68          1           0       11.887647    1.865482   -2.206700
     69          1           0       12.021592    0.253187   -3.158860
     70          1           0      -11.025662    2.489985   -1.853010
     71          1           0       -9.912619    0.925947   -1.914218
     72          1           0       -9.563649    2.007763   -0.658907
     73          1           0       15.251138   -2.871045    0.375957
     74          1           0      -14.999981    1.673452    1.950018
     75          1           0       10.162597    2.242176   -0.391877
     76          1           0       -8.877825    0.459254   -0.246083
     77          1           0        9.053548    4.127626    1.067877
     78          1           0        7.526695    4.063867   -0.570407
     79          1           0        6.978573    3.635142    1.193695
     80          1           0       -8.073705   -3.408321   -0.686116
     81          1           0       -8.326430   -2.734183   -2.282585
     82          1           0       -6.794885   -3.119766   -1.592008
     83          1           0        6.846959    0.391617   -0.360608
     84          1           0       -6.512661    0.438476   -0.133313
     85          1           0        5.410179    2.955214    0.323559
     86          1           0       -4.837123   -2.263184   -0.808554
     87          1           0        4.408362    0.143977   -0.382697
     88          1           0       -4.180430    0.617893   -0.016871
     89          1           0        3.619123    3.535299    1.171103
     90          1           0        1.762501    3.038236    1.005807
     91          1           0        2.828959    3.841202   -0.482605
     92          1           0       -2.464041   -2.743961   -0.022746
     93          1           0       -3.146462   -2.466963   -1.641753
     94          1           0       -1.199237   -2.228390   -1.159079
     95          1           0        2.396827   -0.272800   -0.272635
     96          1           0       -1.956651    1.175056    0.053924
     97          1           0        0.247556    1.917183   -0.041699
     98          1           0        0.123964   -1.229104   -0.324494
 ---------------------------------------------------------------------

 SCF Done:  E(RCAM-B3LYP) =  -1706.90538930     A.U. after   15 cycles

 Excitation energies and oscillator strengths:

 Excited State   1:      Singlet-A      2.0580 eV  602.46 nm  f=3.6281  <S**2>=0.000
     155 ->158        -0.13358
     156 ->157         0.69742
     156 <-157        -0.10426
 This state for optimization and/or second-order correction.
 Total Energy, E(TD-HF/TD-DFT) =  -1706.82976069
 Copying the excited state density for this state as the 1-particle RhoCI density.

 The electronic state is 1-A.
 Alpha  occ. eigenvalues --  -19.21588 -19.21322 -10.30401 -10.29346 -10.29136
 Alpha  occ. eigenvalues --  -10.28513 -10.28085 -10.28050 -10.28044 -10.27669
 Alpha  occ. eigenvalues --  -10.27637 -10.27220 -10.27066 -10.26991 -10.26940
 Alpha  occ. eigenvalues --  -10.26846 -10.26794 -10.26788 -10.26741 -10.26597
 Alpha  occ. eigenvalues --  -10.26593 -10.26473 -10.26461 -10.26416 -10.26412
 Alpha  occ. eigenvalues --  -10.26319 -10.26243 -10.26241 -10.26061 -10.25982
 Alpha  occ. eigenvalues --  -10.25966 -10.25876 -10.25413 -10.25138 -10.25062
 Alpha  occ. eigenvalues --  -10.25040 -10.24938 -10.24921 -10.24756 -10.24693
 Alpha  occ. eigenvalues --  -10.24311 -10.23439  -1.10651  -1.06687  -0.94164
 Alpha  occ. eigenvalues --   -0.93200  -0.92529  -0.91785  -0.90972  -0.90133
 Alpha  occ. eigenvalues --   -0.87966  -0.86981  -0.86348  -0.85190  -0.84646
 Alpha  occ. eigenvalues --   -0.82736  -0.81278  -0.79879  -0.79271  -0.78183
 Alpha  occ. eigenvalues --   -0.77591  -0.76746  -0.75951  -0.75509  -0.75420
 Alpha  occ. eigenvalues --   -0.75026  -0.74911  -0.73611  -0.73166  -0.70769
 Alpha  occ. eigenvalues --   -0.68591  -0.67231  -0.65510  -0.64731  -0.64072
 Alpha  occ. eigenvalues --   -0.63032  -0.62361  -0.62115  -0.60983  -0.60047
 Alpha  occ. eigenvalues --   -0.59508  -0.58779  -0.58463  -0.57976  -0.56635
 Alpha  occ. eigenvalues --   -0.55304  -0.54750  -0.54103  -0.53887  -0.53231
 Alpha  occ. eigenvalues --   -0.52927  -0.52789  -0.51786  -0.50836  -0.50707
 Alpha  occ. eigenvalues --   -0.50300  -0.50209  -0.50138  -0.49512  -0.49087
 Alpha  occ. eigenvalues --   -0.48864  -0.48626  -0.48425  -0.48035  -0.47845
 Alpha  occ. eigenvalues --   -0.47636  -0.47294  -0.46940  -0.46456  -0.46049
 Alpha  occ. eigenvalues --   -0.45936  -0.45505  -0.45462  -0.45323  -0.44719
 Alpha  occ. eigenvalues --   -0.44459  -0.44138  -0.43756  -0.43457  -0.43221
 Alpha  occ. eigenvalues --   -0.42889  -0.42743  -0.42505  -0.42000  -0.41881
 Alpha  occ. eigenvalues --   -0.41326  -0.41079  -0.40777  -0.40679  -0.40474
 Alpha  occ. eigenvalues --   -0.40231  -0.40045  -0.39778  -0.39653  -0.39458
 Alpha  occ. eigenvalues --   -0.38761  -0.38629  -0.38437  -0.38169  -0.37848
 Alpha  occ. eigenvalues --   -0.37485  -0.36432  -0.36333  -0.36260  -0.35696
 Alpha  occ. eigenvalues --   -0.34827  -0.34194  -0.33326  -0.32760  -0.31805
 Alpha  occ. eigenvalues --   -0.30937  -0.30457  -0.28436  -0.26543  -0.23588
 Alpha  occ. eigenvalues --   -0.19024
 Alpha virt. eigenvalues --   -0.06530  -0.01059   0.02620   0.05347   0.08038
 Alpha virt. eigenvalues --    0.08811   0.09893   0.10465   0.10771   0.11359
 Alpha virt. eigenvalues --    0.11569   0.11902   0.12322   0.13182   0.13532

 Mulliken charges:
               1
     1  O   -0.578895
     2  O   -0.543999
     3  C   -0.016362
     4  C   -0.007503
     5  C   -0.182842
     6  C   -0.165897
     7  C    0.178063
     8  C    0.134929
     9  C    0.065837
    10  C    0.072107
    11  C   -0.205801
    12  C   -0.240007
    13  C    0.049995
    14  C    0.073137
    15  C   -0.275747
    16  C   -0.281745
    17  C   -0.311937
    18  C   -0.322018
    19  C   -0.113795
    20  C   -0.111805
    21  C   -0.353396
    22  C   -0.386637
    23  C   -0.119278
    24  C   -0.080238
    25  C    0.059516
    26  C    0.102219
    27  C   -0.330638
    28  C   -0.376150
    29  C   -0.053282
    30  C   -0.132449
    31  C   -0.121153
    32  C   -0.079141
    33  C   -0.132809
    34  C   -0.114105
    35  C    0.139052
    36  C    0.091103
    37  C   -0.358782
    38  C   -0.371587
    39  C   -0.136049
    40  C   -0.093911
    41  C   -0.083997
    42  C   -0.095205
    43  H    0.117915
    44  H    0.047271
    45  H    0.080647
    46  H    0.082720
    47  H    0.099996
    48  H    0.075396
    49  H    0.129707
    50  H    0.057379
    51  H    0.115291
    52  H    0.108459
    53  H    0.107490
    54  H    0.090724
    55  H    0.090420
    56  H    0.090010
    57  H    0.078498
    58  H    0.110557
    59  H    0.094630
    60  H    0.110859
    61  H    0.107598
    62  H    0.111530
    63  H    0.085729
    64  H    0.106659
    65  H    0.067038
    66  H    0.077352
    67  H    0.120124
    68  H    0.120714
    69  H    0.081035
    70  H    0.108253
    71  H    0.112215
    72  H    0.122760
    73  H    0.303291
    74  H    0.303060
    75  H    0.093667
    76  H    0.053318
    77  H    0.047618
    78  H    0.136058
    79  H    0.126755
    80  H    0.124387
    81  H    0.120665
    82  H    0.113186
    83  H    0.090510
    84  H    0.087866
    85  H    0.071138
    86  H    0.075340
    87  H    0.066905
    88  H    0.050312
    89  H    0.117658
    90  H    0.081247
    91  H    0.138563
    92  H    0.137812
    93  H    0.125908
    94  H    0.087699
    95  H    0.080600
    96  H    0.087969
    97  H    0.086670
    98  H    0.094028
 Sum of Mulliken charges =  -0.00000

 Dipole moment (field-independent basis, Debye):
    X=             -0.6290    Y=             -2.1875    Z=              2.1774  Tot=              3.1499
 Quadrupole moment (field-independent basis, Debye-Ang):
   XX=           -278.3156   YY=           -244.3170   ZZ=           -263.4762
   XY=              5.8414   XZ=            -10.1633   YZ=              0.7826

 Normal termination of Gaussian 16 at Mon Jul  8 13:17:49 2019.
