 Gaussian 16, Revision A.03,
 Gaussian 16:  ES64L-G16RevA.03 25-Dec-2016

 -------------------------------------
 # td=(NStates=1) CAM-B3LYP/6-31G(d,p)
 -------------------------------------

 --
 TD
 --
 Symbolic Z-matrix:
 Charge =  0 Multiplicity = 1

                         Standard orientation:
 ---------------------------------------------------------------------
 Center     Atomic      Atomic             Coordinates (Angstroms)
 Number     Number       Type             X           Y           Z
 ---------------------------------------------------------------------
      1          8           0       14.619579   -2.355642   -0.298361
      2          8           0      -14.794377    1.702040    1.004575
      3          6           0       11.152845   -1.561275    1.006072
      4          6           0      -12.353277   -1.076097    0.538531
      5          6           0       12.613772   -2.106377    0.989216
      6          6           0      -13.631977   -0.412764    0.667332
      7          6           0       13.215316   -1.978939   -0.358347
      8          6           0      -13.518449    1.118730    1.058253
      9          6           0       10.903868   -0.311203    0.038685
     10          6           0      -11.358802   -0.314124   -0.264163
     11          6           0       13.286250   -0.547109   -0.934588
     12          6           0      -12.862056    1.700802   -0.179857
     13          6           0       11.897120    0.079165   -0.798689
     14          6           0      -11.626398    1.014616   -0.516824
     15          6           0       10.723543   -1.193719    2.489302
     16          6           0       10.167656   -2.812012    0.473851
     17          6           0      -11.710608   -1.228954    1.947199
     18          6           0      -12.712574   -2.513860   -0.071352
     19          6           0        9.723684    0.410593    0.192289
     20          6           0      -10.116794   -0.963229   -0.506698
     21          6           0       11.716540    1.189503   -1.843763
     22          6           0      -10.704355    1.853100   -1.398955
     23          6           0        9.429469    1.728081    0.045106
     24          6           0       -8.736174   -0.576882   -0.356159
     25          6           0        8.083631    2.340601    0.293388
     26          6           0       -7.508154   -1.214103   -0.574263
     27          6           0        7.895173    3.833870    0.587573
     28          6           0       -7.597073   -2.715839   -0.880487
     29          6           0        6.929516    1.635129   -0.006060
     30          6           0       -6.396643   -0.508659   -0.362132
     31          6           0        5.677498    2.050474    0.162400
     32          6           0       -4.994476   -0.928771   -0.544236
     33          6           0        4.486401    1.252711   -0.073204
     34          6           0       -3.873567   -0.166381   -0.425936
     35          6           0        3.181414    1.770357    0.245116
     36          6           0       -2.516748   -0.612074   -0.562323
     37          6           0        3.002337    3.172766    0.648815
     38          6           0       -2.227371   -2.019828   -0.972713
     39          6           0        2.113189    0.890363   -0.183847
     40          6           0       -1.532104    0.343342   -0.495631
     41          6           0        0.761196    1.123302   -0.139078
     42          6           0       -0.217458    0.152473   -0.469274
     43          1           0       12.991133   -1.523572    1.721454
     44          1           0       12.596783   -3.103236    1.452274
     45          1           0      -14.366197   -0.878272    1.267049
     46          1           0      -14.162575   -0.342843   -0.169766
     47          1           0       12.727125   -2.781846   -1.080260
     48          1           0      -12.865917    1.337698    1.981157
     49          1           0       14.069850    0.156391   -0.217670
     50          1           0       13.639212   -0.526334   -2.034637
     51          1           0      -13.541844    1.707371   -1.053887
     52          1           0      -12.818399    2.748312    0.036684
     53          1           0       10.647513   -2.106347    3.221366
     54          1           0        9.701052   -0.948797    2.365675
     55          1           0       11.397373   -0.300265    2.886052
     56          1           0       10.695391   -3.117556   -0.507068
     57          1           0       10.522348   -3.598356    1.384418
     58          1           0        9.215512   -2.431851    0.294186
     59          1           0      -11.365450   -0.289258    2.507629
     60          1           0      -10.803803   -1.829502    2.153546
     61          1           0      -12.438760   -1.575014    2.786898
     62          1           0      -13.508093   -2.933216    0.413745
     63          1           0      -11.985958   -3.100286    0.056134
     64          1           0      -12.845185   -2.155319   -1.042064
     65          1           0        8.852785   -0.422641    0.215616
     66          1           0      -10.273481   -2.041548   -0.901329
     67          1           0       10.853711    1.382955   -2.223962
     68          1           0       12.065791    2.311754   -1.364364
     69          1           0       12.312283    0.908099   -2.697993
     70          1           0      -11.213240    2.451585   -2.066094
     71          1           0       -9.996290    1.301340   -2.124902
     72          1           0       -9.980617    2.415367   -1.012351
     73          1           0       14.566052   -3.060300    0.175289
     74          1           0      -15.396690    0.946817    1.595896
     75          1           0       10.302754    2.483571   -0.096459
     76          1           0       -8.672830    0.522671    0.036221
     77          1           0        8.947610    4.081005    1.000458
     78          1           0        7.700607    4.294213   -0.546834
     79          1           0        7.063808    4.242309    1.321695
     80          1           0       -8.356496   -3.260074   -0.205817
     81          1           0       -8.039265   -2.915025   -1.791875
     82          1           0       -6.583908   -3.229470   -0.685066
     83          1           0        7.071708    0.724580   -0.526909
     84          1           0       -6.618635    0.647170   -0.120252
     85          1           0        5.423803    3.090753    0.586217
     86          1           0       -4.602640   -2.128722   -0.722773
     87          1           0        4.487405    0.322731   -0.490523
     88          1           0       -3.950997    0.798489   -0.027572
     89          1           0        3.532306    3.447997    1.692104
     90          1           0        1.812738    3.226532    0.902112
     91          1           0        3.404940    3.973759   -0.002427
     92          1           0       -3.142554   -2.748181   -0.397629
     93          1           0       -2.265387   -2.064621   -2.217360
     94          1           0       -1.121249   -2.537819   -0.596649
     95          1           0        2.276573   -0.145620   -0.718406
     96          1           0       -1.868381    1.212206   -0.026221
     97          1           0        0.380490    2.006765    0.164555
     98          1           0        0.332422   -0.804411   -0.986319
 ---------------------------------------------------------------------

 SCF Done:  E(RCAM-B3LYP) =  -1706.81984773     A.U. after   15 cycles

 Excitation energies and oscillator strengths:

 Excited State   1:      Singlet-A      1.9194 eV  645.96 nm  f=3.6584  <S**2>=0.000
     155 ->158         0.13322
     156 ->157         0.69801
     156 <-157        -0.10943
 This state for optimization and/or second-order correction.
 Total Energy, E(TD-HF/TD-DFT) =  -1706.74931218
 Copying the excited state density for this state as the 1-particle RhoCI density.

 The electronic state is 1-A.
 Alpha  occ. eigenvalues --  -19.22831 -19.19327 -10.31690 -10.30430 -10.30291
 Alpha  occ. eigenvalues --  -10.28813 -10.28616 -10.28244 -10.28184 -10.28159
 Alpha  occ. eigenvalues --  -10.28146 -10.27907 -10.27850 -10.27823 -10.27663
 Alpha  occ. eigenvalues --  -10.27496 -10.27324 -10.27245 -10.27193 -10.27171
 Alpha  occ. eigenvalues --  -10.27137 -10.27132 -10.27131 -10.27096 -10.26753
 Alpha  occ. eigenvalues --  -10.26400 -10.26195 -10.26174 -10.26079 -10.26006
 Alpha  occ. eigenvalues --  -10.25960 -10.25769 -10.25586 -10.25139 -10.25113
 Alpha  occ. eigenvalues --  -10.25022 -10.24815 -10.24374 -10.24180 -10.23346
 Alpha  occ. eigenvalues --  -10.23158 -10.22298  -1.11287  -1.08503  -0.94528
 Alpha  occ. eigenvalues --   -0.93239  -0.92728  -0.91493  -0.90927  -0.89853
 Alpha  occ. eigenvalues --   -0.87460  -0.87272  -0.86624  -0.85378  -0.84601
 Alpha  occ. eigenvalues --   -0.83099  -0.81629  -0.79720  -0.79445  -0.78356
 Alpha  occ. eigenvalues --   -0.77258  -0.76870  -0.76721  -0.76207  -0.75698
 Alpha  occ. eigenvalues --   -0.75360  -0.75103  -0.74872  -0.72813  -0.70542
 Alpha  occ. eigenvalues --   -0.69150  -0.67741  -0.65975  -0.65135  -0.64858
 Alpha  occ. eigenvalues --   -0.63703  -0.62587  -0.62020  -0.60430  -0.59390
 Alpha  occ. eigenvalues --   -0.58606  -0.58284  -0.57832  -0.57359  -0.56101
 Alpha  occ. eigenvalues --   -0.55802  -0.55116  -0.54998  -0.54410  -0.54247
 Alpha  occ. eigenvalues --   -0.53116  -0.52848  -0.52466  -0.51741  -0.51374
 Alpha  occ. eigenvalues --   -0.50569  -0.50443  -0.49876  -0.49087  -0.48679
 Alpha  occ. eigenvalues --   -0.48236  -0.48075  -0.47925  -0.47601  -0.47439
 Alpha  occ. eigenvalues --   -0.47314  -0.47044  -0.46993  -0.46733  -0.46351
 Alpha  occ. eigenvalues --   -0.45985  -0.45890  -0.45755  -0.45135  -0.44875
 Alpha  occ. eigenvalues --   -0.44526  -0.44396  -0.44276  -0.44023  -0.43439
 Alpha  occ. eigenvalues --   -0.43361  -0.43126  -0.42775  -0.42662  -0.42403
 Alpha  occ. eigenvalues --   -0.41714  -0.41628  -0.41293  -0.40818  -0.40576
 Alpha  occ. eigenvalues --   -0.40459  -0.40239  -0.40184  -0.39611  -0.39277
 Alpha  occ. eigenvalues --   -0.38788  -0.38670  -0.38533  -0.37872  -0.37807
 Alpha  occ. eigenvalues --   -0.37617  -0.37347  -0.37065  -0.36692  -0.35897
 Alpha  occ. eigenvalues --   -0.35279  -0.34123  -0.33662  -0.32511  -0.32239
 Alpha  occ. eigenvalues --   -0.31829  -0.29805  -0.28196  -0.25943  -0.23374
 Alpha  occ. eigenvalues --   -0.18594
 Alpha virt. eigenvalues --   -0.06894  -0.01488   0.01379   0.04844   0.07187
 Alpha virt. eigenvalues --    0.08755   0.08966   0.09759   0.10003   0.10961
 Alpha virt. eigenvalues --    0.11787   0.12228   0.12394   0.12701   0.13329

 Mulliken charges:
               1
     1  O   -0.531221
     2  O   -0.555413
     3  C   -0.059399
     4  C   -0.025467
     5  C   -0.184605
     6  C   -0.191036
     7  C    0.154251
     8  C    0.160770
     9  C    0.094223
    10  C    0.074272
    11  C   -0.197222
    12  C   -0.232505
    13  C    0.018136
    14  C    0.057839
    15  C   -0.298143
    16  C   -0.292964
    17  C   -0.312307
    18  C   -0.291426
    19  C   -0.092284
    20  C   -0.143555
    21  C   -0.332594
    22  C   -0.376780
    23  C   -0.125504
    24  C   -0.118859
    25  C    0.050402
    26  C    0.181659
    27  C   -0.349087
    28  C   -0.371938
    29  C   -0.074270
    30  C   -0.162311
    31  C   -0.095670
    32  C   -0.102357
    33  C   -0.093492
    34  C   -0.077446
    35  C    0.109758
    36  C    0.117244
    37  C   -0.374758
    38  C   -0.341192
    39  C   -0.125867
    40  C   -0.114952
    41  C   -0.061509
    42  C   -0.085375
    43  H    0.115423
    44  H    0.088148
    45  H    0.069458
    46  H    0.112752
    47  H    0.076322
    48  H    0.082058
    49  H    0.103622
    50  H    0.114170
    51  H    0.125716
    52  H    0.115504
    53  H    0.085813
    54  H    0.121417
    55  H    0.097850
    56  H    0.098706
    57  H    0.083883
    58  H    0.114753
    59  H    0.093412
    60  H    0.110102
    61  H    0.073499
    62  H    0.104536
    63  H    0.106814
    64  H    0.113725
    65  H    0.067745
    66  H    0.067507
    67  H    0.131857
    68  H    0.074709
    69  H    0.097717
    70  H    0.109454
    71  H    0.100070
    72  H    0.125577
    73  H    0.276930
    74  H    0.296192
    75  H    0.087226
    76  H    0.069784
    77  H    0.100967
    78  H    0.109864
    79  H    0.119951
    80  H    0.109607
    81  H    0.136318
    82  H    0.107179
    83  H    0.078107
    84  H    0.084093
    85  H    0.069199
    86  H    0.061218
    87  H    0.076386
    88  H    0.079354
    89  H    0.104269
    90  H    0.093974
    91  H    0.139881
    92  H    0.082542
    93  H    0.116815
    94  H    0.097975
    95  H    0.078797
    96  H    0.079469
    97  H    0.072273
    98  H    0.062259
 Sum of Mulliken charges =  -0.00000

 Dipole moment (field-independent basis, Debye):
    X=             -0.6681    Y=             -1.2208    Z=              0.9241  Tot=              1.6705
 Quadrupole moment (field-independent basis, Debye-Ang):
   XX=           -283.5724   YY=           -247.6489   ZZ=           -261.6077
   XY=             18.1231   XZ=             -0.9577   YZ=             -0.5891

 Normal termination of Gaussian 16 at Mon Jul 15 00:06:28 2019.
