 Gaussian 16, Revision A.03,
 Gaussian 16:  ES64L-G16RevA.03 25-Dec-2016

 -------------------------------------
 # td=(NStates=1) CAM-B3LYP/6-31G(d,p)
 -------------------------------------

 --
 TD
 --
 Symbolic Z-matrix:
 Charge =  0 Multiplicity = 1

                         Standard orientation:
 ---------------------------------------------------------------------
 Center     Atomic      Atomic             Coordinates (Angstroms)
 Number     Number       Type             X           Y           Z
 ---------------------------------------------------------------------
      1          8           0       14.586698   -2.390154   -0.219041
      2          8           0      -14.770259    1.913196    1.032749
      3          6           0       11.110238   -1.550677    1.108043
      4          6           0      -12.355456   -1.088051    0.682986
      5          6           0       12.579361   -1.904353    1.078478
      6          6           0      -13.697715   -0.152871    0.759462
      7          6           0       13.236030   -1.985358   -0.280460
      8          6           0      -13.503838    1.279963    1.068554
      9          6           0       10.973297   -0.316154    0.136562
     10          6           0      -11.226113   -0.247005   -0.032053
     11          6           0       13.216363   -0.517022   -0.811189
     12          6           0      -12.666417    1.764138   -0.011779
     13          6           0       11.958223    0.192276   -0.752308
     14          6           0      -11.350305    1.083933   -0.345719
     15          6           0       10.697646   -1.367897    2.517739
     16          6           0       10.367295   -2.735933    0.544355
     17          6           0      -11.789842   -1.441862    2.073077
     18          6           0      -12.569328   -2.454237   -0.093161
     19          6           0        9.656460    0.346654    0.237231
     20          6           0      -10.029991   -1.037722   -0.367164
     21          6           0       11.691736    1.332232   -1.711168
     22          6           0      -10.371394    1.832946   -1.347640
     23          6           0        9.301208    1.712097    0.099301
     24          6           0       -8.821793   -0.566109   -0.327736
     25          6           0        8.008942    2.395929    0.140904
     26          6           0       -7.542090   -1.357466   -0.652734
     27          6           0        8.000353    3.829875    0.410137
     28          6           0       -7.642537   -2.789950   -1.085491
     29          6           0        6.865870    1.667174   -0.062090
     30          6           0       -6.410981   -0.596592   -0.450536
     31          6           0        5.588211    2.161445    0.044069
     32          6           0       -5.017748   -1.114224   -0.573098
     33          6           0        4.405585    1.425373   -0.080442
     34          6           0       -3.966493   -0.334744   -0.562432
     35          6           0        3.116537    1.924041    0.088106
     36          6           0       -2.561968   -0.733505   -0.664844
     37          6           0        2.831508    3.282641    0.586881
     38          6           0       -2.256343   -2.115374   -1.268192
     39          6           0        2.057658    0.923793   -0.277679
     40          6           0       -1.615390    0.094707   -0.353156
     41          6           0        0.693348    1.085350   -0.318060
     42          6           0       -0.126815   -0.051817   -0.486568
     43          1           0       13.066634   -1.195099    1.730936
     44          1           0       12.563085   -2.688200    1.860532
     45          1           0      -14.239701   -0.625403    1.299294
     46          1           0      -14.194418   -0.193019   -0.346321
     47          1           0       12.634756   -2.605988   -1.005025
     48          1           0      -13.045244    1.529616    1.943967
     49          1           0       13.858061    0.088655   -0.201562
     50          1           0       13.403610   -0.499300   -2.006061
     51          1           0      -13.288880    1.804815   -0.841673
     52          1           0      -12.319568    2.831624    0.112959
     53          1           0       10.972777   -2.167464    3.043249
     54          1           0        9.579457   -1.197716    2.589529
     55          1           0       11.265554   -0.475704    3.109014
     56          1           0       10.452981   -3.108786   -0.561222
     57          1           0       10.568344   -3.528709    1.234722
     58          1           0        9.239173   -2.606919    0.446260
     59          1           0      -11.583282   -0.515895    2.637828
     60          1           0      -10.876850   -2.061518    2.142161
     61          1           0      -12.499728   -1.975238    2.679466
     62          1           0      -13.480023   -2.813178    0.195788
     63          1           0      -11.594401   -3.025226   -0.170936
     64          1           0      -12.737100   -2.436935   -1.237907
     65          1           0        8.665426   -0.372826    0.569147
     66          1           0      -10.156358   -2.083770   -0.674002
     67          1           0       10.476816    1.390302   -1.875202
     68          1           0       12.202543    2.180685   -1.111769
     69          1           0       12.219699    0.989847   -2.583077
     70          1           0      -11.108194    2.442191   -1.988839
     71          1           0       -9.735748    1.196631   -1.907203
     72          1           0       -9.857753    2.560531   -0.810473
     73          1           0       14.607901   -3.433272   -0.076247
     74          1           0      -15.482313    1.541698    1.699248
     75          1           0       10.114767    2.370858   -0.071103
     76          1           0       -8.563440    0.450482    0.140407
     77          1           0        9.084225    4.301081    0.121985
     78          1           0        7.199834    4.192564   -0.160087
     79          1           0        7.748698    3.906436    1.598408
     80          1           0       -7.851251   -3.427985   -0.167581
     81          1           0       -8.309324   -2.866356   -1.879580
     82          1           0       -6.559169   -3.234394   -1.344435
     83          1           0        6.950442    0.376952   -0.386960
     84          1           0       -6.426499    0.436356   -0.263105
     85          1           0        5.509425    3.122470    0.467629
     86          1           0       -4.969343   -2.178472   -0.915583
     87          1           0        4.629670    0.551527   -0.560200
     88          1           0       -4.161445    0.650177   -0.317779
     89          1           0        3.470765    3.345874    1.318848
     90          1           0        1.734687    3.399114    0.893639
     91          1           0        3.155364    3.859560   -0.408757
     92          1           0       -2.584539   -3.009030   -0.677671
     93          1           0       -2.900960   -2.262478   -2.148496
     94          1           0       -1.319888   -2.427903   -1.804928
     95          1           0        2.354584   -0.181522   -0.521300
     96          1           0       -1.970862    1.112474   -0.194846
     97          1           0        0.132884    2.009886   -0.189286
     98          1           0        0.422746   -0.882303   -0.896567
 ---------------------------------------------------------------------

 SCF Done:  E(RCAM-B3LYP) =  -1706.93277234     A.U. after   15 cycles

 Excitation energies and oscillator strengths:

 Excited State   1:      Singlet-A      2.2422 eV  552.95 nm  f=3.0656  <S**2>=0.000
     155 ->158         0.12232
     156 ->157         0.69636
 This state for optimization and/or second-order correction.
 Total Energy, E(TD-HF/TD-DFT) =  -1706.85037219
 Copying the excited state density for this state as the 1-particle RhoCI density.

 The electronic state is 1-A.
 Alpha  occ. eigenvalues --  -19.22218 -19.21165 -10.31491 -10.29030 -10.28249
 Alpha  occ. eigenvalues --  -10.27930 -10.27585 -10.27578 -10.27150 -10.27079
 Alpha  occ. eigenvalues --  -10.27040 -10.26971 -10.26935 -10.26733 -10.26725
 Alpha  occ. eigenvalues --  -10.26664 -10.26646 -10.26564 -10.26556 -10.26162
 Alpha  occ. eigenvalues --  -10.26142 -10.26097 -10.26053 -10.25664 -10.25615
 Alpha  occ. eigenvalues --  -10.25599 -10.25580 -10.25518 -10.25492 -10.25260
 Alpha  occ. eigenvalues --  -10.25240 -10.25185 -10.24968 -10.24951 -10.24946
 Alpha  occ. eigenvalues --  -10.24893 -10.24801 -10.24663 -10.24259 -10.24251
 Alpha  occ. eigenvalues --  -10.24221 -10.23963  -1.08665  -1.08193  -0.93839
 Alpha  occ. eigenvalues --   -0.92413  -0.91950  -0.91462  -0.90125  -0.89426
 Alpha  occ. eigenvalues --   -0.88625  -0.87059  -0.86006  -0.85429  -0.84168
 Alpha  occ. eigenvalues --   -0.83111  -0.82208  -0.80207  -0.79777  -0.77759
 Alpha  occ. eigenvalues --   -0.76600  -0.76353  -0.76324  -0.76130  -0.76036
 Alpha  occ. eigenvalues --   -0.75498  -0.75181  -0.74762  -0.73039  -0.69619
 Alpha  occ. eigenvalues --   -0.68596  -0.67564  -0.65845  -0.64193  -0.63755
 Alpha  occ. eigenvalues --   -0.63258  -0.61989  -0.61697  -0.61006  -0.60188
 Alpha  occ. eigenvalues --   -0.59115  -0.58919  -0.58678  -0.57176  -0.56422
 Alpha  occ. eigenvalues --   -0.55835  -0.55233  -0.54194  -0.53721  -0.53308
 Alpha  occ. eigenvalues --   -0.52671  -0.52339  -0.52061  -0.51714  -0.51278
 Alpha  occ. eigenvalues --   -0.50566  -0.50093  -0.49913  -0.49693  -0.49370
 Alpha  occ. eigenvalues --   -0.48891  -0.48549  -0.48441  -0.48225  -0.47601
 Alpha  occ. eigenvalues --   -0.47547  -0.47105  -0.46872  -0.46852  -0.46619
 Alpha  occ. eigenvalues --   -0.45670  -0.45598  -0.45175  -0.45050  -0.44847
 Alpha  occ. eigenvalues --   -0.44579  -0.44403  -0.44148  -0.43526  -0.43172
 Alpha  occ. eigenvalues --   -0.42923  -0.42866  -0.42738  -0.42243  -0.41966
 Alpha  occ. eigenvalues --   -0.41550  -0.41318  -0.40714  -0.40598  -0.40476
 Alpha  occ. eigenvalues --   -0.39696  -0.39554  -0.39422  -0.39242  -0.38919
 Alpha  occ. eigenvalues --   -0.38698  -0.38433  -0.38410  -0.38056  -0.37644
 Alpha  occ. eigenvalues --   -0.37392  -0.37201  -0.36128  -0.35964  -0.35659
 Alpha  occ. eigenvalues --   -0.35575  -0.34423  -0.33548  -0.32508  -0.32373
 Alpha  occ. eigenvalues --   -0.32164  -0.29431  -0.27797  -0.25209  -0.23437
 Alpha  occ. eigenvalues --   -0.18784
 Alpha virt. eigenvalues --   -0.05137   0.00282   0.02730   0.06335   0.08083
 Alpha virt. eigenvalues --    0.10570   0.10881   0.11121   0.11662   0.11967
 Alpha virt. eigenvalues --    0.12301   0.12557   0.13328   0.13559   0.13783

 Mulliken charges:
               1
     1  O   -0.561008
     2  O   -0.585435
     3  C   -0.010835
     4  C   -0.031009
     5  C   -0.193625
     6  C   -0.158516
     7  C    0.184220
     8  C    0.199577
     9  C    0.065047
    10  C    0.072121
    11  C   -0.209718
    12  C   -0.221423
    13  C    0.022994
    14  C    0.013633
    15  C   -0.293767
    16  C   -0.288553
    17  C   -0.301913
    18  C   -0.311272
    19  C   -0.117739
    20  C   -0.132070
    21  C   -0.337839
    22  C   -0.351143
    23  C   -0.131329
    24  C   -0.094469
    25  C    0.083082
    26  C    0.090416
    27  C   -0.356840
    28  C   -0.368287
    29  C   -0.085950
    30  C   -0.130852
    31  C   -0.121264
    32  C   -0.071758
    33  C   -0.077967
    34  C   -0.115798
    35  C    0.051072
    36  C    0.157968
    37  C   -0.339705
    38  C   -0.394433
    39  C   -0.136103
    40  C   -0.162556
    41  C   -0.059080
    42  C   -0.098908
    43  H    0.099596
    44  H    0.067673
    45  H    0.063178
    46  H    0.084683
    47  H    0.082110
    48  H    0.087506
    49  H    0.131310
    50  H    0.080783
    51  H    0.126134
    52  H    0.084299
    53  H    0.113107
    54  H    0.107049
    55  H    0.086470
    56  H    0.095239
    57  H    0.098949
    58  H    0.092120
    59  H    0.100902
    60  H    0.111321
    61  H    0.093967
    62  H    0.111566
    63  H    0.105949
    64  H    0.088068
    65  H    0.058748
    66  H    0.072678
    67  H    0.129929
    68  H    0.120265
    69  H    0.105088
    70  H    0.097411
    71  H    0.133785
    72  H    0.122566
    73  H    0.312472
    74  H    0.312369
    75  H    0.074868
    76  H    0.087852
    77  H    0.099997
    78  H    0.133485
    79  H    0.113543
    80  H    0.126435
    81  H    0.136075
    82  H    0.096531
    83  H    0.051803
    84  H    0.078895
    85  H    0.072288
    86  H    0.068015
    87  H    0.077072
    88  H    0.073834
    89  H    0.138842
    90  H    0.114421
    91  H    0.120119
    92  H    0.112706
    93  H    0.115774
    94  H    0.112258
    95  H    0.078265
    96  H    0.076664
    97  H    0.083444
    98  H    0.090556
 Sum of Mulliken charges =  -0.00000

 Dipole moment (field-independent basis, Debye):
    X=             -0.4610    Y=             -2.1078    Z=              0.8596  Tot=              2.3225
 Quadrupole moment (field-independent basis, Debye-Ang):
   XX=           -254.2754   YY=           -241.8774   ZZ=           -259.3800
   XY=              6.8748   XZ=             -9.7934   YZ=              4.4658

 Normal termination of Gaussian 16 at Fri Jul 12 18:24:46 2019.
