 Gaussian 16, Revision A.03,
 Gaussian 16:  ES64L-G16RevA.03 25-Dec-2016

 -------------------------------------
 # td=(NStates=1) CAM-B3LYP/6-31G(d,p)
 -------------------------------------

 --
 TD
 --
 Symbolic Z-matrix:
 Charge =  0 Multiplicity = 1

                         Standard orientation:
 ---------------------------------------------------------------------
 Center     Atomic      Atomic             Coordinates (Angstroms)
 Number     Number       Type             X           Y           Z
 ---------------------------------------------------------------------
      1          8           0       14.660190   -2.356143   -0.425516
      2          8           0      -14.942148    1.737996    1.058717
      3          6           0       11.212818   -1.533833    1.010399
      4          6           0      -12.299769   -1.120972    0.619740
      5          6           0       12.713842   -1.827138    1.027611
      6          6           0      -13.621731   -0.297319    0.765153
      7          6           0       13.311549   -1.965213   -0.375021
      8          6           0      -13.575365    1.128449    1.090370
      9          6           0       10.975759   -0.223009    0.160716
     10          6           0      -11.304933   -0.257415   -0.228673
     11          6           0       13.190431   -0.560766   -1.034166
     12          6           0      -12.823163    1.715090   -0.067144
     13          6           0       11.871831    0.095749   -0.812275
     14          6           0      -11.537028    1.008749   -0.528680
     15          6           0       10.739184   -1.186223    2.512719
     16          6           0       10.385181   -2.658699    0.555580
     17          6           0      -11.762304   -1.445252    2.057675
     18          6           0      -12.667865   -2.532975   -0.061754
     19          6           0        9.620704    0.290560    0.271638
     20          6           0      -10.046689   -0.964538   -0.514668
     21          6           0       11.568184    1.140703   -1.832765
     22          6           0      -10.581089    1.734884   -1.431070
     23          6           0        9.348745    1.663281    0.134368
     24          6           0       -8.718134   -0.483285   -0.458381
     25          6           0        8.014319    2.299583    0.314111
     26          6           0       -7.485347   -1.165811   -0.598470
     27          6           0        7.903608    3.697184    0.607270
     28          6           0       -7.701627   -2.694286   -1.036896
     29          6           0        6.980219    1.490329   -0.002198
     30          6           0       -6.413684   -0.542742   -0.472342
     31          6           0        5.686036    2.063332    0.147171
     32          6           0       -5.023340   -0.998011   -0.683684
     33          6           0        4.549515    1.239511   -0.193842
     34          6           0       -3.963608   -0.257215   -0.511799
     35          6           0        3.152881    1.699756    0.078993
     36          6           0       -2.596150   -0.584841   -0.594134
     37          6           0        2.958245    3.130393    0.397009
     38          6           0       -2.302873   -1.991900   -1.066060
     39          6           0        2.223129    0.808290   -0.020361
     40          6           0       -1.591520    0.464622   -0.387865
     41          6           0        0.819312    1.096819   -0.002816
     42          6           0       -0.178576    0.251097   -0.349100
     43          1           0       13.251633   -1.217969    1.631623
     44          1           0       12.770490   -2.941031    1.471166
     45          1           0      -14.360496   -0.976235    1.374151
     46          1           0      -14.173803   -0.231958   -0.350959
     47          1           0       12.649211   -2.636384   -0.958257
     48          1           0      -12.975760    1.338564    1.986516
     49          1           0       13.734458    0.160746   -0.264859
     50          1           0       13.581144   -0.410110   -2.079923
     51          1           0      -13.680224    1.879469   -0.898214
     52          1           0      -12.383732    2.820209    0.244160
     53          1           0       11.023863   -2.137662    3.110020
     54          1           0        9.582743   -1.000683    2.514274
     55          1           0       11.478860   -0.428104    2.991376
     56          1           0       10.641072   -3.125984   -0.484283
     57          1           0       10.668838   -3.434303    1.241959
     58          1           0        9.570350   -2.361276    0.556040
     59          1           0      -11.690174   -0.517060    2.604176
     60          1           0      -10.775122   -1.951777    1.928255
     61          1           0      -12.448219   -2.224192    2.455061
     62          1           0      -13.487481   -2.875876    0.593433
     63          1           0      -11.795721   -3.195809    0.074194
     64          1           0      -13.243310   -2.140137   -0.992005
     65          1           0        8.864252   -0.298675    0.707379
     66          1           0      -10.108644   -2.047331   -0.706629
     67          1           0       10.569812    1.105094   -1.806478
     68          1           0       11.777951    2.164370   -1.493901
     69          1           0       12.144064    1.135619   -2.871891
     70          1           0      -11.225239    2.448548   -2.196491
     71          1           0      -10.103681    1.093001   -2.243877
     72          1           0      -10.069714    2.581818   -0.961356
     73          1           0       14.685241   -3.164136    0.293751
     74          1           0      -15.390747    1.574834    1.938615
     75          1           0       10.490167    2.232447    0.091555
     76          1           0       -8.578830    0.530498   -0.070313
     77          1           0        8.917993    4.128476    1.115047
     78          1           0        7.592530    4.174884   -0.324381
     79          1           0        7.241060    3.834219    1.449101
     80          1           0       -7.935384   -3.306071   -0.059382
     81          1           0       -8.737263   -2.674219   -1.668284
     82          1           0       -6.824398   -3.127996   -1.385009
     83          1           0        7.111187    0.502906   -0.370660
     84          1           0       -6.370080    0.559381   -0.071578
     85          1           0        5.562731    3.133016    0.374650
     86          1           0       -5.029176   -1.891634   -1.085896
     87          1           0        4.636496    0.198132   -0.596737
     88          1           0       -4.017626    0.858411   -0.157724
     89          1           0        3.414570    3.508338    1.204215
     90          1           0        1.966767    3.573463    0.484369
     91          1           0        3.552072    3.872642   -0.364487
     92          1           0       -2.753909   -2.531712   -0.211880
     93          1           0       -2.622645   -2.238198   -2.034178
     94          1           0       -1.362434   -2.311894   -0.973539
     95          1           0        2.356714   -0.256154   -0.141750
     96          1           0       -2.069120    1.517931   -0.232844
     97          1           0        0.327325    2.128188    0.241780
     98          1           0        0.120812   -0.817078   -0.602893
 ---------------------------------------------------------------------

 SCF Done:  E(RCAM-B3LYP) =  -1706.90743161     A.U. after   14 cycles

 Excitation energies and oscillator strengths:

 Excited State   1:      Singlet-A      2.5887 eV  478.95 nm  f=3.5612  <S**2>=0.000
     155 ->158        -0.19717
     156 ->157         0.67004
 This state for optimization and/or second-order correction.
 Total Energy, E(TD-HF/TD-DFT) =  -1706.81229986
 Copying the excited state density for this state as the 1-particle RhoCI density.

 The electronic state is 1-A.
 Alpha  occ. eigenvalues --  -19.22481 -19.21806 -10.30747 -10.30623 -10.28124
 Alpha  occ. eigenvalues --  -10.28000 -10.27739 -10.27717 -10.27377 -10.27310
 Alpha  occ. eigenvalues --  -10.27300 -10.27259 -10.27099 -10.27014 -10.26991
 Alpha  occ. eigenvalues --  -10.26982 -10.26727 -10.26642 -10.26584 -10.26514
 Alpha  occ. eigenvalues --  -10.26444 -10.26356 -10.26300 -10.26238 -10.26149
 Alpha  occ. eigenvalues --  -10.26097 -10.25974 -10.25957 -10.25948 -10.25861
 Alpha  occ. eigenvalues --  -10.25718 -10.25648 -10.25573 -10.25561 -10.25561
 Alpha  occ. eigenvalues --  -10.25164 -10.25117 -10.24866 -10.24772 -10.24264
 Alpha  occ. eigenvalues --  -10.24177 -10.22853  -1.08638  -1.06965  -0.93942
 Alpha  occ. eigenvalues --   -0.93157  -0.92506  -0.92238  -0.91439  -0.90242
 Alpha  occ. eigenvalues --   -0.88137  -0.86831  -0.86040  -0.85306  -0.85020
 Alpha  occ. eigenvalues --   -0.83209  -0.82110  -0.80726  -0.79412  -0.79029
 Alpha  occ. eigenvalues --   -0.77278  -0.76748  -0.76367  -0.75953  -0.75274
 Alpha  occ. eigenvalues --   -0.75220  -0.74692  -0.73738  -0.73562  -0.71032
 Alpha  occ. eigenvalues --   -0.68786  -0.67143  -0.65650  -0.64175  -0.63656
 Alpha  occ. eigenvalues --   -0.62823  -0.62095  -0.61280  -0.60884  -0.60381
 Alpha  occ. eigenvalues --   -0.59386  -0.58719  -0.58364  -0.57827  -0.56570
 Alpha  occ. eigenvalues --   -0.55495  -0.55023  -0.54319  -0.54171  -0.53769
 Alpha  occ. eigenvalues --   -0.52666  -0.52387  -0.51953  -0.51700  -0.51578
 Alpha  occ. eigenvalues --   -0.51388  -0.50834  -0.50431  -0.50128  -0.49798
 Alpha  occ. eigenvalues --   -0.49606  -0.48989  -0.48359  -0.48226  -0.47706
 Alpha  occ. eigenvalues --   -0.47384  -0.47044  -0.46640  -0.46254  -0.46124
 Alpha  occ. eigenvalues --   -0.46026  -0.45978  -0.45579  -0.45354  -0.45023
 Alpha  occ. eigenvalues --   -0.44862  -0.44721  -0.44061  -0.43786  -0.43235
 Alpha  occ. eigenvalues --   -0.43008  -0.42822  -0.42524  -0.42379  -0.42022
 Alpha  occ. eigenvalues --   -0.41556  -0.41435  -0.41167  -0.40670  -0.40536
 Alpha  occ. eigenvalues --   -0.40316  -0.39780  -0.39347  -0.39175  -0.38868
 Alpha  occ. eigenvalues --   -0.38805  -0.38629  -0.37996  -0.37886  -0.37729
 Alpha  occ. eigenvalues --   -0.37652  -0.36947  -0.36805  -0.36632  -0.35467
 Alpha  occ. eigenvalues --   -0.35150  -0.34582  -0.33470  -0.33132  -0.32372
 Alpha  occ. eigenvalues --   -0.32278  -0.30625  -0.27928  -0.25693  -0.23163
 Alpha  occ. eigenvalues --   -0.20422
 Alpha virt. eigenvalues --   -0.04509  -0.00934   0.02496   0.05380   0.08570
 Alpha virt. eigenvalues --    0.09619   0.10258   0.11032   0.11312   0.12196
 Alpha virt. eigenvalues --    0.12364   0.12746   0.13262   0.13547   0.13750

 Mulliken charges:
               1
     1  O   -0.557057
     2  O   -0.566944
     3  C   -0.047038
     4  C   -0.045106
     5  C   -0.206588
     6  C   -0.167367
     7  C    0.203134
     8  C    0.156991
     9  C    0.065696
    10  C    0.103884
    11  C   -0.221338
    12  C   -0.217065
    13  C    0.050277
    14  C    0.065173
    15  C   -0.297342
    16  C   -0.226969
    17  C   -0.287683
    18  C   -0.302336
    19  C   -0.116850
    20  C   -0.170778
    21  C   -0.370796
    22  C   -0.371552
    23  C   -0.141653
    24  C   -0.097332
    25  C    0.073957
    26  C    0.161095
    27  C   -0.382555
    28  C   -0.362569
    29  C   -0.075448
    30  C   -0.154822
    31  C   -0.109845
    32  C   -0.073797
    33  C   -0.145797
    34  C   -0.088003
    35  C    0.169050
    36  C    0.074990
    37  C   -0.388183
    38  C   -0.361603
    39  C   -0.144553
    40  C   -0.137764
    41  C   -0.080614
    42  C   -0.090086
    43  H    0.108802
    44  H    0.044009
    45  H    0.064945
    46  H    0.069130
    47  H    0.077109
    48  H    0.092107
    49  H    0.109860
    50  H    0.109080
    51  H    0.118168
    52  H    0.070742
    53  H    0.083132
    54  H    0.101027
    55  H    0.102290
    56  H    0.086586
    57  H    0.099131
    58  H    0.086643
    59  H    0.103761
    60  H    0.103522
    61  H    0.096874
    62  H    0.101661
    63  H    0.112527
    64  H    0.112460
    65  H    0.089641
    66  H    0.073172
    67  H    0.143234
    68  H    0.113924
    69  H    0.091515
    70  H    0.070405
    71  H    0.135796
    72  H    0.121913
    73  H    0.302823
    74  H    0.310000
    75  H    0.078652
    76  H    0.080447
    77  H    0.098269
    78  H    0.141724
    79  H    0.132705
    80  H    0.107964
    81  H    0.113504
    82  H    0.115977
    83  H    0.095495
    84  H    0.070262
    85  H    0.095831
    86  H    0.066802
    87  H    0.088632
    88  H    0.067503
    89  H    0.138246
    90  H    0.117352
    91  H    0.089293
    92  H    0.119320
    93  H    0.133648
    94  H    0.112514
    95  H    0.089018
    96  H    0.080428
    97  H    0.073981
    98  H    0.069627
 Sum of Mulliken charges =  -0.00000

 Dipole moment (field-independent basis, Debye):
    X=              1.0682    Y=             -1.0249    Z=              2.4984  Tot=              2.9040
 Quadrupole moment (field-independent basis, Debye-Ang):
   XX=           -296.6663   YY=           -243.1303   ZZ=           -261.1432
   XY=             12.5207   XZ=             -5.7527   YZ=              2.1358

 Normal termination of Gaussian 16 at Wed Jul 17 08:44:33 2019.
