 Gaussian 16, Revision A.03,
 Gaussian 16:  ES64L-G16RevA.03 25-Dec-2016

 -------------------------------------
 # td=(NStates=1) CAM-B3LYP/6-31G(d,p)
 -------------------------------------

 --
 TD
 --
 Symbolic Z-matrix:
 Charge =  0 Multiplicity = 1

                         Standard orientation:
 ---------------------------------------------------------------------
 Center     Atomic      Atomic             Coordinates (Angstroms)
 Number     Number       Type             X           Y           Z
 ---------------------------------------------------------------------
      1          8           0       14.609601   -2.406279   -0.308667
      2          8           0      -14.672065    1.928617    1.056822
      3          6           0       11.135491   -1.545132    0.968189
      4          6           0      -12.355184   -1.041319    0.636710
      5          6           0       12.658524   -1.852688    1.108610
      6          6           0      -13.569555   -0.243448    0.729659
      7          6           0       13.184228   -1.894141   -0.313668
      8          6           0      -13.461633    1.260824    0.926264
      9          6           0       10.965861   -0.296571    0.105979
     10          6           0      -11.302992   -0.285948   -0.148902
     11          6           0       13.193959   -0.536441   -0.998538
     12          6           0      -12.624249    1.796075   -0.198035
     13          6           0       11.851770    0.124655   -0.946889
     14          6           0      -11.470748    0.994038   -0.533839
     15          6           0       10.673564   -1.326956    2.471467
     16          6           0       10.330689   -2.771763    0.443505
     17          6           0      -11.847091   -1.367801    1.991888
     18          6           0      -12.607891   -2.383236   -0.053723
     19          6           0        9.666142    0.397847    0.151461
     20          6           0      -10.052045   -0.968607   -0.373275
     21          6           0       11.641216    1.270762   -1.839010
     22          6           0      -10.475860    1.776206   -1.572013
     23          6           0        9.351344    1.708052    0.206024
     24          6           0       -8.806167   -0.507248   -0.371811
     25          6           0        8.039817    2.299979    0.274534
     26          6           0       -7.570941   -1.317336   -0.538478
     27          6           0        8.015402    3.800168    0.510216
     28          6           0       -7.646325   -2.781102   -0.926493
     29          6           0        6.936487    1.575515   -0.016511
     30          6           0       -6.381224   -0.625501   -0.427009
     31          6           0        5.599807    2.097329    0.204319
     32          6           0       -5.063591   -1.158757   -0.656216
     33          6           0        4.519816    1.379165   -0.054907
     34          6           0       -3.931134   -0.430411   -0.419133
     35          6           0        3.171469    1.799658    0.122840
     36          6           0       -2.543601   -0.696273   -0.535402
     37          6           0        2.912649    3.259887    0.657160
     38          6           0       -2.299492   -2.038312   -1.005669
     39          6           0        2.074934    0.959889   -0.221456
     40          6           0       -1.616364    0.273086   -0.401940
     41          6           0        0.673160    1.098891   -0.134335
     42          6           0       -0.200065    0.034991   -0.399306
     43          1           0       13.312211   -1.151510    1.832579
     44          1           0       12.984693   -2.819476    1.722343
     45          1           0      -14.313114   -0.644517    1.386279
     46          1           0      -14.146119   -0.221700   -0.182717
     47          1           0       12.822856   -2.828689   -0.883523
     48          1           0      -12.912387    1.436081    1.914216
     49          1           0       13.992980   -0.005952   -0.646913
     50          1           0       13.358425   -0.867199   -2.166894
     51          1           0      -13.436140    1.933244   -1.086125
     52          1           0      -12.242018    2.805189    0.055941
     53          1           0       10.792033   -2.041789    3.185689
     54          1           0        9.507375   -1.168921    2.534339
     55          1           0       11.194584   -0.397923    2.733669
     56          1           0       10.568263   -3.051042   -0.719151
     57          1           0       10.488664   -3.612785    1.108074
     58          1           0        9.221779   -2.433223    0.456600
     59          1           0      -11.626638   -0.588169    2.736661
     60          1           0      -11.020876   -1.710605    1.986949
     61          1           0      -12.635656   -1.977161    2.510843
     62          1           0      -13.437847   -2.905313    0.630428
     63          1           0      -11.906618   -3.194215   -0.039817
     64          1           0      -13.004666   -2.250196   -0.979808
     65          1           0        8.802730   -0.211033    0.549993
     66          1           0      -10.271004   -1.957855   -0.522671
     67          1           0       10.416196    1.432407   -2.214533
     68          1           0       11.957294    2.134692   -1.403808
     69          1           0       12.219966    1.041779   -2.669787
     70          1           0      -11.087706    2.278898   -2.350762
     71          1           0       -9.893564    1.009289   -2.271585
     72          1           0       -9.663750    2.177826   -0.999623
     73          1           0       14.696028   -3.017459    0.239604
     74          1           0      -15.207404    1.502183    1.651906
     75          1           0       10.186226    2.516714    0.105405
     76          1           0       -8.660221    0.519658   -0.313643
     77          1           0        8.952223    4.172472    0.284276
     78          1           0        7.202306    4.122152   -0.115793
     79          1           0        7.847480    4.054509    1.373176
     80          1           0       -8.234543   -3.427229   -0.233787
     81          1           0       -8.068655   -2.787639   -2.080194
     82          1           0       -6.762827   -3.226558   -1.063223
     83          1           0        6.963701    0.556793   -0.351679
     84          1           0       -6.433860    0.415176   -0.148195
     85          1           0        5.310611    3.070607    0.519023
     86          1           0       -4.970219   -2.372125   -0.756300
     87          1           0        4.668799    0.292943    0.005305
     88          1           0       -4.195997    0.495133   -0.147634
     89          1           0        3.065213    3.597765    1.692056
     90          1           0        1.778801    3.437391    0.588632
     91          1           0        3.517006    3.791112    0.021823
     92          1           0       -1.889897   -2.769797    0.057548
     93          1           0       -3.612671   -2.663621   -1.485836
     94          1           0       -1.240827   -2.036697   -1.642713
     95          1           0        2.315115   -0.021564   -0.240321
     96          1           0       -1.928689    1.281062   -0.195944
     97          1           0        0.181008    2.038060    0.134942
     98          1           0        0.358013   -0.958035   -0.624160
 ---------------------------------------------------------------------

 SCF Done:  E(RCAM-B3LYP) =  -1706.83500402     A.U. after   15 cycles

 Excitation energies and oscillator strengths:

 Excited State   1:      Singlet-A      2.3819 eV  520.53 nm  f=3.5627  <S**2>=0.000
     155 ->158         0.16070
     156 ->157         0.68374
 This state for optimization and/or second-order correction.
 Total Energy, E(TD-HF/TD-DFT) =  -1706.74747171
 Copying the excited state density for this state as the 1-particle RhoCI density.

 The electronic state is 1-A.
 Alpha  occ. eigenvalues --  -19.20897 -19.17782 -10.31189 -10.30460 -10.30163
 Alpha  occ. eigenvalues --  -10.29087 -10.28385 -10.28097 -10.27700 -10.27617
 Alpha  occ. eigenvalues --  -10.27602 -10.27493 -10.27482 -10.26965 -10.26961
 Alpha  occ. eigenvalues --  -10.26871 -10.26801 -10.26597 -10.26526 -10.26486
 Alpha  occ. eigenvalues --  -10.26382 -10.26302 -10.26274 -10.26203 -10.26181
 Alpha  occ. eigenvalues --  -10.26133 -10.25793 -10.25745 -10.25709 -10.25590
 Alpha  occ. eigenvalues --  -10.25578 -10.25488 -10.25317 -10.25248 -10.25050
 Alpha  occ. eigenvalues --  -10.25049 -10.24984 -10.24812 -10.24230 -10.23817
 Alpha  occ. eigenvalues --  -10.23137 -10.22263  -1.11651  -1.09092  -0.95087
 Alpha  occ. eigenvalues --   -0.93634  -0.92537  -0.92164  -0.90594  -0.90082
 Alpha  occ. eigenvalues --   -0.87852  -0.87604  -0.87516  -0.86083  -0.85071
 Alpha  occ. eigenvalues --   -0.83627  -0.82019  -0.81335  -0.80023  -0.78192
 Alpha  occ. eigenvalues --   -0.78019  -0.77610  -0.76618  -0.76237  -0.75944
 Alpha  occ. eigenvalues --   -0.75699  -0.75414  -0.74969  -0.73334  -0.70831
 Alpha  occ. eigenvalues --   -0.69396  -0.67983  -0.66170  -0.65110  -0.65043
 Alpha  occ. eigenvalues --   -0.64404  -0.63414  -0.62174  -0.61400  -0.60426
 Alpha  occ. eigenvalues --   -0.59488  -0.58717  -0.58357  -0.57738  -0.57532
 Alpha  occ. eigenvalues --   -0.55941  -0.55391  -0.54853  -0.54541  -0.53874
 Alpha  occ. eigenvalues --   -0.53703  -0.52924  -0.52351  -0.51890  -0.51305
 Alpha  occ. eigenvalues --   -0.50955  -0.50664  -0.50439  -0.49985  -0.49902
 Alpha  occ. eigenvalues --   -0.49275  -0.49160  -0.49049  -0.48695  -0.48507
 Alpha  occ. eigenvalues --   -0.48195  -0.47916  -0.47414  -0.47088  -0.46810
 Alpha  occ. eigenvalues --   -0.45970  -0.45713  -0.45533  -0.45044  -0.44777
 Alpha  occ. eigenvalues --   -0.44489  -0.44355  -0.43784  -0.43477  -0.43383
 Alpha  occ. eigenvalues --   -0.43128  -0.42623  -0.42493  -0.42370  -0.42257
 Alpha  occ. eigenvalues --   -0.42205  -0.41920  -0.41592  -0.41352  -0.41047
 Alpha  occ. eigenvalues --   -0.40611  -0.40521  -0.40206  -0.39463  -0.39344
 Alpha  occ. eigenvalues --   -0.38769  -0.38699  -0.38640  -0.38409  -0.38214
 Alpha  occ. eigenvalues --   -0.37638  -0.37253  -0.37007  -0.36450  -0.35080
 Alpha  occ. eigenvalues --   -0.34830  -0.34410  -0.34233  -0.32244  -0.31753
 Alpha  occ. eigenvalues --   -0.31193  -0.29880  -0.28343  -0.25968  -0.23678
 Alpha  occ. eigenvalues --   -0.20131
 Alpha virt. eigenvalues --   -0.05436  -0.01095   0.01816   0.04915   0.06703
 Alpha virt. eigenvalues --    0.07200   0.09528   0.11490   0.11533   0.12296
 Alpha virt. eigenvalues --    0.12805   0.12968   0.13216   0.13662   0.13733

 Mulliken charges:
               1
     1  O   -0.574950
     2  O   -0.541477
     3  C   -0.024755
     4  C   -0.007842
     5  C   -0.190649
     6  C   -0.207608
     7  C    0.144519
     8  C    0.177253
     9  C    0.052645
    10  C    0.075218
    11  C   -0.193850
    12  C   -0.219827
    13  C    0.053421
    14  C    0.019838
    15  C   -0.301605
    16  C   -0.281772
    17  C   -0.258860
    18  C   -0.306940
    19  C   -0.123954
    20  C   -0.111035
    21  C   -0.343185
    22  C   -0.368791
    23  C   -0.102922
    24  C   -0.077316
    25  C    0.076244
    26  C    0.101140
    27  C   -0.343938
    28  C   -0.350814
    29  C   -0.127086
    30  C   -0.137222
    31  C   -0.074761
    32  C   -0.092657
    33  C   -0.105663
    34  C   -0.105573
    35  C    0.063588
    36  C    0.188606
    37  C   -0.370613
    38  C   -0.337599
    39  C   -0.128075
    40  C   -0.133729
    41  C   -0.069217
    42  C   -0.096465
    43  H    0.091589
    44  H    0.068564
    45  H    0.072379
    46  H    0.095362
    47  H    0.108305
    48  H    0.058025
    49  H    0.139793
    50  H    0.091427
    51  H    0.094652
    52  H    0.111637
    53  H    0.115683
    54  H    0.077322
    55  H    0.110197
    56  H    0.087617
    57  H    0.112281
    58  H    0.096615
    59  H    0.091107
    60  H    0.101937
    61  H    0.084689
    62  H    0.072559
    63  H    0.117938
    64  H    0.118559
    65  H    0.078070
    66  H    0.068753
    67  H    0.097507
    68  H    0.138122
    69  H    0.111879
    70  H    0.118869
    71  H    0.102558
    72  H    0.131848
    73  H    0.268348
    74  H    0.298995
    75  H    0.068142
    76  H    0.064650
    77  H    0.108489
    78  H    0.120390
    79  H    0.134954
    80  H    0.118174
    81  H    0.098590
    82  H    0.118170
    83  H    0.089741
    84  H    0.084735
    85  H    0.079339
    86  H    0.073711
    87  H    0.079827
    88  H    0.066935
    89  H    0.125010
    90  H    0.099791
    91  H    0.129099
    92  H    0.063237
    93  H    0.064170
    94  H    0.100932
    95  H    0.074943
    96  H    0.090525
    97  H    0.080354
    98  H    0.091184
 Sum of Mulliken charges =  -0.00000

 Dipole moment (field-independent basis, Debye):
    X=              0.0294    Y=             -0.7193    Z=              2.3812  Tot=              2.4877
 Quadrupole moment (field-independent basis, Debye-Ang):
   XX=           -271.4701   YY=           -247.1754   ZZ=           -261.2561
   XY=             24.3446   XZ=              6.4426   YZ=             -1.2793

 Normal termination of Gaussian 16 at Sat Jul 13 01:59:51 2019.
