 Gaussian 16, Revision A.03,
 Gaussian 16:  ES64L-G16RevA.03 25-Dec-2016

 -------------------------------------
 # td=(NStates=1) CAM-B3LYP/6-31G(d,p)
 -------------------------------------

 --
 TD
 --
 Symbolic Z-matrix:
 Charge =  0 Multiplicity = 1

                         Standard orientation:
 ---------------------------------------------------------------------
 Center     Atomic      Atomic             Coordinates (Angstroms)
 Number     Number       Type             X           Y           Z
 ---------------------------------------------------------------------
      1          8           0       14.485852   -2.471449   -0.313336
      2          8           0      -14.602745    2.000801    0.919762
      3          6           0       11.175293   -1.451410    0.938568
      4          6           0      -12.379428   -1.050662    0.492437
      5          6           0       12.558238   -1.826909    1.056638
      6          6           0      -13.785908   -0.165490    0.499449
      7          6           0       13.097285   -1.961899   -0.328333
      8          6           0      -13.472331    1.241925    0.847755
      9          6           0       10.862530   -0.239147    0.010648
     10          6           0      -11.184391   -0.234857   -0.087992
     11          6           0       13.200353   -0.555424   -1.046692
     12          6           0      -12.553323    1.857480   -0.320689
     13          6           0       11.823332    0.131998   -0.901833
     14          6           0      -11.285986    1.088373   -0.469339
     15          6           0       10.895889   -1.012505    2.393208
     16          6           0       10.244559   -2.640534    0.664989
     17          6           0      -12.017559   -1.378341    1.887726
     18          6           0      -12.601464   -2.421940   -0.351822
     19          6           0        9.583515    0.420302    0.164530
     20          6           0      -10.029608   -0.989155   -0.382318
     21          6           0       11.762918    1.270642   -1.925323
     22          6           0      -10.326717    1.944906   -1.272452
     23          6           0        9.433263    1.737393    0.044375
     24          6           0       -8.724942   -0.545936   -0.157126
     25          6           0        8.159652    2.299227    0.160424
     26          6           0       -7.549672   -1.312981   -0.476795
     27          6           0        7.944137    3.800141    0.498616
     28          6           0       -7.657305   -2.713642   -0.963841
     29          6           0        6.924403    1.544850   -0.053367
     30          6           0       -6.404759   -0.643089   -0.261546
     31          6           0        5.564173    2.068574    0.095263
     32          6           0       -5.097564   -1.137096   -0.353927
     33          6           0        4.470340    1.258046   -0.114475
     34          6           0       -3.905007   -0.454519   -0.157249
     35          6           0        3.104106    1.698210    0.073762
     36          6           0       -2.559986   -0.805654   -0.372752
     37          6           0        2.788647    3.128305    0.396639
     38          6           0       -2.319271   -2.222808   -0.847271
     39          6           0        2.155158    0.763657   -0.228034
     40          6           0       -1.516093    0.115505   -0.059733
     41          6           0        0.695768    0.862996    0.174537
     42          6           0       -0.144795   -0.059711   -0.316715
     43          1           0       13.004157   -1.041327    1.825630
     44          1           0       12.560531   -2.800945    1.316382
     45          1           0      -14.339226   -0.680414    1.120021
     46          1           0      -13.995093   -0.270936   -0.672296
     47          1           0       12.465099   -2.439541   -1.014816
     48          1           0      -12.754075    1.303447    1.670680
     49          1           0       14.008905   -0.040358   -0.293631
     50          1           0       13.645135   -0.519997   -2.099958
     51          1           0      -13.208197    1.966851   -1.226200
     52          1           0      -12.200382    2.810289   -0.039810
     53          1           0       11.110218   -1.828226    2.985544
     54          1           0        9.897057   -0.729629    2.481206
     55          1           0       11.430940   -0.061967    2.749972
     56          1           0       10.453001   -3.023136   -0.300533
     57          1           0       10.444809   -3.471991    1.226473
     58          1           0        9.159545   -2.453730    0.751675
     59          1           0      -11.638762   -0.379384    2.408360
     60          1           0      -11.223056   -2.186310    1.944569
     61          1           0      -12.878976   -1.674800    2.525966
     62          1           0      -13.609728   -2.821280    0.157614
     63          1           0      -11.816850   -3.221459   -0.312720
     64          1           0      -12.913571   -2.116144   -1.465929
     65          1           0        8.758128   -0.142471    0.657676
     66          1           0      -10.148453   -2.050216   -0.826016
     67          1           0       10.629207    1.528972   -1.965768
     68          1           0       12.469955    2.135881   -1.586375
     69          1           0       11.931738    0.936137   -2.967227
     70          1           0      -11.070104    2.423868   -2.091725
     71          1           0       -9.590989    1.382261   -1.680013
     72          1           0       -9.787275    2.672695   -0.731483
     73          1           0       14.432775   -3.329347    0.158214
     74          1           0      -15.281940    1.701625    1.515363
     75          1           0       10.220028    2.289107   -0.086151
     76          1           0       -8.488131    0.524549    0.168397
     77          1           0        8.815674    4.417757    0.517628
     78          1           0        7.234326    4.129587   -0.180923
     79          1           0        7.563605    3.949540    1.465344
     80          1           0       -8.303954   -3.345288   -0.403116
     81          1           0       -8.250169   -2.753589   -1.749872
     82          1           0       -6.729770   -3.077843   -1.172578
     83          1           0        6.733289    0.495694   -0.367610
     84          1           0       -6.370896    0.318645    0.214296
     85          1           0        5.193666    3.178217    0.371361
     86          1           0       -4.882422   -2.026879   -1.012621
     87          1           0        4.349813    0.116259   -0.238886
     88          1           0       -3.971657    0.683797    0.216398
     89          1           0        3.055411    3.674855    1.478207
     90          1           0        1.654839    3.354977    0.339475
     91          1           0        3.118422    3.839826   -0.349391
     92          1           0       -2.645017   -2.921203   -0.434515
     93          1           0       -2.874490   -2.295310   -1.905758
     94          1           0       -1.222805   -2.453721   -1.010187
     95          1           0        2.547920   -0.151967   -0.604450
     96          1           0       -1.737271    1.120119    0.302100
     97          1           0        0.331329    1.784546    0.447399
     98          1           0        0.084167   -1.117834   -0.776414
 ---------------------------------------------------------------------

 SCF Done:  E(RCAM-B3LYP) =  -1706.94298915     A.U. after   14 cycles

 Excitation energies and oscillator strengths:

 Excited State   1:      Singlet-A      2.3238 eV  533.53 nm  f=3.7424  <S**2>=0.000
     155 ->158         0.19989
     156 ->157         0.67277
 This state for optimization and/or second-order correction.
 Total Energy, E(TD-HF/TD-DFT) =  -1706.85758947
 Copying the excited state density for this state as the 1-particle RhoCI density.

 The electronic state is 1-A.
 Alpha  occ. eigenvalues --  -19.21067 -19.20583 -10.30161 -10.29634 -10.28099
 Alpha  occ. eigenvalues --  -10.27934 -10.27801 -10.27701 -10.27314 -10.27233
 Alpha  occ. eigenvalues --  -10.27016 -10.26945 -10.26827 -10.26813 -10.26779
 Alpha  occ. eigenvalues --  -10.26721 -10.26467 -10.26463 -10.26447 -10.26444
 Alpha  occ. eigenvalues --  -10.26388 -10.26344 -10.26291 -10.26180 -10.26166
 Alpha  occ. eigenvalues --  -10.26149 -10.26115 -10.26075 -10.25687 -10.25683
 Alpha  occ. eigenvalues --  -10.25437 -10.25148 -10.25089 -10.24999 -10.24647
 Alpha  occ. eigenvalues --  -10.24516 -10.24431 -10.24051 -10.23993 -10.23920
 Alpha  occ. eigenvalues --  -10.23525 -10.23294  -1.11108  -1.07048  -0.94631
 Alpha  occ. eigenvalues --   -0.93086  -0.92021  -0.91463  -0.90833  -0.90172
 Alpha  occ. eigenvalues --   -0.87556  -0.86807  -0.86701  -0.85128  -0.84643
 Alpha  occ. eigenvalues --   -0.82987  -0.82173  -0.80261  -0.80104  -0.78420
 Alpha  occ. eigenvalues --   -0.78090  -0.77667  -0.76419  -0.76373  -0.75704
 Alpha  occ. eigenvalues --   -0.75068  -0.74865  -0.74669  -0.73113  -0.70536
 Alpha  occ. eigenvalues --   -0.68997  -0.67947  -0.65499  -0.64958  -0.64050
 Alpha  occ. eigenvalues --   -0.63341  -0.62882  -0.62094  -0.60522  -0.59754
 Alpha  occ. eigenvalues --   -0.59167  -0.58962  -0.58537  -0.58104  -0.56503
 Alpha  occ. eigenvalues --   -0.55864  -0.55710  -0.55466  -0.54426  -0.54409
 Alpha  occ. eigenvalues --   -0.53402  -0.52613  -0.52202  -0.51895  -0.50356
 Alpha  occ. eigenvalues --   -0.50036  -0.49784  -0.49672  -0.49199  -0.48676
 Alpha  occ. eigenvalues --   -0.48653  -0.48566  -0.48430  -0.48188  -0.47961
 Alpha  occ. eigenvalues --   -0.47625  -0.47473  -0.47115  -0.46795  -0.46748
 Alpha  occ. eigenvalues --   -0.46339  -0.46035  -0.45808  -0.45462  -0.45057
 Alpha  occ. eigenvalues --   -0.44970  -0.44687  -0.44268  -0.43700  -0.43525
 Alpha  occ. eigenvalues --   -0.43303  -0.42762  -0.42706  -0.42600  -0.42394
 Alpha  occ. eigenvalues --   -0.42330  -0.41775  -0.41673  -0.41427  -0.40795
 Alpha  occ. eigenvalues --   -0.40308  -0.39878  -0.39676  -0.39582  -0.38935
 Alpha  occ. eigenvalues --   -0.38846  -0.38794  -0.38574  -0.38183  -0.37912
 Alpha  occ. eigenvalues --   -0.37641  -0.37556  -0.36970  -0.36006  -0.35518
 Alpha  occ. eigenvalues --   -0.34363  -0.33923  -0.33590  -0.32307  -0.32228
 Alpha  occ. eigenvalues --   -0.32085  -0.30090  -0.28096  -0.25863  -0.22349
 Alpha  occ. eigenvalues --   -0.19567
 Alpha virt. eigenvalues --   -0.05076  -0.01603   0.02451   0.05549   0.08050
 Alpha virt. eigenvalues --    0.09710   0.11687   0.11779   0.12218   0.12542
 Alpha virt. eigenvalues --    0.12789   0.12957   0.13391   0.13857   0.14165

 Mulliken charges:
               1
     1  O   -0.574985
     2  O   -0.555115
     3  C   -0.045789
     4  C   -0.044972
     5  C   -0.151031
     6  C   -0.174992
     7  C    0.134856
     8  C    0.192491
     9  C    0.096870
    10  C    0.083537
    11  C   -0.210922
    12  C   -0.234048
    13  C    0.015879
    14  C    0.037293
    15  C   -0.303487
    16  C   -0.317656
    17  C   -0.282852
    18  C   -0.303420
    19  C   -0.115967
    20  C   -0.159569
    21  C   -0.364175
    22  C   -0.350510
    23  C   -0.066493
    24  C   -0.104051
    25  C    0.034077
    26  C    0.140287
    27  C   -0.367945
    28  C   -0.366719
    29  C   -0.129260
    30  C   -0.134343
    31  C   -0.108616
    32  C   -0.106060
    33  C   -0.113438
    34  C   -0.118659
    35  C    0.150800
    36  C    0.102525
    37  C   -0.390983
    38  C   -0.337852
    39  C   -0.152409
    40  C   -0.135035
    41  C   -0.105840
    42  C   -0.033053
    43  H    0.108065
    44  H    0.086103
    45  H    0.087301
    46  H    0.090116
    47  H    0.103214
    48  H    0.074491
    49  H    0.097332
    50  H    0.105837
    51  H    0.112246
    52  H    0.114021
    53  H    0.105132
    54  H    0.096150
    55  H    0.092930
    56  H    0.106111
    57  H    0.106660
    58  H    0.106111
    59  H    0.093118
    60  H    0.103056
    61  H    0.090234
    62  H    0.084138
    63  H    0.108610
    64  H    0.095147
    65  H    0.098229
    66  H    0.078068
    67  H    0.107209
    68  H    0.113564
    69  H    0.112379
    70  H    0.095102
    71  H    0.123373
    72  H    0.122120
    73  H    0.296617
    74  H    0.303391
    75  H    0.088887
    76  H    0.084059
    77  H    0.105206
    78  H    0.132491
    79  H    0.129555
    80  H    0.121690
    81  H    0.132368
    82  H    0.114113
    83  H    0.092733
    84  H    0.081640
    85  H    0.086612
    86  H    0.067655
    87  H    0.077950
    88  H    0.056193
    89  H    0.096672
    90  H    0.096915
    91  H    0.135733
    92  H    0.132012
    93  H    0.094684
    94  H    0.091356
    95  H    0.080936
    96  H    0.081821
    97  H    0.091612
    98  H    0.082562
 Sum of Mulliken charges =  -0.00000

 Dipole moment (field-independent basis, Debye):
    X=             -2.2882    Y=             -1.7631    Z=              1.1031  Tot=              3.0922
 Quadrupole moment (field-independent basis, Debye-Ang):
   XX=           -271.4238   YY=           -240.6324   ZZ=           -262.0559
   XY=             12.1530   XZ=              0.4533   YZ=              3.4646

 Normal termination of Gaussian 16 at Wed Jul 17 18:06:15 2019.
