 Gaussian 16, Revision A.03,
 Gaussian 16:  ES64L-G16RevA.03 25-Dec-2016

 -------------------------------------
 # td=(NStates=1) CAM-B3LYP/6-31G(d,p)
 -------------------------------------

 --
 TD
 --
 Symbolic Z-matrix:
 Charge =  0 Multiplicity = 1

                         Standard orientation:
 ---------------------------------------------------------------------
 Center     Atomic      Atomic             Coordinates (Angstroms)
 Number     Number       Type             X           Y           Z
 ---------------------------------------------------------------------
      1          8           0       14.925913   -1.979860   -0.128232
      2          8           0      -14.769895    1.926521    1.011421
      3          6           0       11.299737   -1.453839    0.926156
      4          6           0      -12.441610   -0.957520    0.532205
      5          6           0       12.824068   -1.709264    1.113975
      6          6           0      -13.753652   -0.210067    0.459118
      7          6           0       13.559963   -1.708717   -0.268338
      8          6           0      -13.585707    1.207059    0.854610
      9          6           0       11.105620   -0.264285   -0.024007
     10          6           0      -11.336996   -0.121353   -0.177378
     11          6           0       13.374444   -0.387119   -1.031785
     12          6           0      -12.673802    1.896530   -0.125128
     13          6           0       11.918866    0.198888   -0.990869
     14          6           0      -11.503595    1.176092   -0.565353
     15          6           0       10.845745   -1.280701    2.403661
     16          6           0       10.665771   -2.753448    0.403389
     17          6           0      -12.001010   -1.371003    1.867086
     18          6           0      -12.776467   -2.348826   -0.208950
     19          6           0        9.695119    0.344758    0.142550
     20          6           0      -10.041614   -0.969078   -0.423782
     21          6           0       11.758673    1.279138   -1.937707
     22          6           0      -10.471113    1.929172   -1.325362
     23          6           0        9.340241    1.659178    0.087120
     24          6           0       -8.847284   -0.497141   -0.343784
     25          6           0        8.021373    2.249008    0.242095
     26          6           0       -7.649981   -1.242198   -0.440320
     27          6           0        8.005411    3.777743    0.709538
     28          6           0       -7.781925   -2.697369   -0.923465
     29          6           0        6.881406    1.506747   -0.012977
     30          6           0       -6.425730   -0.640606   -0.244498
     31          6           0        5.526415    1.999909    0.225428
     32          6           0       -5.103908   -1.145137   -0.494376
     33          6           0        4.499645    1.228577   -0.081261
     34          6           0       -3.989395   -0.372488   -0.239450
     35          6           0        3.108640    1.575147    0.052371
     36          6           0       -2.636457   -0.772578   -0.525647
     37          6           0        2.724640    2.999112    0.352110
     38          6           0       -2.493600   -2.250818   -0.857605
     39          6           0        2.122014    0.629162   -0.179901
     40          6           0       -1.618225    0.067858   -0.190863
     41          6           0        0.686066    0.728917   -0.027416
     42          6           0       -0.273369   -0.288594   -0.265605
     43          1           0       13.150864   -0.848246    1.740036
     44          1           0       12.916511   -2.456362    1.637052
     45          1           0      -14.472727   -0.804070    0.900119
     46          1           0      -14.176962   -0.247487   -0.481570
     47          1           0       13.084590   -2.224621   -1.102108
     48          1           0      -13.066893    1.266007    1.926146
     49          1           0       13.929845    0.454661   -0.617163
     50          1           0       13.529432   -0.462658   -2.101157
     51          1           0      -13.355967    2.329664   -0.926039
     52          1           0      -12.318457    2.895625    0.388162
     53          1           0       11.202543   -2.113036    2.972866
     54          1           0        9.682805   -1.095258    2.478995
     55          1           0       11.157256   -0.322858    2.766670
     56          1           0       10.871952   -2.775566   -0.676794
     57          1           0       10.979905   -3.644155    0.931847
     58          1           0        9.554833   -2.584365    0.487822
     59          1           0      -12.041241   -0.372469    2.330454
     60          1           0      -10.936195   -1.716877    2.182659
     61          1           0      -12.886975   -1.917783    2.418175
     62          1           0      -13.917340   -2.679235   -0.082332
     63          1           0      -11.919959   -3.189882    0.115408
     64          1           0      -12.806313   -2.224231   -1.319777
     65          1           0        8.799863   -0.216975    0.399593
     66          1           0      -10.278341   -2.058584   -0.676563
     67          1           0       10.563625    1.236380   -2.254757
     68          1           0       12.052755    2.111740   -1.445033
     69          1           0       12.440972    0.996321   -2.662580
     70          1           0      -10.993618    2.545704   -2.096875
     71          1           0       -9.701105    1.467695   -2.010132
     72          1           0      -10.041280    2.581652   -0.619429
     73          1           0       14.870348   -2.902962    0.281540
     74          1           0      -15.232347    1.625374    1.794636
     75          1           0       10.144598    2.469698   -0.215694
     76          1           0       -8.755506    0.541638    0.150590
     77          1           0        9.075226    4.216264    0.498762
     78          1           0        7.015606    4.273010    0.319231
     79          1           0        7.766353    3.660174    1.809452
     80          1           0       -8.597591   -3.219599   -0.225338
     81          1           0       -7.692649   -2.651988   -2.164640
     82          1           0       -6.745830   -3.312835   -0.655850
     83          1           0        6.858883    0.487806   -0.601104
     84          1           0       -6.478799    0.367302    0.087930
     85          1           0        5.143167    2.974167    0.766133
     86          1           0       -4.895333   -2.212144   -0.718309
     87          1           0        4.543989    0.250177   -0.493442
     88          1           0       -3.988873    0.665831   -0.173558
     89          1           0        2.889916    3.440476    1.238014
     90          1           0        1.527599    3.142232    0.122922
     91          1           0        3.393208    3.586051   -0.226764
     92          1           0       -3.025346   -2.928438   -0.274789
     93          1           0       -2.820822   -2.417893   -1.903704
     94          1           0       -1.456317   -2.721747   -0.818284
     95          1           0        2.226732   -0.500738   -0.509084
     96          1           0       -1.941397    0.979400   -0.132211
     97          1           0        0.420993    1.711980    0.290913
     98          1           0        0.151176   -1.092317   -0.710057
 ---------------------------------------------------------------------

 SCF Done:  E(RCAM-B3LYP) =  -1706.96036236     A.U. after   14 cycles

 Excitation energies and oscillator strengths:

 Excited State   1:      Singlet-A      2.5039 eV  495.16 nm  f=3.6790  <S**2>=0.000
     155 ->158        -0.16296
     156 ->157         0.68484
 This state for optimization and/or second-order correction.
 Total Energy, E(TD-HF/TD-DFT) =  -1706.86834416
 Copying the excited state density for this state as the 1-particle RhoCI density.

 The electronic state is 1-A.
 Alpha  occ. eigenvalues --  -19.21891 -19.21116 -10.30853 -10.30367 -10.28888
 Alpha  occ. eigenvalues --  -10.28196 -10.27838 -10.27810 -10.27275 -10.27141
 Alpha  occ. eigenvalues --  -10.27117 -10.27097 -10.26963 -10.26877 -10.26719
 Alpha  occ. eigenvalues --  -10.26679 -10.26565 -10.26482 -10.26475 -10.26425
 Alpha  occ. eigenvalues --  -10.26387 -10.26289 -10.26175 -10.26147 -10.26124
 Alpha  occ. eigenvalues --  -10.25982 -10.25735 -10.25660 -10.25474 -10.25423
 Alpha  occ. eigenvalues --  -10.25194 -10.25164 -10.25164 -10.25161 -10.25062
 Alpha  occ. eigenvalues --  -10.24947 -10.24863 -10.24806 -10.24757 -10.24659
 Alpha  occ. eigenvalues --  -10.23589 -10.23202  -1.10484  -1.09842  -0.94000
 Alpha  occ. eigenvalues --   -0.93270  -0.92346  -0.91664  -0.90595  -0.89298
 Alpha  occ. eigenvalues --   -0.88460  -0.87837  -0.87253  -0.85205  -0.84029
 Alpha  occ. eigenvalues --   -0.82761  -0.81957  -0.80252  -0.79634  -0.78518
 Alpha  occ. eigenvalues --   -0.77178  -0.76933  -0.76404  -0.75828  -0.75536
 Alpha  occ. eigenvalues --   -0.75356  -0.74952  -0.73952  -0.73587  -0.70557
 Alpha  occ. eigenvalues --   -0.68445  -0.67388  -0.66287  -0.65280  -0.64086
 Alpha  occ. eigenvalues --   -0.63266  -0.62902  -0.62119  -0.60349  -0.59737
 Alpha  occ. eigenvalues --   -0.59266  -0.58494  -0.58116  -0.57897  -0.56065
 Alpha  occ. eigenvalues --   -0.55754  -0.55510  -0.54843  -0.54236  -0.54096
 Alpha  occ. eigenvalues --   -0.53014  -0.52537  -0.52204  -0.51742  -0.51411
 Alpha  occ. eigenvalues --   -0.50738  -0.50494  -0.49365  -0.49280  -0.49126
 Alpha  occ. eigenvalues --   -0.48937  -0.48809  -0.48476  -0.48258  -0.48226
 Alpha  occ. eigenvalues --   -0.48024  -0.47724  -0.47386  -0.46817  -0.46558
 Alpha  occ. eigenvalues --   -0.46548  -0.46151  -0.45807  -0.45152  -0.44949
 Alpha  occ. eigenvalues --   -0.44816  -0.44581  -0.43860  -0.43490  -0.43376
 Alpha  occ. eigenvalues --   -0.43140  -0.42606  -0.42334  -0.42177  -0.42021
 Alpha  occ. eigenvalues --   -0.41516  -0.41158  -0.40807  -0.40713  -0.40560
 Alpha  occ. eigenvalues --   -0.40392  -0.40019  -0.39801  -0.39623  -0.39223
 Alpha  occ. eigenvalues --   -0.39148  -0.38635  -0.38267  -0.38158  -0.37843
 Alpha  occ. eigenvalues --   -0.37424  -0.36815  -0.36071  -0.35831  -0.35644
 Alpha  occ. eigenvalues --   -0.35277  -0.34851  -0.34542  -0.32484  -0.31784
 Alpha  occ. eigenvalues --   -0.31187  -0.29683  -0.28439  -0.26398  -0.23765
 Alpha  occ. eigenvalues --   -0.20145
 Alpha virt. eigenvalues --   -0.04908  -0.00430   0.02711   0.06286   0.08080
 Alpha virt. eigenvalues --    0.09920   0.10847   0.11566   0.11800   0.11980
 Alpha virt. eigenvalues --    0.12420   0.13152   0.13241   0.13438   0.13695

 Mulliken charges:
               1
     1  O   -0.547112
     2  O   -0.564847
     3  C   -0.041366
     4  C   -0.006113
     5  C   -0.160141
     6  C   -0.185676
     7  C    0.164135
     8  C    0.177474
     9  C    0.067556
    10  C    0.025133
    11  C   -0.234525
    12  C   -0.236334
    13  C    0.010970
    14  C    0.089596
    15  C   -0.300818
    16  C   -0.286738
    17  C   -0.290021
    18  C   -0.304322
    19  C   -0.135218
    20  C   -0.131405
    21  C   -0.329740
    22  C   -0.369740
    23  C   -0.107648
    24  C   -0.072263
    25  C    0.064522
    26  C    0.096467
    27  C   -0.353257
    28  C   -0.354210
    29  C   -0.139278
    30  C   -0.123356
    31  C   -0.095410
    32  C   -0.087994
    33  C   -0.066923
    34  C   -0.108457
    35  C    0.093732
    36  C    0.093042
    37  C   -0.380562
    38  C   -0.392365
    39  C   -0.138346
    40  C   -0.082609
    41  C   -0.081506
    42  C   -0.080546
    43  H    0.099823
    44  H    0.069643
    45  H    0.084848
    46  H    0.111059
    47  H    0.083087
    48  H    0.054648
    49  H    0.115657
    50  H    0.103863
    51  H    0.114626
    52  H    0.096647
    53  H    0.104369
    54  H    0.082966
    55  H    0.112810
    56  H    0.102873
    57  H    0.100043
    58  H    0.096921
    59  H    0.092366
    60  H    0.115575
    61  H    0.083846
    62  H    0.084580
    63  H    0.078601
    64  H    0.104072
    65  H    0.084769
    66  H    0.090558
    67  H    0.113309
    68  H    0.139893
    69  H    0.106677
    70  H    0.100409
    71  H    0.127211
    72  H    0.124313
    73  H    0.308223
    74  H    0.309468
    75  H    0.061780
    76  H    0.083354
    77  H    0.113751
    78  H    0.115089
    79  H    0.131316
    80  H    0.116266
    81  H    0.118839
    82  H    0.082986
    83  H    0.098017
    84  H    0.074461
    85  H    0.079932
    86  H    0.086332
    87  H    0.077762
    88  H    0.076115
    89  H    0.134544
    90  H    0.094387
    91  H    0.122612
    92  H    0.132450
    93  H    0.119972
    94  H    0.095485
    95  H    0.065143
    96  H    0.074532
    97  H    0.063898
    98  H    0.089439
 Sum of Mulliken charges =  -0.00000

 Dipole moment (field-independent basis, Debye):
    X=             -0.2182    Y=             -1.0435    Z=              0.9461  Tot=              1.4254
 Quadrupole moment (field-independent basis, Debye-Ang):
   XX=           -272.4635   YY=           -245.3534   ZZ=           -260.3253
   XY=              2.3942   XZ=             -6.2059   YZ=              2.5022

 Normal termination of Gaussian 16 at Sun Jul 14 17:01:43 2019.
