 Gaussian 16, Revision A.03,
 Gaussian 16:  ES64L-G16RevA.03 25-Dec-2016

 -------------------------------------
 # td=(NStates=1) CAM-B3LYP/6-31G(d,p)
 -------------------------------------

 --
 TD
 --
 Symbolic Z-matrix:
 Charge =  0 Multiplicity = 1

                         Standard orientation:
 ---------------------------------------------------------------------
 Center     Atomic      Atomic             Coordinates (Angstroms)
 Number     Number       Type             X           Y           Z
 ---------------------------------------------------------------------
      1          8           0       14.505215   -2.518940   -0.527527
      2          8           0      -14.774768    1.857514    0.876677
      3          6           0       11.175496   -1.416376    0.985628
      4          6           0      -12.383600   -1.144849    0.408586
      5          6           0       12.679325   -1.907739    1.021625
      6          6           0      -13.650124   -0.309987    0.440232
      7          6           0       13.155301   -2.001244   -0.363462
      8          6           0      -13.519683    1.181372    0.842225
      9          6           0       10.943206   -0.214691   -0.019061
     10          6           0      -11.234429   -0.363691   -0.285468
     11          6           0       13.131158   -0.682124   -1.037264
     12          6           0      -12.761015    1.764643   -0.269040
     13          6           0       11.862610    0.146752   -0.951813
     14          6           0      -11.437012    0.970723   -0.655915
     15          6           0       10.726862   -1.008527    2.419624
     16          6           0       10.182164   -2.616716    0.569510
     17          6           0      -11.899028   -1.409581    1.860370
     18          6           0      -12.684853   -2.384999   -0.225648
     19          6           0        9.633835    0.446587    0.082886
     20          6           0       -9.926029   -1.023527   -0.454106
     21          6           0       11.605145    1.128288   -2.009124
     22          6           0      -10.450363    1.765745   -1.475988
     23          6           0        9.331317    1.809956    0.085752
     24          6           0       -8.714831   -0.438413   -0.427902
     25          6           0        8.093536    2.355613    0.224060
     26          6           0       -7.430823   -1.192766   -0.586610
     27          6           0        7.950828    3.816300    0.606663
     28          6           0       -7.507317   -2.636944   -0.988297
     29          6           0        6.906320    1.532013    0.040872
     30          6           0       -6.325791   -0.476629   -0.238398
     31          6           0        5.592752    2.004957    0.305779
     32          6           0       -4.920340   -0.925521   -0.259308
     33          6           0        4.508634    1.264701   -0.062790
     34          6           0       -3.843872   -0.188637   -0.039316
     35          6           0        3.165896    1.710953    0.063483
     36          6           0       -2.579476   -0.723432   -0.187963
     37          6           0        2.840280    3.231804    0.340446
     38          6           0       -2.404303   -2.130888   -0.610606
     39          6           0        2.173662    0.799691   -0.140298
     40          6           0       -1.513953    0.178070    0.005790
     41          6           0        0.788113    0.974846    0.007956
     42          6           0       -0.145441    0.000476   -0.067715
     43          1           0       13.233536   -1.043220    1.728134
     44          1           0       12.750544   -3.109477    1.374242
     45          1           0      -14.306192   -0.788781    1.168840
     46          1           0      -14.125476   -0.456757   -0.343997
     47          1           0       12.621265   -2.701430   -1.053912
     48          1           0      -13.079806    1.336772    1.811882
     49          1           0       13.947529    0.067996   -0.761981
     50          1           0       13.416020   -0.665644   -2.245463
     51          1           0      -13.404068    1.887179   -1.189343
     52          1           0      -12.643551    2.971427   -0.042495
     53          1           0       10.809252   -1.785796    3.223671
     54          1           0        9.643495   -0.676386    2.545187
     55          1           0       11.361523   -0.019132    2.556720
     56          1           0       10.611281   -3.339589   -0.215686
     57          1           0       10.304220   -3.360954    1.494243
     58          1           0        9.189160   -2.307515    0.502715
     59          1           0      -11.515901   -0.578446    2.529202
     60          1           0      -10.961921   -2.152838    1.824639
     61          1           0      -12.649544   -1.915732    2.669801
     62          1           0      -13.587511   -2.853535    0.365465
     63          1           0      -12.006082   -3.210651   -0.194267
     64          1           0      -12.969349   -2.063237   -1.342207
     65          1           0        8.805889   -0.019481    0.448000
     66          1           0      -10.008361   -2.087274   -0.294994
     67          1           0       10.479021    1.334651   -2.107303
     68          1           0       12.373939    1.989529   -2.018024
     69          1           0       11.814479    0.531587   -2.999444
     70          1           0      -10.966412    2.501642   -2.090096
     71          1           0       -9.942979    1.009258   -2.125745
     72          1           0       -9.746910    2.349160   -0.907227
     73          1           0       14.656111   -3.434571   -0.032607
     74          1           0      -15.081844    1.715022    1.878997
     75          1           0       10.208542    2.639878    0.138973
     76          1           0       -8.712932    0.679615   -0.266682
     77          1           0        9.010900    4.154090    0.572716
     78          1           0        7.281572    4.191284   -0.238400
     79          1           0        7.429970    3.849462    1.600307
     80          1           0       -8.212624   -3.253178   -0.274722
     81          1           0       -8.051435   -2.697939   -1.887618
     82          1           0       -6.628339   -3.115300   -1.299687
     83          1           0        7.016475    0.516642   -0.228829
     84          1           0       -6.322254    0.671385   -0.068168
     85          1           0        5.419508    2.886831    0.630778
     86          1           0       -4.648416   -1.844413   -0.746359
     87          1           0        4.683948    0.239124   -0.522715
     88          1           0       -3.909877    0.681410    0.396173
     89          1           0        2.549945    3.374408    1.701419
     90          1           0        1.890416    3.728017    0.029075
     91          1           0        3.741928    3.880190   -0.087262
     92          1           0       -3.055667   -2.632400    0.065607
     93          1           0       -2.714004   -2.418975   -1.589750
     94          1           0       -1.475539   -2.567386   -0.406543
     95          1           0        2.550508   -0.224744   -0.267314
     96          1           0       -1.869972    1.212265    0.200634
     97          1           0        0.394611    2.073891    0.211376
     98          1           0       -0.127144   -1.173772   -0.345536
 ---------------------------------------------------------------------

 SCF Done:  E(RCAM-B3LYP) =  -1706.94605590     A.U. after   15 cycles

 Excitation energies and oscillator strengths:

 Excited State   1:      Singlet-A      2.1562 eV  575.02 nm  f=3.4661  <S**2>=0.000
     155 ->158        -0.17038
     156 ->157         0.68361
 This state for optimization and/or second-order correction.
 Total Energy, E(TD-HF/TD-DFT) =  -1706.86681767
 Copying the excited state density for this state as the 1-particle RhoCI density.

 The electronic state is 1-A.
 Alpha  occ. eigenvalues --  -19.21891 -19.20792 -10.30722 -10.29884 -10.29871
 Alpha  occ. eigenvalues --  -10.29015 -10.28841 -10.27954 -10.27702 -10.27391
 Alpha  occ. eigenvalues --  -10.27298 -10.27122 -10.27009 -10.26962 -10.26846
 Alpha  occ. eigenvalues --  -10.26736 -10.26693 -10.26649 -10.26589 -10.26574
 Alpha  occ. eigenvalues --  -10.26476 -10.26449 -10.26413 -10.26403 -10.26376
 Alpha  occ. eigenvalues --  -10.26353 -10.26240 -10.26189 -10.26009 -10.25913
 Alpha  occ. eigenvalues --  -10.25750 -10.25738 -10.25681 -10.25677 -10.25575
 Alpha  occ. eigenvalues --  -10.25416 -10.25199 -10.24727 -10.24678 -10.24539
 Alpha  occ. eigenvalues --  -10.23845 -10.22662  -1.08309  -1.06608  -0.93757
 Alpha  occ. eigenvalues --   -0.93209  -0.93170  -0.91850  -0.90545  -0.90094
 Alpha  occ. eigenvalues --   -0.87898  -0.86767  -0.86512  -0.85320  -0.84651
 Alpha  occ. eigenvalues --   -0.83676  -0.82237  -0.80223  -0.80137  -0.78734
 Alpha  occ. eigenvalues --   -0.77587  -0.76262  -0.75653  -0.75223  -0.74882
 Alpha  occ. eigenvalues --   -0.74765  -0.74729  -0.74507  -0.73536  -0.70668
 Alpha  occ. eigenvalues --   -0.69072  -0.67121  -0.65404  -0.64977  -0.63756
 Alpha  occ. eigenvalues --   -0.63165  -0.62876  -0.62092  -0.61224  -0.60200
 Alpha  occ. eigenvalues --   -0.59374  -0.58781  -0.57324  -0.57204  -0.56076
 Alpha  occ. eigenvalues --   -0.55234  -0.54930  -0.54289  -0.54034  -0.53627
 Alpha  occ. eigenvalues --   -0.53178  -0.52689  -0.52164  -0.51298  -0.50854
 Alpha  occ. eigenvalues --   -0.50280  -0.50092  -0.49934  -0.49268  -0.49105
 Alpha  occ. eigenvalues --   -0.48997  -0.48691  -0.48538  -0.48406  -0.47847
 Alpha  occ. eigenvalues --   -0.47515  -0.47355  -0.46715  -0.46649  -0.46404
 Alpha  occ. eigenvalues --   -0.46002  -0.45726  -0.45365  -0.45126  -0.44856
 Alpha  occ. eigenvalues --   -0.44573  -0.44118  -0.43807  -0.43454  -0.43278
 Alpha  occ. eigenvalues --   -0.43145  -0.42750  -0.42545  -0.41972  -0.41790
 Alpha  occ. eigenvalues --   -0.41697  -0.41290  -0.40698  -0.40469  -0.40224
 Alpha  occ. eigenvalues --   -0.40162  -0.39884  -0.39478  -0.39246  -0.38786
 Alpha  occ. eigenvalues --   -0.38689  -0.38353  -0.38188  -0.38110  -0.37936
 Alpha  occ. eigenvalues --   -0.37821  -0.37261  -0.37073  -0.36676  -0.36279
 Alpha  occ. eigenvalues --   -0.35846  -0.35232  -0.34530  -0.32436  -0.31985
 Alpha  occ. eigenvalues --   -0.31819  -0.30119  -0.28423  -0.25580  -0.22824
 Alpha  occ. eigenvalues --   -0.19213
 Alpha virt. eigenvalues --   -0.05660  -0.01439   0.01988   0.05890   0.08012
 Alpha virt. eigenvalues --    0.09488   0.09907   0.10029   0.10352   0.11248
 Alpha virt. eigenvalues --    0.11896   0.12114   0.13173   0.13309   0.13642

 Mulliken charges:
               1
     1  O   -0.592433
     2  O   -0.560725
     3  C   -0.011884
     4  C   -0.005855
     5  C   -0.177327
     6  C   -0.150870
     7  C    0.209820
     8  C    0.161671
     9  C    0.066075
    10  C    0.078490
    11  C   -0.226152
    12  C   -0.214740
    13  C    0.087292
    14  C    0.022371
    15  C   -0.296784
    16  C   -0.299964
    17  C   -0.294598
    18  C   -0.289581
    19  C   -0.140667
    20  C   -0.125617
    21  C   -0.367129
    22  C   -0.378263
    23  C   -0.109561
    24  C   -0.092593
    25  C    0.067283
    26  C    0.106041
    27  C   -0.353403
    28  C   -0.372787
    29  C   -0.118328
    30  C   -0.137490
    31  C   -0.051636
    32  C   -0.115012
    33  C   -0.126459
    34  C   -0.047964
    35  C    0.126890
    36  C    0.100461
    37  C   -0.339854
    38  C   -0.400082
    39  C   -0.121775
    40  C   -0.135511
    41  C   -0.115858
    42  C   -0.044176
    43  H    0.098573
    44  H    0.060882
    45  H    0.071596
    46  H    0.097613
    47  H    0.098265
    48  H    0.085227
    49  H    0.113576
    50  H    0.080433
    51  H    0.120571
    52  H    0.074277
    53  H    0.104834
    54  H    0.100986
    55  H    0.088491
    56  H    0.097208
    57  H    0.074350
    58  H    0.118656
    59  H    0.104781
    60  H    0.078833
    61  H    0.071713
    62  H    0.087791
    63  H    0.107027
    64  H    0.092010
    65  H    0.085340
    66  H    0.067653
    67  H    0.130431
    68  H    0.112052
    69  H    0.095339
    70  H    0.104588
    71  H    0.127181
    72  H    0.122680
    73  H    0.300319
    74  H    0.306001
    75  H    0.067034
    76  H    0.094752
    77  H    0.105717
    78  H    0.124696
    79  H    0.131636
    80  H    0.112399
    81  H    0.134818
    82  H    0.118068
    83  H    0.078142
    84  H    0.081633
    85  H    0.061874
    86  H    0.072132
    87  H    0.085141
    88  H    0.069054
    89  H    0.057040
    90  H    0.129409
    91  H    0.106301
    92  H    0.131579
    93  H    0.136542
    94  H    0.116647
    95  H    0.081617
    96  H    0.062570
    97  H    0.083396
    98  H    0.067209
 Sum of Mulliken charges =  -0.00000

 Dipole moment (field-independent basis, Debye):
    X=             -0.5778    Y=             -1.5529    Z=              1.5623  Tot=              2.2773
 Quadrupole moment (field-independent basis, Debye-Ang):
   XX=           -293.2950   YY=           -242.3413   ZZ=           -261.1962
   XY=              5.6046   XZ=             -6.2853   YZ=              2.2674

 Normal termination of Gaussian 16 at Sat Jul 13 19:27:20 2019.
