 Gaussian 16, Revision A.03,
 Gaussian 16:  ES64L-G16RevA.03 25-Dec-2016

 -------------------------------------
 # td=(NStates=1) CAM-B3LYP/6-31G(d,p)
 -------------------------------------

 --
 TD
 --
 Symbolic Z-matrix:
 Charge =  0 Multiplicity = 1

                         Standard orientation:
 ---------------------------------------------------------------------
 Center     Atomic      Atomic             Coordinates (Angstroms)
 Number     Number       Type             X           Y           Z
 ---------------------------------------------------------------------
      1          8           0       14.654371   -2.288914   -0.221841
      2          8           0      -14.707095    1.919378    1.104717
      3          6           0       11.159839   -1.322792    1.125600
      4          6           0      -12.375173   -1.023092    0.552855
      5          6           0       12.681833   -1.769242    1.095480
      6          6           0      -13.648487   -0.277393    0.561766
      7          6           0       13.200960   -2.007479   -0.300159
      8          6           0      -13.400084    1.153481    0.933408
      9          6           0       10.974406   -0.252381    0.004129
     10          6           0      -11.209734   -0.165614   -0.208550
     11          6           0       13.167751   -0.725766   -1.061448
     12          6           0      -12.646528    1.910449   -0.222877
     13          6           0       11.830762   -0.000740   -1.017678
     14          6           0      -11.402626    1.062328   -0.682703
     15          6           0       10.819007   -0.895600    2.594362
     16          6           0       10.348759   -2.542537    0.708227
     17          6           0      -11.851901   -1.305966    1.964707
     18          6           0      -12.620839   -2.372328   -0.194325
     19          6           0        9.645395    0.518561    0.078033
     20          6           0       -9.909754   -0.946078   -0.446038
     21          6           0       11.462216    1.076724   -2.068513
     22          6           0      -10.521352    1.893255   -1.446371
     23          6           0        9.415633    1.715554   -0.096601
     24          6           0       -8.656230   -0.539086   -0.360648
     25          6           0        8.017365    2.292459    0.066784
     26          6           0       -7.553934   -1.305303   -0.590999
     27          6           0        7.950148    3.852421    0.273881
     28          6           0       -7.684518   -2.728931   -0.969173
     29          6           0        6.978670    1.496973   -0.043336
     30          6           0       -6.443223   -0.628330   -0.313670
     31          6           0        5.618774    2.009981    0.146555
     32          6           0       -5.124339   -1.138164   -0.421117
     33          6           0        4.490385    1.240778    0.038741
     34          6           0       -3.922756   -0.299873   -0.394015
     35          6           0        3.184342    1.668915    0.183025
     36          6           0       -2.628154   -0.776879   -0.449154
     37          6           0        2.831695    3.088001    0.705258
     38          6           0       -2.394077   -2.178842   -0.915700
     39          6           0        2.052504    0.732394   -0.039058
     40          6           0       -1.584775    0.070216   -0.276022
     41          6           0        0.794898    0.935058   -0.059345
     42          6           0       -0.176786   -0.120666   -0.330013
     43          1           0       13.232415   -0.917050    1.543242
     44          1           0       12.897258   -2.632816    1.653175
     45          1           0      -14.323551   -0.745555    1.168186
     46          1           0      -14.119993   -0.402598   -0.475616
     47          1           0       12.615161   -2.729615   -1.002402
     48          1           0      -12.809554    1.243479    1.845010
     49          1           0       13.824922    0.198387   -0.610188
     50          1           0       13.382023   -0.931695   -2.209006
     51          1           0      -13.364762    2.064050   -1.132466
     52          1           0      -12.500802    2.886739    0.449321
     53          1           0       11.053326   -1.619598    3.390949
     54          1           0        9.675993   -0.693146    2.447468
     55          1           0       11.250264    0.069857    2.847124
     56          1           0       10.046972   -2.571698   -0.447085
     57          1           0       10.924015   -3.623452    1.171830
     58          1           0        9.224737   -2.543548    1.291969
     59          1           0      -11.546159   -0.427063    2.637002
     60          1           0      -10.924387   -1.939025    1.793802
     61          1           0      -12.734355   -1.813017    2.441128
     62          1           0      -13.448165   -3.097666    0.208108
     63          1           0      -11.727609   -3.083540   -0.386743
     64          1           0      -12.872533   -2.127480   -1.322065
     65          1           0        8.869207   -0.112584    0.594205
     66          1           0      -10.228718   -2.018497   -0.646458
     67          1           0       10.297481    1.349066   -2.167121
     68          1           0       12.032634    1.872685   -1.870533
     69          1           0       11.607419    0.880090   -3.270024
     70          1           0      -11.162280    2.481766   -2.122121
     71          1           0       -9.894053    1.317999   -2.037105
     72          1           0       -9.814953    2.427308   -0.589906
     73          1           0       14.641057   -3.154542    0.450291
     74          1           0      -15.113127    1.507628    1.955453
     75          1           0       10.285139    2.374171   -0.404439
     76          1           0       -8.655437    0.531831    0.237647
     77          1           0        8.905089    4.313506    0.302695
     78          1           0        7.049599    4.079826   -0.381214
     79          1           0        7.473643    4.066720    1.263401
     80          1           0       -8.395402   -3.148389   -0.159900
     81          1           0       -8.175234   -2.643843   -1.982852
     82          1           0       -6.632599   -3.038253   -1.166162
     83          1           0        7.040756    0.575353   -0.432154
     84          1           0       -6.690963    0.488586    0.270448
     85          1           0        5.554007    3.008083    0.492761
     86          1           0       -4.982840   -2.311502   -0.813383
     87          1           0        4.757959    0.262399   -0.283600
     88          1           0       -3.994930    0.593190    0.247454
     89          1           0        3.089150    3.138271    1.765000
     90          1           0        1.849363    3.306340    0.754710
     91          1           0        3.460856    3.853580    0.225507
     92          1           0       -2.771276   -2.786427   -0.043557
     93          1           0       -3.003494   -2.415081   -1.789351
     94          1           0       -1.218059   -2.361633   -0.950216
     95          1           0        2.423166   -0.347448   -0.072795
     96          1           0       -1.942173    1.164154   -0.236731
     97          1           0        0.398687    1.948865    0.161968
     98          1           0        0.386469   -1.177694   -0.419445
 ---------------------------------------------------------------------

 SCF Done:  E(RCAM-B3LYP) =  -1706.88874975     A.U. after   15 cycles

 Excitation energies and oscillator strengths:

 Excited State   1:      Singlet-A      1.9431 eV  638.08 nm  f=3.5839  <S**2>=0.000
     155 ->158         0.11251
     156 ->157         0.70758
     156 <-157        -0.13612
 This state for optimization and/or second-order correction.
 Total Energy, E(TD-HF/TD-DFT) =  -1706.81734335
 Copying the excited state density for this state as the 1-particle RhoCI density.

 The electronic state is 1-A.
 Alpha  occ. eigenvalues --  -19.22378 -19.20872 -10.31275 -10.30264 -10.29191
 Alpha  occ. eigenvalues --  -10.28706 -10.28582 -10.28564 -10.28302 -10.28084
 Alpha  occ. eigenvalues --  -10.27493 -10.27406 -10.27264 -10.27199 -10.27120
 Alpha  occ. eigenvalues --  -10.27107 -10.26824 -10.26622 -10.26547 -10.26515
 Alpha  occ. eigenvalues --  -10.26417 -10.26391 -10.26276 -10.26199 -10.26156
 Alpha  occ. eigenvalues --  -10.26131 -10.26129 -10.26063 -10.26051 -10.26011
 Alpha  occ. eigenvalues --  -10.25971 -10.25945 -10.25805 -10.25803 -10.25688
 Alpha  occ. eigenvalues --  -10.25423 -10.25259 -10.25118 -10.24896 -10.24880
 Alpha  occ. eigenvalues --  -10.24372 -10.24079  -1.06416  -1.04999  -0.93796
 Alpha  occ. eigenvalues --   -0.93462  -0.92645  -0.92107  -0.91507  -0.90489
 Alpha  occ. eigenvalues --   -0.87807  -0.87658  -0.86481  -0.85262  -0.84553
 Alpha  occ. eigenvalues --   -0.82456  -0.81661  -0.80507  -0.79951  -0.78592
 Alpha  occ. eigenvalues --   -0.77163  -0.76877  -0.76125  -0.75838  -0.75711
 Alpha  occ. eigenvalues --   -0.75437  -0.74589  -0.74011  -0.73241  -0.71360
 Alpha  occ. eigenvalues --   -0.68054  -0.66738  -0.65295  -0.63822  -0.63347
 Alpha  occ. eigenvalues --   -0.62949  -0.62479  -0.61349  -0.60749  -0.59482
 Alpha  occ. eigenvalues --   -0.57774  -0.57264  -0.57039  -0.56597  -0.55833
 Alpha  occ. eigenvalues --   -0.55292  -0.54711  -0.54257  -0.54012  -0.53610
 Alpha  occ. eigenvalues --   -0.52724  -0.52179  -0.51858  -0.51694  -0.50422
 Alpha  occ. eigenvalues --   -0.49960  -0.49771  -0.49677  -0.49413  -0.49182
 Alpha  occ. eigenvalues --   -0.48982  -0.48517  -0.48419  -0.48252  -0.48030
 Alpha  occ. eigenvalues --   -0.47909  -0.47773  -0.47330  -0.46640  -0.46294
 Alpha  occ. eigenvalues --   -0.45866  -0.45458  -0.45335  -0.45278  -0.45003
 Alpha  occ. eigenvalues --   -0.44860  -0.44619  -0.43751  -0.43558  -0.43291
 Alpha  occ. eigenvalues --   -0.42919  -0.42745  -0.42314  -0.41972  -0.41496
 Alpha  occ. eigenvalues --   -0.41428  -0.40849  -0.40668  -0.40505  -0.40424
 Alpha  occ. eigenvalues --   -0.39980  -0.39668  -0.39364  -0.39237  -0.39158
 Alpha  occ. eigenvalues --   -0.39103  -0.38723  -0.38504  -0.38132  -0.37948
 Alpha  occ. eigenvalues --   -0.37724  -0.37470  -0.37159  -0.36118  -0.35875
 Alpha  occ. eigenvalues --   -0.35428  -0.34454  -0.34215  -0.32804  -0.32329
 Alpha  occ. eigenvalues --   -0.32132  -0.30279  -0.28480  -0.26830  -0.24235
 Alpha  occ. eigenvalues --   -0.18331
 Alpha virt. eigenvalues --   -0.07000  -0.00356   0.03220   0.06043   0.08051
 Alpha virt. eigenvalues --    0.09472   0.09810   0.10037   0.10802   0.11444
 Alpha virt. eigenvalues --    0.11758   0.11997   0.12345   0.12833   0.13464

 Mulliken charges:
               1
     1  O   -0.555364
     2  O   -0.578242
     3  C   -0.005825
     4  C   -0.012408
     5  C   -0.186330
     6  C   -0.157332
     7  C    0.162562
     8  C    0.126215
     9  C    0.029769
    10  C    0.047090
    11  C   -0.198832
    12  C   -0.207250
    13  C    0.041295
    14  C    0.030181
    15  C   -0.297025
    16  C   -0.267291
    17  C   -0.281150
    18  C   -0.316485
    19  C   -0.087226
    20  C   -0.169041
    21  C   -0.371627
    22  C   -0.331498
    23  C   -0.115213
    24  C   -0.073445
    25  C    0.063753
    26  C    0.134726
    27  C   -0.374246
    28  C   -0.342124
    29  C   -0.097036
    30  C   -0.099753
    31  C   -0.100187
    32  C   -0.144377
    33  C   -0.104241
    34  C   -0.140627
    35  C    0.077506
    36  C    0.143939
    37  C   -0.369117
    38  C   -0.365703
    39  C   -0.114209
    40  C   -0.135276
    41  C   -0.059291
    42  C   -0.115810
    43  H    0.109376
    44  H    0.076339
    45  H    0.084047
    46  H    0.095149
    47  H    0.091930
    48  H    0.093374
    49  H    0.104949
    50  H    0.098400
    51  H    0.110344
    52  H    0.108576
    53  H    0.112324
    54  H    0.091972
    55  H    0.114050
    56  H    0.111652
    57  H    0.063751
    58  H    0.067036
    59  H    0.098311
    60  H    0.102391
    61  H    0.090190
    62  H    0.097264
    63  H    0.094699
    64  H    0.099615
    65  H    0.079045
    66  H    0.065324
    67  H    0.126095
    68  H    0.134217
    69  H    0.077249
    70  H    0.109560
    71  H    0.123096
    72  H    0.098029
    73  H    0.294328
    74  H    0.298955
    75  H    0.092985
    76  H    0.076104
    77  H    0.122261
    78  H    0.129432
    79  H    0.122673
    80  H    0.130042
    81  H    0.126811
    82  H    0.106349
    83  H    0.083857
    84  H    0.071006
    85  H    0.070201
    86  H    0.074171
    87  H    0.079700
    88  H    0.090021
    89  H    0.127095
    90  H    0.118266
    91  H    0.114337
    92  H    0.116578
    93  H    0.128881
    94  H    0.095187
    95  H    0.073591
    96  H    0.079992
    97  H    0.084370
    98  H    0.081000
 Sum of Mulliken charges =  -0.00000

 Dipole moment (field-independent basis, Debye):
    X=              0.9902    Y=             -1.4970    Z=              2.3019  Tot=              2.9189
 Quadrupole moment (field-independent basis, Debye-Ang):
   XX=           -294.9168   YY=           -248.2498   ZZ=           -259.0682
   XY=             24.6163   XZ=              1.7730   YZ=              1.8894

 Normal termination of Gaussian 16 at Tue Jul  9 09:25:44 2019.
