 Gaussian 16, Revision A.03,
 Gaussian 16:  ES64L-G16RevA.03 25-Dec-2016

 -------------------------------------
 # td=(NStates=1) CAM-B3LYP/6-31G(d,p)
 -------------------------------------

 --
 TD
 --
 Symbolic Z-matrix:
 Charge =  0 Multiplicity = 1

                         Standard orientation:
 ---------------------------------------------------------------------
 Center     Atomic      Atomic             Coordinates (Angstroms)
 Number     Number       Type             X           Y           Z
 ---------------------------------------------------------------------
      1          8           0       14.607749   -2.339859   -0.615275
      2          8           0      -14.973359    1.779298    0.661595
      3          6           0       11.236024   -1.396301    0.988218
      4          6           0      -12.426263   -1.112539    0.459046
      5          6           0       12.778536   -1.858594    0.915996
      6          6           0      -13.752502   -0.376571    0.401536
      7          6           0       13.224682   -1.979102   -0.511418
      8          6           0      -13.647200    1.031990    0.736325
      9          6           0       11.006924   -0.362384    0.013147
     10          6           0      -11.348184   -0.348164   -0.254869
     11          6           0       13.201438   -0.673165   -1.230299
     12          6           0      -12.766128    1.777724   -0.371450
     13          6           0       11.812341    0.127544   -1.026896
     14          6           0      -11.472312    1.008566   -0.708881
     15          6           0       10.718211   -1.108795    2.330032
     16          6           0       10.299476   -2.622673    0.658327
     17          6           0      -12.116607   -1.372633    1.860651
     18          6           0      -12.661229   -2.426118   -0.312776
     19          6           0        9.679570    0.248158    0.119440
     20          6           0       -9.936711   -1.002928   -0.440364
     21          6           0       11.758137    1.177502   -1.911598
     22          6           0      -10.589942    1.820253   -1.590200
     23          6           0        9.323493    1.578316    0.080993
     24          6           0       -8.788908   -0.452274   -0.243017
     25          6           0        8.146436    2.216136    0.223404
     26          6           0       -7.554926   -1.175142   -0.420646
     27          6           0        8.069735    3.711694    0.558804
     28          6           0       -7.577404   -2.636614   -0.813131
     29          6           0        6.930731    1.517452   -0.006880
     30          6           0       -6.420777   -0.526253   -0.170507
     31          6           0        5.608300    2.067888    0.265265
     32          6           0       -5.006209   -1.039790   -0.207428
     33          6           0        4.546875    1.312671    0.064574
     34          6           0       -3.926720   -0.217447   -0.068388
     35          6           0        3.199846    1.806784    0.226489
     36          6           0       -2.508733   -0.656769   -0.197155
     37          6           0        3.023198    3.225670    0.655899
     38          6           0       -2.250530   -2.073498   -0.529685
     39          6           0        2.157199    0.909432    0.081114
     40          6           0       -1.614915    0.373920    0.002967
     41          6           0        0.779445    1.095398    0.168506
     42          6           0       -0.202240    0.185912   -0.205425
     43          1           0       13.277635   -1.039208    1.403645
     44          1           0       12.771800   -2.823544    1.491151
     45          1           0      -14.511994   -0.875004    1.099667
     46          1           0      -14.151862   -0.604559   -0.534934
     47          1           0       12.639086   -2.655003   -1.169109
     48          1           0      -13.187005    1.346158    1.625342
     49          1           0       14.022540   -0.094167   -0.801074
     50          1           0       13.178858   -0.876617   -2.410072
     51          1           0      -13.383287    1.722549   -1.181435
     52          1           0      -12.669880    2.827535   -0.254322
     53          1           0       10.989832   -1.821855    3.343717
     54          1           0        9.613436   -0.914411    2.140846
     55          1           0       11.287551   -0.191102    2.657185
     56          1           0       10.374620   -2.898040   -0.552001
     57          1           0       10.556386   -3.613861    1.384858
     58          1           0        9.174740   -2.412075    0.568130
     59          1           0      -11.776582   -0.365326    2.383564
     60          1           0      -11.156263   -2.014605    2.023710
     61          1           0      -12.853644   -1.996783    2.412800
     62          1           0      -13.580483   -2.811149    0.001055
     63          1           0      -11.827064   -3.262722    0.005237
     64          1           0      -12.411464   -2.353671   -1.627209
     65          1           0        8.873892   -0.439746    0.109242
     66          1           0      -10.067015   -2.125247   -0.738115
     67          1           0       10.699638    1.669963   -1.986811
     68          1           0       12.620864    1.957779   -1.697793
     69          1           0       11.926380    0.777546   -2.959873
     70          1           0      -11.256024    2.362150   -2.292622
     71          1           0       -9.898682    1.373731   -2.251597
     72          1           0      -10.076483    2.636281   -0.894654
     73          1           0       14.794059   -3.270683   -0.193837
     74          1           0      -15.368931    1.594822    1.727704
     75          1           0       10.260042    2.127847   -0.107097
     76          1           0       -8.579736    0.668778    0.120252
     77          1           0        8.995464    4.202755    0.503061
     78          1           0        7.436170    4.077684   -0.114524
     79          1           0        7.567972    3.846535    1.582973
     80          1           0       -8.346777   -3.176280   -0.285627
     81          1           0       -7.743206   -2.580519   -1.876041
     82          1           0       -6.562554   -3.172190   -0.803815
     83          1           0        7.056083    0.443504   -0.345376
     84          1           0       -6.537128    0.501350    0.308342
     85          1           0        5.514823    3.123850    0.609965
     86          1           0       -4.906675   -1.940011   -0.654405
     87          1           0        4.621955    0.172189   -0.142747
     88          1           0       -4.042847    0.912523   -0.014952
     89          1           0        2.884442    3.023053    1.923253
     90          1           0        1.984203    3.779069   -0.074005
     91          1           0        4.329566    3.860870    0.447510
     92          1           0       -2.411504   -2.742518    0.268303
     93          1           0       -2.758083   -2.477967   -1.417909
     94          1           0       -1.136452   -2.218806   -0.626829
     95          1           0        2.506083   -0.093250   -0.293524
     96          1           0       -1.915443    1.344825    0.313485
     97          1           0        0.249307    1.972615    0.688280
     98          1           0        0.241576   -0.632092   -0.749863
 ---------------------------------------------------------------------

 SCF Done:  E(RCAM-B3LYP) =  -1706.86813090     A.U. after   14 cycles

 Excitation energies and oscillator strengths:

 Excited State   1:      Singlet-A      2.4856 eV  498.82 nm  f=3.2805  <S**2>=0.000
     155 ->158        -0.16749
     156 ->157         0.68216
 This state for optimization and/or second-order correction.
 Total Energy, E(TD-HF/TD-DFT) =  -1706.77678841
 Copying the excited state density for this state as the 1-particle RhoCI density.

 The electronic state is 1-A.
 Alpha  occ. eigenvalues --  -19.22055 -19.21007 -10.31953 -10.30006 -10.29871
 Alpha  occ. eigenvalues --  -10.27985 -10.27783 -10.27759 -10.27565 -10.27429
 Alpha  occ. eigenvalues --  -10.27288 -10.27276 -10.27241 -10.26813 -10.26667
 Alpha  occ. eigenvalues --  -10.26623 -10.26606 -10.26474 -10.26468 -10.26452
 Alpha  occ. eigenvalues --  -10.26450 -10.26432 -10.26314 -10.26195 -10.26185
 Alpha  occ. eigenvalues --  -10.26152 -10.26144 -10.26143 -10.25965 -10.25960
 Alpha  occ. eigenvalues --  -10.25816 -10.25780 -10.25758 -10.25716 -10.25607
 Alpha  occ. eigenvalues --  -10.25567 -10.25516 -10.25385 -10.24833 -10.24733
 Alpha  occ. eigenvalues --  -10.24682 -10.23940  -1.07543  -1.03909  -0.94561
 Alpha  occ. eigenvalues --   -0.93863  -0.92113  -0.91542  -0.90794  -0.90115
 Alpha  occ. eigenvalues --   -0.88138  -0.87207  -0.86881  -0.85082  -0.84441
 Alpha  occ. eigenvalues --   -0.83046  -0.81849  -0.80908  -0.79990  -0.78263
 Alpha  occ. eigenvalues --   -0.77107  -0.76577  -0.75994  -0.75522  -0.75427
 Alpha  occ. eigenvalues --   -0.74689  -0.73942  -0.73432  -0.73301  -0.70214
 Alpha  occ. eigenvalues --   -0.68500  -0.66862  -0.65324  -0.64461  -0.63758
 Alpha  occ. eigenvalues --   -0.63685  -0.62317  -0.61612  -0.60457  -0.59579
 Alpha  occ. eigenvalues --   -0.58736  -0.58434  -0.57321  -0.57104  -0.55490
 Alpha  occ. eigenvalues --   -0.55201  -0.54330  -0.54101  -0.53653  -0.52970
 Alpha  occ. eigenvalues --   -0.52611  -0.52212  -0.51943  -0.51622  -0.50932
 Alpha  occ. eigenvalues --   -0.50723  -0.50581  -0.49814  -0.49517  -0.49371
 Alpha  occ. eigenvalues --   -0.49147  -0.48770  -0.48532  -0.48515  -0.48170
 Alpha  occ. eigenvalues --   -0.47469  -0.47258  -0.46739  -0.46615  -0.46244
 Alpha  occ. eigenvalues --   -0.46156  -0.45771  -0.45538  -0.45200  -0.44894
 Alpha  occ. eigenvalues --   -0.44674  -0.44432  -0.43852  -0.43566  -0.43370
 Alpha  occ. eigenvalues --   -0.43025  -0.42918  -0.42528  -0.42028  -0.41666
 Alpha  occ. eigenvalues --   -0.41633  -0.40787  -0.40542  -0.40391  -0.40233
 Alpha  occ. eigenvalues --   -0.39787  -0.39672  -0.39364  -0.38996  -0.38914
 Alpha  occ. eigenvalues --   -0.38753  -0.38558  -0.38368  -0.37943  -0.37572
 Alpha  occ. eigenvalues --   -0.36351  -0.36151  -0.35857  -0.35768  -0.35415
 Alpha  occ. eigenvalues --   -0.34886  -0.34752  -0.34107  -0.32470  -0.32052
 Alpha  occ. eigenvalues --   -0.31854  -0.29056  -0.27828  -0.25653  -0.23330
 Alpha  occ. eigenvalues --   -0.20035
 Alpha virt. eigenvalues --   -0.04675  -0.00417   0.02641   0.05602   0.06416
 Alpha virt. eigenvalues --    0.07619   0.08676   0.09390   0.10997   0.11113
 Alpha virt. eigenvalues --    0.11173   0.11666   0.11797   0.12391   0.13062

 Mulliken charges:
               1
     1  O   -0.576184
     2  O   -0.565568
     3  C   -0.045277
     4  C    0.003968
     5  C   -0.183227
     6  C   -0.162634
     7  C    0.184157
     8  C    0.126447
     9  C    0.093222
    10  C    0.021210
    11  C   -0.213395
    12  C   -0.238482
    13  C    0.087261
    14  C    0.054685
    15  C   -0.264991
    16  C   -0.285459
    17  C   -0.289491
    18  C   -0.292674
    19  C   -0.140363
    20  C   -0.159709
    21  C   -0.378310
    22  C   -0.354074
    23  C   -0.130767
    24  C   -0.055033
    25  C    0.086408
    26  C    0.135315
    27  C   -0.361345
    28  C   -0.373631
    29  C   -0.133570
    30  C   -0.163580
    31  C   -0.091427
    32  C   -0.094565
    33  C   -0.082703
    34  C   -0.107296
    35  C    0.120993
    36  C    0.120646
    37  C   -0.308537
    38  C   -0.385557
    39  C   -0.138751
    40  C   -0.128170
    41  C   -0.089303
    42  C   -0.087020
    43  H    0.107308
    44  H    0.083563
    45  H    0.074312
    46  H    0.119013
    47  H    0.084325
    48  H    0.101901
    49  H    0.120883
    50  H    0.091639
    51  H    0.132569
    52  H    0.108052
    53  H    0.079256
    54  H    0.114130
    55  H    0.089839
    56  H    0.062552
    57  H    0.083490
    58  H    0.106017
    59  H    0.097327
    60  H    0.090854
    61  H    0.100666
    62  H    0.114689
    63  H    0.076194
    64  H    0.078385
    65  H    0.077828
    66  H    0.079846
    67  H    0.109874
    68  H    0.119121
    69  H    0.110664
    70  H    0.109546
    71  H    0.127731
    72  H    0.101512
    73  H    0.300677
    74  H    0.288129
    75  H    0.075055
    76  H    0.085747
    77  H    0.113869
    78  H    0.137138
    79  H    0.115545
    80  H    0.123909
    81  H    0.131323
    82  H    0.101289
    83  H    0.078247
    84  H    0.066873
    85  H    0.084537
    86  H    0.074613
    87  H    0.085964
    88  H    0.083414
    89  H    0.112693
    90  H    0.089669
    91  H    0.053309
    92  H    0.139738
    93  H    0.125559
    94  H    0.105079
    95  H    0.073561
    96  H    0.093801
    97  H    0.071975
    98  H    0.081982
 Sum of Mulliken charges =  -0.00000

 Dipole moment (field-independent basis, Debye):
    X=              0.2141    Y=             -1.9958    Z=              1.2818  Tot=              2.3816
 Quadrupole moment (field-independent basis, Debye-Ang):
   XX=           -284.1984   YY=           -245.7421   ZZ=           -260.0496
   XY=              9.7621   XZ=             -8.2407   YZ=              1.5981

 Normal termination of Gaussian 16 at Fri Jul 19 19:35:22 2019.
