 Gaussian 16, Revision A.03,
 Gaussian 16:  ES64L-G16RevA.03 25-Dec-2016

 -------------------------------------
 # td=(NStates=1) CAM-B3LYP/6-31G(d,p)
 -------------------------------------

 --
 TD
 --
 Symbolic Z-matrix:
 Charge =  0 Multiplicity = 1

                         Standard orientation:
 ---------------------------------------------------------------------
 Center     Atomic      Atomic             Coordinates (Angstroms)
 Number     Number       Type             X           Y           Z
 ---------------------------------------------------------------------
      1          8           0       14.709156   -2.280034   -0.572951
      2          8           0      -14.876231    2.077511    0.643970
      3          6           0       11.155719   -1.454710    0.935031
      4          6           0      -12.365204   -0.951551    0.718857
      5          6           0       12.654756   -1.682365    0.938341
      6          6           0      -13.700161   -0.192475    0.666662
      7          6           0       13.291381   -1.938541   -0.383651
      8          6           0      -13.649292    1.318128    0.721577
      9          6           0       10.973275   -0.173153   -0.045611
     10          6           0      -11.297171   -0.263184   -0.165411
     11          6           0       13.225708   -0.564412   -1.078380
     12          6           0      -12.764191    1.773863   -0.586351
     13          6           0       11.878163    0.158892   -0.990654
     14          6           0      -11.482498    0.969325   -0.763885
     15          6           0       10.759993   -1.001949    2.283400
     16          6           0       10.387796   -2.767002    0.597872
     17          6           0      -11.849466   -1.033839    2.159730
     18          6           0      -12.582983   -2.464042    0.195483
     19          6           0        9.669904    0.381375    0.111928
     20          6           0      -10.018768   -1.008025   -0.472391
     21          6           0       11.612604    1.217197   -1.943107
     22          6           0      -10.597671    1.630415   -1.749044
     23          6           0        9.322823    1.710005    0.063256
     24          6           0       -8.726739   -0.573049   -0.397318
     25          6           0        8.020372    2.218531    0.232478
     26          6           0       -7.572822   -1.305556   -0.581297
     27          6           0        7.960132    3.615939    0.675364
     28          6           0       -7.453921   -2.849574   -0.794804
     29          6           0        6.924458    1.486579    0.102509
     30          6           0       -6.376955   -0.667789   -0.486801
     31          6           0        5.598501    2.094693    0.254843
     32          6           0       -5.120060   -1.214478   -0.534128
     33          6           0        4.491498    1.411672    0.135736
     34          6           0       -3.982725   -0.348741   -0.375493
     35          6           0        3.080671    1.751466    0.347163
     36          6           0       -2.577928   -0.907753   -0.306217
     37          6           0        2.892056    3.291064    0.428347
     38          6           0       -2.274607   -2.273727   -0.618866
     39          6           0        2.153550    0.840264    0.100030
     40          6           0       -1.556013    0.137932   -0.087950
     41          6           0        0.746118    0.913660    0.161883
     42          6           0       -0.182146   -0.090573   -0.123453
     43          1           0       13.231227   -0.869118    1.634123
     44          1           0       12.810508   -2.746484    1.445088
     45          1           0      -14.352674   -0.532014    1.523530
     46          1           0      -14.240957   -0.501581   -0.196982
     47          1           0       12.775105   -2.663149   -1.098628
     48          1           0      -13.009121    1.488480    1.650836
     49          1           0       14.099867    0.152510   -0.674198
     50          1           0       13.551150   -0.579563   -2.259070
     51          1           0      -13.554617    1.500929   -1.536990
     52          1           0      -12.490733    2.950146   -0.437037
     53          1           0       10.985141   -1.745842    2.892858
     54          1           0        9.618669   -0.674205    2.566753
     55          1           0       11.215638   -0.214933    2.637373
     56          1           0       10.457228   -3.010148   -0.585849
     57          1           0       10.778273   -3.345204    1.348771
     58          1           0        9.513727   -2.301023    0.792461
     59          1           0      -11.542256   -0.042330    2.587134
     60          1           0      -10.905062   -1.468948    1.963154
     61          1           0      -12.464004   -1.510522    2.792814
     62          1           0      -13.428934   -2.929064    0.682354
     63          1           0      -11.811966   -3.126024    0.383369
     64          1           0      -12.754499   -2.490851   -0.947287
     65          1           0        8.852337   -0.254773    0.461045
     66          1           0      -10.275238   -1.994309   -0.632573
     67          1           0       10.457907    1.201353   -2.179278
     68          1           0       11.665351    2.199240   -1.395636
     69          1           0       12.144546    0.911460   -2.833914
     70          1           0      -11.278258    2.011142   -2.461965
     71          1           0       -9.970367    0.794308   -2.121734
     72          1           0       -9.795141    2.467369   -1.253897
     73          1           0       14.930133   -3.143637   -0.424735
     74          1           0      -15.247830    2.017549    1.493225
     75          1           0        9.973757    2.439083   -0.239617
     76          1           0       -8.489713    0.537779   -0.292911
     77          1           0        8.880521    4.240572    0.580978
     78          1           0        7.216896    4.123320   -0.074074
     79          1           0        7.579969    3.759989    1.680512
     80          1           0       -7.858804   -3.573989   -0.074458
     81          1           0       -8.041117   -3.093045   -1.503281
     82          1           0       -6.407826   -3.238762   -0.965474
     83          1           0        7.044504    0.469911    0.053716
     84          1           0       -6.310965    0.403024   -0.301860
     85          1           0        5.657641    3.285880    0.498779
     86          1           0       -4.927224   -2.324033   -0.768924
     87          1           0        4.573078    0.296545    0.077789
     88          1           0       -4.080612    0.729101   -0.226404
     89          1           0        3.355268    3.478539    1.352474
     90          1           0        1.745716    3.670262    0.192240
     91          1           0        3.482168    3.697909   -0.413096
     92          1           0       -2.660771   -2.823077    0.260902
     93          1           0       -3.101384   -2.548365   -1.543154
     94          1           0       -1.256400   -2.552766   -0.975926
     95          1           0        2.430033   -0.158145    0.249454
     96          1           0       -1.904440    1.133775   -0.033972
     97          1           0        0.254879    1.889884    0.251858
     98          1           0        0.207346   -0.941054   -0.242904
 ---------------------------------------------------------------------

 SCF Done:  E(RCAM-B3LYP) =  -1706.92477848     A.U. after   15 cycles

 Excitation energies and oscillator strengths:

 Excited State   1:      Singlet-A      2.3320 eV  531.65 nm  f=3.6694  <S**2>=0.000
     155 ->158        -0.15996
     156 ->157         0.68634
 This state for optimization and/or second-order correction.
 Total Energy, E(TD-HF/TD-DFT) =  -1706.83907727
 Copying the excited state density for this state as the 1-particle RhoCI density.

 The electronic state is 1-A.
 Alpha  occ. eigenvalues --  -19.21640 -19.20486 -10.31687 -10.31166 -10.28578
 Alpha  occ. eigenvalues --  -10.28250 -10.27708 -10.27687 -10.27634 -10.27527
 Alpha  occ. eigenvalues --  -10.27069 -10.27015 -10.27000 -10.26859 -10.26804
 Alpha  occ. eigenvalues --  -10.26662 -10.26437 -10.26344 -10.26301 -10.26200
 Alpha  occ. eigenvalues --  -10.26190 -10.26079 -10.26032 -10.25862 -10.25807
 Alpha  occ. eigenvalues --  -10.25606 -10.25556 -10.25553 -10.25340 -10.25282
 Alpha  occ. eigenvalues --  -10.25270 -10.25157 -10.25111 -10.24935 -10.24867
 Alpha  occ. eigenvalues --  -10.24863 -10.24817 -10.24518 -10.24482 -10.24313
 Alpha  occ. eigenvalues --  -10.23245 -10.23110  -1.09685  -1.08917  -0.94325
 Alpha  occ. eigenvalues --   -0.92788  -0.92576  -0.91789  -0.91319  -0.89938
 Alpha  occ. eigenvalues --   -0.88494  -0.87250  -0.86528  -0.85609  -0.84778
 Alpha  occ. eigenvalues --   -0.83297  -0.82201  -0.81096  -0.79925  -0.78713
 Alpha  occ. eigenvalues --   -0.77911  -0.77319  -0.76617  -0.76435  -0.75646
 Alpha  occ. eigenvalues --   -0.75339  -0.74666  -0.73866  -0.73550  -0.70814
 Alpha  occ. eigenvalues --   -0.69621  -0.67369  -0.65366  -0.65138  -0.63531
 Alpha  occ. eigenvalues --   -0.63416  -0.62886  -0.62360  -0.60978  -0.59929
 Alpha  occ. eigenvalues --   -0.59239  -0.58485  -0.58192  -0.57805  -0.56680
 Alpha  occ. eigenvalues --   -0.55819  -0.55144  -0.55025  -0.54408  -0.53796
 Alpha  occ. eigenvalues --   -0.52689  -0.52467  -0.52052  -0.51883  -0.51401
 Alpha  occ. eigenvalues --   -0.50777  -0.49977  -0.49816  -0.49491  -0.49359
 Alpha  occ. eigenvalues --   -0.49126  -0.49005  -0.48842  -0.48492  -0.48164
 Alpha  occ. eigenvalues --   -0.48108  -0.48049  -0.47210  -0.47064  -0.46580
 Alpha  occ. eigenvalues --   -0.46091  -0.45606  -0.45470  -0.45390  -0.45027
 Alpha  occ. eigenvalues --   -0.44581  -0.44422  -0.44277  -0.44161  -0.43777
 Alpha  occ. eigenvalues --   -0.43419  -0.43019  -0.42458  -0.42383  -0.42268
 Alpha  occ. eigenvalues --   -0.41738  -0.41717  -0.40969  -0.40914  -0.40302
 Alpha  occ. eigenvalues --   -0.40172  -0.39819  -0.39740  -0.39630  -0.39444
 Alpha  occ. eigenvalues --   -0.38889  -0.38734  -0.38662  -0.38389  -0.38183
 Alpha  occ. eigenvalues --   -0.37508  -0.36544  -0.36520  -0.36068  -0.35642
 Alpha  occ. eigenvalues --   -0.35082  -0.34378  -0.33883  -0.32898  -0.32512
 Alpha  occ. eigenvalues --   -0.32103  -0.29487  -0.28237  -0.25622  -0.23171
 Alpha  occ. eigenvalues --   -0.19584
 Alpha virt. eigenvalues --   -0.05325  -0.01005   0.02035   0.05934   0.07715
 Alpha virt. eigenvalues --    0.09750   0.11889   0.11899   0.12143   0.12586
 Alpha virt. eigenvalues --    0.12754   0.12813   0.13259   0.13474   0.14029

 Mulliken charges:
               1
     1  O   -0.563006
     2  O   -0.539146
     3  C   -0.048520
     4  C   -0.018588
     5  C   -0.183962
     6  C   -0.176623
     7  C    0.180129
     8  C    0.142957
     9  C    0.072028
    10  C    0.054749
    11  C   -0.209192
    12  C   -0.214646
    13  C    0.060167
    14  C    0.055808
    15  C   -0.290469
    16  C   -0.271931
    17  C   -0.289958
    18  C   -0.327427
    19  C   -0.127884
    20  C   -0.169595
    21  C   -0.370835
    22  C   -0.341371
    23  C   -0.096886
    24  C   -0.093027
    25  C    0.100194
    26  C    0.135739
    27  C   -0.389870
    28  C   -0.368431
    29  C   -0.090802
    30  C   -0.122113
    31  C   -0.096179
    32  C   -0.089325
    33  C   -0.113339
    34  C   -0.125949
    35  C    0.093197
    36  C    0.101360
    37  C   -0.356857
    38  C   -0.373596
    39  C   -0.122150
    40  C   -0.126342
    41  C   -0.103298
    42  C   -0.029526
    43  H    0.095723
    44  H    0.050397
    45  H    0.066434
    46  H    0.100792
    47  H    0.089322
    48  H    0.073826
    49  H    0.108081
    50  H    0.072247
    51  H    0.091083
    52  H    0.093624
    53  H    0.101591
    54  H    0.078791
    55  H    0.120948
    56  H    0.096230
    57  H    0.114781
    58  H    0.118232
    59  H    0.096317
    60  H    0.110901
    61  H    0.107278
    62  H    0.103983
    63  H    0.114572
    64  H    0.099477
    65  H    0.084417
    66  H    0.079301
    67  H    0.114055
    68  H    0.129201
    69  H    0.109253
    70  H    0.119387
    71  H    0.118689
    72  H    0.084193
    73  H    0.292663
    74  H    0.303772
    75  H    0.068347
    76  H    0.088278
    77  H    0.102821
    78  H    0.110162
    79  H    0.135704
    80  H    0.109485
    81  H    0.129314
    82  H    0.102345
    83  H    0.072436
    84  H    0.078176
    85  H    0.079675
    86  H    0.083407
    87  H    0.069442
    88  H    0.093485
    89  H    0.134506
    90  H    0.091732
    91  H    0.127034
    92  H    0.136153
    93  H    0.093096
    94  H    0.126666
    95  H    0.077569
    96  H    0.081136
    97  H    0.065039
    98  H    0.048945
 Sum of Mulliken charges =  -0.00000

 Dipole moment (field-independent basis, Debye):
    X=              0.7872    Y=             -2.1919    Z=              1.9618  Tot=              3.0451
 Quadrupole moment (field-independent basis, Debye-Ang):
   XX=           -280.3706   YY=           -241.3098   ZZ=           -261.5755
   XY=              8.8839   XZ=            -10.4966   YZ=              4.5382

 Normal termination of Gaussian 16 at Fri Jul 19 20:43:15 2019.
