 Gaussian 16, Revision A.03,
 Gaussian 16:  ES64L-G16RevA.03 25-Dec-2016

 -------------------------------------
 # td=(NStates=1) CAM-B3LYP/6-31G(d,p)
 -------------------------------------

 --
 TD
 --
 Symbolic Z-matrix:
 Charge =  0 Multiplicity = 1

                         Standard orientation:
 ---------------------------------------------------------------------
 Center     Atomic      Atomic             Coordinates (Angstroms)
 Number     Number       Type             X           Y           Z
 ---------------------------------------------------------------------
      1          8           0       14.685131   -2.295119   -0.049088
      2          8           0      -14.673638    1.811747    1.201040
      3          6           0       11.145987   -1.490690    0.969810
      4          6           0      -12.289547   -1.139063    0.649307
      5          6           0       12.603358   -1.893078    1.116325
      6          6           0      -13.608609   -0.448452    0.774986
      7          6           0       13.356855   -1.968045   -0.267971
      8          6           0      -13.520906    1.163501    0.983886
      9          6           0       11.031107   -0.274611   -0.007552
     10          6           0      -11.310454   -0.273994   -0.049293
     11          6           0       13.299508   -0.632168   -0.917383
     12          6           0      -12.766149    1.715285   -0.174844
     13          6           0       11.923578    0.096020   -0.859161
     14          6           0      -11.542445    0.967422   -0.604333
     15          6           0       10.611433   -1.143320    2.410684
     16          6           0       10.352936   -2.692444    0.382601
     17          6           0      -11.686842   -1.504248    2.054765
     18          6           0      -12.528493   -2.490391   -0.037921
     19          6           0        9.676948    0.374692   -0.005292
     20          6           0      -10.054205   -0.965901   -0.443891
     21          6           0       11.788749    1.276792   -1.821772
     22          6           0      -10.783835    1.745588   -1.578485
     23          6           0        9.363861    1.658514   -0.051982
     24          6           0       -8.808009   -0.397913   -0.343983
     25          6           0        8.080368    2.262676    0.081489
     26          6           0       -7.558080   -1.060325   -0.616572
     27          6           0        8.109885    3.765760    0.651584
     28          6           0       -7.503538   -2.490734   -1.215810
     29          6           0        6.861753    1.552553   -0.125022
     30          6           0       -6.365071   -0.463848   -0.320548
     31          6           0        5.575084    2.162482    0.178407
     32          6           0       -5.110024   -0.905317   -0.562110
     33          6           0        4.495843    1.352538   -0.139862
     34          6           0       -3.996765   -0.158861   -0.505600
     35          6           0        3.155368    1.710153    0.093642
     36          6           0       -2.677338   -0.625925   -0.572897
     37          6           0        2.673345    3.048191    0.786350
     38          6           0       -2.380987   -1.955998   -1.060494
     39          6           0        2.160608    0.768658   -0.212066
     40          6           0       -1.615732    0.206601   -0.164832
     41          6           0        0.723536    0.936525   -0.008148
     42          6           0       -0.321586   -0.039745   -0.350632
     43          1           0       13.050441   -1.272290    1.735266
     44          1           0       12.671815   -2.746915    1.804523
     45          1           0      -14.109016   -0.770758    1.616446
     46          1           0      -14.280288   -0.587318   -0.227519
     47          1           0       12.799394   -2.724175   -0.793897
     48          1           0      -13.063773    1.365411    1.825086
     49          1           0       13.932411   -0.145196   -0.192542
     50          1           0       13.863447   -0.563957   -1.969762
     51          1           0      -13.667809    1.488937   -0.876643
     52          1           0      -12.295703    2.838734   -0.266717
     53          1           0       11.000509   -1.841787    3.083198
     54          1           0        9.526166   -0.737689    2.151506
     55          1           0       11.018198   -0.454757    2.883112
     56          1           0       10.713421   -2.903876   -0.558263
     57          1           0       10.631200   -3.549360    1.190170
     58          1           0        9.141677   -2.742671    0.465300
     59          1           0      -11.319781   -0.477333    2.538370
     60          1           0      -10.586880   -1.861383    1.864901
     61          1           0      -12.370233   -2.160232    2.430227
     62          1           0      -13.224340   -2.945093    0.663514
     63          1           0      -11.728466   -3.074999    0.065607
     64          1           0      -12.573269   -2.184655   -1.013316
     65          1           0        8.754752   -0.439459    0.227189
     66          1           0      -10.043562   -2.001985   -0.632691
     67          1           0       10.642967    1.261562   -2.341662
     68          1           0       11.843937    2.149552   -1.243068
     69          1           0       12.529476    0.981714   -2.688171
     70          1           0      -11.435034    2.089031   -2.616099
     71          1           0       -9.984484    1.091747   -2.122670
     72          1           0      -10.390153    2.711369   -1.067762
     73          1           0       14.686393   -3.150976    0.318579
     74          1           0      -15.412143    1.367206    1.586634
     75          1           0       10.238852    2.178692    0.131420
     76          1           0       -8.795715    0.552110   -0.131294
     77          1           0        9.075114    4.351355    0.883856
     78          1           0        7.670324    4.489748   -0.189520
     79          1           0        7.392361    3.870143    1.457498
     80          1           0       -7.906519   -3.118357   -0.407117
     81          1           0       -8.305542   -2.373386   -1.923889
     82          1           0       -6.678800   -2.804946   -1.669226
     83          1           0        7.163225    0.468479   -0.544953
     84          1           0       -6.603147    0.467434    0.066469
     85          1           0        5.449577    3.166243    0.567766
     86          1           0       -4.920843   -2.058505   -0.846249
     87          1           0        4.649956    0.496856   -0.778404
     88          1           0       -4.253379    0.781142   -0.129017
     89          1           0        3.239411    3.461778    1.794377
     90          1           0        1.626820    3.070313    1.002619
     91          1           0        3.030212    3.797468    0.120868
     92          1           0       -2.631725   -2.862323   -0.398624
     93          1           0       -2.888539   -2.116257   -2.134835
     94          1           0       -1.294640   -2.337219   -1.301506
     95          1           0        2.486908   -0.125238   -1.058289
     96          1           0       -1.907000    1.172315    0.191998
     97          1           0        0.334641    1.788658    0.358278
     98          1           0        0.046279   -0.951213   -0.808962
 ---------------------------------------------------------------------

 SCF Done:  E(RCAM-B3LYP) =  -1706.83538456     A.U. after   15 cycles

 Excitation energies and oscillator strengths:

 Excited State   1:      Singlet-A      2.0472 eV  605.62 nm  f=3.7698  <S**2>=0.000
     155 ->158         0.14354
     156 ->157         0.69449
 This state for optimization and/or second-order correction.
 Total Energy, E(TD-HF/TD-DFT) =  -1706.76015038
 Copying the excited state density for this state as the 1-particle RhoCI density.

 The electronic state is 1-A.
 Alpha  occ. eigenvalues --  -19.21327 -19.20541 -10.30301 -10.28968 -10.28090
 Alpha  occ. eigenvalues --  -10.27833 -10.27784 -10.27732 -10.27421 -10.27243
 Alpha  occ. eigenvalues --  -10.27200 -10.27156 -10.27086 -10.26991 -10.26897
 Alpha  occ. eigenvalues --  -10.26828 -10.26791 -10.26722 -10.26704 -10.26611
 Alpha  occ. eigenvalues --  -10.26350 -10.26096 -10.26068 -10.26044 -10.26041
 Alpha  occ. eigenvalues --  -10.26014 -10.25987 -10.25848 -10.25842 -10.25813
 Alpha  occ. eigenvalues --  -10.25774 -10.25665 -10.25224 -10.25070 -10.24941
 Alpha  occ. eigenvalues --  -10.24750 -10.24577 -10.24244 -10.24196 -10.23510
 Alpha  occ. eigenvalues --  -10.23419 -10.23075  -1.11882  -1.11780  -0.94526
 Alpha  occ. eigenvalues --   -0.93518  -0.92728  -0.91068  -0.90615  -0.89222
 Alpha  occ. eigenvalues --   -0.88302  -0.87358  -0.86795  -0.85387  -0.84421
 Alpha  occ. eigenvalues --   -0.83028  -0.81883  -0.80337  -0.79241  -0.77594
 Alpha  occ. eigenvalues --   -0.77452  -0.77252  -0.76883  -0.75869  -0.75842
 Alpha  occ. eigenvalues --   -0.75433  -0.75321  -0.75220  -0.72905  -0.71163
 Alpha  occ. eigenvalues --   -0.69384  -0.68108  -0.66521  -0.65291  -0.64340
 Alpha  occ. eigenvalues --   -0.64056  -0.62962  -0.62106  -0.60656  -0.60472
 Alpha  occ. eigenvalues --   -0.60196  -0.59642  -0.58812  -0.58020  -0.57400
 Alpha  occ. eigenvalues --   -0.55993  -0.55575  -0.54940  -0.54450  -0.54289
 Alpha  occ. eigenvalues --   -0.53722  -0.52923  -0.52333  -0.52214  -0.51624
 Alpha  occ. eigenvalues --   -0.51092  -0.50614  -0.49736  -0.49515  -0.49130
 Alpha  occ. eigenvalues --   -0.48804  -0.48623  -0.48455  -0.48299  -0.47951
 Alpha  occ. eigenvalues --   -0.47797  -0.47427  -0.46856  -0.46573  -0.46410
 Alpha  occ. eigenvalues --   -0.46239  -0.46065  -0.45573  -0.45106  -0.44703
 Alpha  occ. eigenvalues --   -0.44559  -0.44400  -0.44175  -0.43630  -0.43597
 Alpha  occ. eigenvalues --   -0.43026  -0.42571  -0.42254  -0.42225  -0.41377
 Alpha  occ. eigenvalues --   -0.41240  -0.40968  -0.40861  -0.40610  -0.40226
 Alpha  occ. eigenvalues --   -0.39750  -0.39583  -0.39559  -0.39488  -0.39212
 Alpha  occ. eigenvalues --   -0.39047  -0.38721  -0.38186  -0.37986  -0.37868
 Alpha  occ. eigenvalues --   -0.37655  -0.37113  -0.36844  -0.36386  -0.36275
 Alpha  occ. eigenvalues --   -0.35467  -0.34279  -0.33823  -0.32097  -0.31351
 Alpha  occ. eigenvalues --   -0.31329  -0.29807  -0.28577  -0.25837  -0.23164
 Alpha  occ. eigenvalues --   -0.18512
 Alpha virt. eigenvalues --   -0.06001  -0.00822   0.02395   0.05751   0.07559
 Alpha virt. eigenvalues --    0.09799   0.11539   0.11801   0.11915   0.12040
 Alpha virt. eigenvalues --    0.13003   0.13121   0.13173   0.13532   0.13596

 Mulliken charges:
               1
     1  O   -0.538853
     2  O   -0.558990
     3  C   -0.031549
     4  C   -0.036815
     5  C   -0.213734
     6  C   -0.210765
     7  C    0.160628
     8  C    0.206233
     9  C    0.074993
    10  C    0.047691
    11  C   -0.216265
    12  C   -0.194704
    13  C    0.038719
    14  C    0.088593
    15  C   -0.290605
    16  C   -0.273429
    17  C   -0.293477
    18  C   -0.280477
    19  C   -0.129910
    20  C   -0.153070
    21  C   -0.345606
    22  C   -0.366173
    23  C   -0.096549
    24  C   -0.073267
    25  C    0.075263
    26  C    0.067452
    27  C   -0.375954
    28  C   -0.357090
    29  C   -0.126763
    30  C   -0.103214
    31  C   -0.099289
    32  C   -0.078046
    33  C   -0.095024
    34  C   -0.116624
    35  C    0.107171
    36  C    0.142540
    37  C   -0.361887
    38  C   -0.397574
    39  C   -0.137694
    40  C   -0.113326
    41  C   -0.102539
    42  C   -0.067770
    43  H    0.105117
    44  H    0.072250
    45  H    0.084539
    46  H    0.076017
    47  H    0.077480
    48  H    0.075642
    49  H    0.131174
    50  H    0.091938
    51  H    0.095307
    52  H    0.077647
    53  H    0.091627
    54  H    0.102926
    55  H    0.109934
    56  H    0.116362
    57  H    0.072941
    58  H    0.088724
    59  H    0.097365
    60  H    0.101499
    61  H    0.100886
    62  H    0.101219
    63  H    0.111028
    64  H    0.117637
    65  H    0.062664
    66  H    0.078631
    67  H    0.100432
    68  H    0.137483
    69  H    0.096989
    70  H    0.090457
    71  H    0.115165
    72  H    0.114504
    73  H    0.303668
    74  H    0.306124
    75  H    0.081692
    76  H    0.073540
    77  H    0.111015
    78  H    0.099077
    79  H    0.125988
    80  H    0.120466
    81  H    0.115589
    82  H    0.118673
    83  H    0.094052
    84  H    0.065604
    85  H    0.102906
    86  H    0.074767
    87  H    0.092560
    88  H    0.076780
    89  H    0.087321
    90  H    0.123883
    91  H    0.132679
    92  H    0.119028
    93  H    0.102542
    94  H    0.106652
    95  H    0.064902
    96  H    0.079034
    97  H    0.073418
    98  H    0.080204
 Sum of Mulliken charges =  -0.00000

 Dipole moment (field-independent basis, Debye):
    X=             -1.5613    Y=             -1.8577    Z=              1.0260  Tot=              2.6346
 Quadrupole moment (field-independent basis, Debye-Ang):
   XX=           -243.1464   YY=           -245.2702   ZZ=           -261.3684
   XY=             13.5244   XZ=              1.4627   YZ=              2.9160

 Normal termination of Gaussian 16 at Sun Jul 14 14:53:09 2019.
