 Gaussian 16, Revision A.03,
 Gaussian 16:  ES64L-G16RevA.03 25-Dec-2016

 -------------------------------------
 # td=(NStates=1) CAM-B3LYP/6-31G(d,p)
 -------------------------------------

 --
 TD
 --
 Symbolic Z-matrix:
 Charge =  0 Multiplicity = 1

                         Standard orientation:
 ---------------------------------------------------------------------
 Center     Atomic      Atomic             Coordinates (Angstroms)
 Number     Number       Type             X           Y           Z
 ---------------------------------------------------------------------
      1          8           0       14.578260   -2.349498   -0.549725
      2          8           0      -14.794273    1.913900    0.883863
      3          6           0       11.311429   -1.406925    1.037088
      4          6           0      -12.340970   -1.086332    0.475018
      5          6           0       12.742072   -1.791031    0.945652
      6          6           0      -13.708357   -0.264350    0.610206
      7          6           0       13.235421   -1.859975   -0.528585
      8          6           0      -13.401162    1.240828    0.842414
      9          6           0       10.978795   -0.246162    0.023264
     10          6           0      -11.187890   -0.222394   -0.235494
     11          6           0       13.126356   -0.540727   -1.144281
     12          6           0      -12.728883    1.752491   -0.304307
     13          6           0       11.789515    0.021849   -1.049788
     14          6           0      -11.417276    1.067516   -0.630265
     15          6           0       10.990467   -0.986401    2.540425
     16          6           0       10.457082   -2.699062    0.650701
     17          6           0      -11.860785   -1.503256    1.833019
     18          6           0      -12.630432   -2.372923   -0.297463
     19          6           0        9.628936    0.379139    0.277532
     20          6           0      -10.052009   -0.946500   -0.598496
     21          6           0       11.544195    1.155886   -2.061147
     22          6           0      -10.438298    1.867111   -1.522220
     23          6           0        9.322253    1.732954    0.019984
     24          6           0       -8.813941   -0.418645   -0.272199
     25          6           0        7.985708    2.407567    0.195718
     26          6           0       -7.531427   -1.127985   -0.418556
     27          6           0        7.975750    3.940498    0.271145
     28          6           0       -7.661948   -2.575563   -0.857003
     29          6           0        6.934751    1.576194   -0.005168
     30          6           0       -6.324693   -0.537541   -0.215509
     31          6           0        5.488048    1.998618    0.242444
     32          6           0       -5.079395   -1.065153   -0.374135
     33          6           0        4.376910    1.264963   -0.017120
     34          6           0       -3.947167   -0.365108   -0.142192
     35          6           0        3.091387    1.679443    0.188585
     36          6           0       -2.537924   -0.859022   -0.282265
     37          6           0        2.747987    3.061540    0.642598
     38          6           0       -2.259589   -2.204380   -0.821246
     39          6           0        2.065744    0.570343    0.061820
     40          6           0       -1.646030    0.131469   -0.027271
     41          6           0        0.675994    0.862848    0.237446
     42          6           0       -0.198509   -0.081478   -0.098218
     43          1           0       13.535160   -1.076663    1.592364
     44          1           0       12.961477   -2.741215    1.453248
     45          1           0      -14.404928   -0.838691    1.088526
     46          1           0      -14.274490   -0.081084   -0.466641
     47          1           0       12.625691   -2.550861   -1.003557
     48          1           0      -12.793114    1.507827    1.822802
     49          1           0       13.781285    0.322520   -0.702042
     50          1           0       13.448170   -0.782461   -2.147749
     51          1           0      -13.438891    1.706223   -1.249242
     52          1           0      -12.651857    2.914273   -0.060870
     53          1           0       11.322794   -1.826255    3.274578
     54          1           0       10.054747   -0.813426    2.553489
     55          1           0       11.576658    0.101441    2.693251
     56          1           0       10.812291   -3.147338   -0.270236
     57          1           0       10.685188   -3.339801    1.447779
     58          1           0        9.442256   -2.233338    0.740550
     59          1           0      -11.890565   -0.722502    2.511046
     60          1           0      -10.772166   -1.841651    1.823158
     61          1           0      -12.544864   -2.208974    2.259830
     62          1           0      -13.352938   -2.878630    0.236811
     63          1           0      -11.712047   -3.106657   -0.470797
     64          1           0      -13.052079   -2.124468   -1.318730
     65          1           0        8.854764   -0.135977    1.059165
     66          1           0      -10.054167   -1.928595   -1.055389
     67          1           0       10.525256    1.475757   -1.816280
     68          1           0       12.331663    1.945824   -1.814681
     69          1           0       11.863085    0.833181   -3.042836
     70          1           0      -11.113615    2.411334   -2.377643
     71          1           0       -9.792768    1.153178   -1.974783
     72          1           0       -9.729639    2.480103   -0.910827
     73          1           0       14.532177   -3.409450   -0.399199
     74          1           0      -15.224579    1.405816    1.530841
     75          1           0       10.114831    2.278203   -0.207306
     76          1           0       -8.724475    0.531655    0.228931
     77          1           0        8.914123    4.366758   -0.117413
     78          1           0        7.058441    4.366062   -0.372365
     79          1           0        7.760252    4.339634    1.394167
     80          1           0       -8.132292   -3.075081    0.053998
     81          1           0       -8.239718   -2.589246   -1.764849
     82          1           0       -6.734420   -3.262176   -1.165504
     83          1           0        7.018002    0.443720   -0.105168
     84          1           0       -6.342640    0.576598    0.134823
     85          1           0        5.483475    3.119398    0.497800
     86          1           0       -5.088055   -2.168436   -0.638017
     87          1           0        4.451347    0.263657   -0.216798
     88          1           0       -4.158459    0.446516    0.247532
     89          1           0        3.490761    3.256939    1.370073
     90          1           0        1.550042    3.046651    0.878359
     91          1           0        3.127590    3.830171    0.021227
     92          1           0       -2.920659   -3.122574   -0.602966
     93          1           0       -2.470509   -2.123570   -2.112404
     94          1           0       -1.247960   -2.454405   -0.639830
     95          1           0        2.461609   -0.403726   -0.049544
     96          1           0       -1.808390    1.085112    0.195613
     97          1           0        0.320661    2.055514    0.445065
     98          1           0        0.081910   -1.094087   -0.307263
 ---------------------------------------------------------------------

 SCF Done:  E(RCAM-B3LYP) =  -1706.93471750     A.U. after   15 cycles

 Excitation energies and oscillator strengths:

 Excited State   1:      Singlet-A      2.4633 eV  503.33 nm  f=3.5431  <S**2>=0.000
     155 ->158         0.17315
     156 ->157         0.67989
 This state for optimization and/or second-order correction.
 Total Energy, E(TD-HF/TD-DFT) =  -1706.84419444
 Copying the excited state density for this state as the 1-particle RhoCI density.

 The electronic state is 1-A.
 Alpha  occ. eigenvalues --  -19.21462 -19.20160 -10.31706 -10.29235 -10.28603
 Alpha  occ. eigenvalues --  -10.28326 -10.28054 -10.28016 -10.27931 -10.27880
 Alpha  occ. eigenvalues --  -10.27844 -10.27727 -10.27316 -10.27185 -10.27153
 Alpha  occ. eigenvalues --  -10.26984 -10.26939 -10.26779 -10.26752 -10.26666
 Alpha  occ. eigenvalues --  -10.26597 -10.26442 -10.26343 -10.26336 -10.26058
 Alpha  occ. eigenvalues --  -10.25944 -10.25923 -10.25889 -10.25882 -10.25848
 Alpha  occ. eigenvalues --  -10.25827 -10.25345 -10.25318 -10.25297 -10.25214
 Alpha  occ. eigenvalues --  -10.25171 -10.25065 -10.24998 -10.24894 -10.24579
 Alpha  occ. eigenvalues --  -10.24518 -10.23736  -1.07395  -1.06922  -0.93586
 Alpha  occ. eigenvalues --   -0.93239  -0.92446  -0.91696  -0.90569  -0.89436
 Alpha  occ. eigenvalues --   -0.87959  -0.87243  -0.87127  -0.86216  -0.84286
 Alpha  occ. eigenvalues --   -0.83654  -0.81379  -0.79746  -0.79376  -0.78597
 Alpha  occ. eigenvalues --   -0.76710  -0.76361  -0.76222  -0.76012  -0.75586
 Alpha  occ. eigenvalues --   -0.75425  -0.75093  -0.74977  -0.73459  -0.70374
 Alpha  occ. eigenvalues --   -0.68653  -0.67165  -0.65279  -0.64589  -0.63235
 Alpha  occ. eigenvalues --   -0.62938  -0.62582  -0.62370  -0.61840  -0.59835
 Alpha  occ. eigenvalues --   -0.59158  -0.58620  -0.58390  -0.58143  -0.56375
 Alpha  occ. eigenvalues --   -0.55524  -0.54954  -0.54560  -0.54183  -0.53653
 Alpha  occ. eigenvalues --   -0.53000  -0.52410  -0.51795  -0.51532  -0.50873
 Alpha  occ. eigenvalues --   -0.50366  -0.50178  -0.49727  -0.49297  -0.49175
 Alpha  occ. eigenvalues --   -0.48480  -0.48387  -0.48138  -0.47733  -0.47531
 Alpha  occ. eigenvalues --   -0.47430  -0.47364  -0.46951  -0.46738  -0.46589
 Alpha  occ. eigenvalues --   -0.46452  -0.46058  -0.45927  -0.45606  -0.45411
 Alpha  occ. eigenvalues --   -0.45123  -0.44642  -0.44318  -0.44200  -0.44142
 Alpha  occ. eigenvalues --   -0.43433  -0.43037  -0.42847  -0.42440  -0.41323
 Alpha  occ. eigenvalues --   -0.41287  -0.41108  -0.41066  -0.40786  -0.40565
 Alpha  occ. eigenvalues --   -0.40459  -0.39991  -0.39824  -0.39609  -0.39202
 Alpha  occ. eigenvalues --   -0.39123  -0.38676  -0.38538  -0.38147  -0.37873
 Alpha  occ. eigenvalues --   -0.37717  -0.37348  -0.36865  -0.36388  -0.36229
 Alpha  occ. eigenvalues --   -0.35890  -0.34501  -0.33714  -0.32227  -0.32014
 Alpha  occ. eigenvalues --   -0.30906  -0.30192  -0.28151  -0.25597  -0.23356
 Alpha  occ. eigenvalues --   -0.20028
 Alpha virt. eigenvalues --   -0.04863  -0.01053   0.01817   0.05415   0.07730
 Alpha virt. eigenvalues --    0.08986   0.09986   0.10106   0.11117   0.11635
 Alpha virt. eigenvalues --    0.12292   0.12632   0.12872   0.13099   0.13342

 Mulliken charges:
               1
     1  O   -0.577249
     2  O   -0.566067
     3  C   -0.042445
     4  C   -0.020837
     5  C   -0.169720
     6  C   -0.198942
     7  C    0.171643
     8  C    0.136476
     9  C    0.070399
    10  C    0.066758
    11  C   -0.193870
    12  C   -0.202955
    13  C    0.022136
    14  C    0.042512
    15  C   -0.270430
    16  C   -0.288935
    17  C   -0.290415
    18  C   -0.291755
    19  C   -0.127783
    20  C   -0.150165
    21  C   -0.347518
    22  C   -0.350638
    23  C   -0.131311
    24  C   -0.091982
    25  C    0.087567
    26  C    0.087526
    27  C   -0.365757
    28  C   -0.376299
    29  C   -0.109887
    30  C   -0.127248
    31  C   -0.135968
    32  C   -0.062818
    33  C   -0.067646
    34  C   -0.075660
    35  C    0.100623
    36  C    0.099246
    37  C   -0.362221
    38  C   -0.353586
    39  C   -0.137177
    40  C   -0.082241
    41  C   -0.085685
    42  C   -0.083786
    43  H    0.063497
    44  H    0.065675
    45  H    0.092694
    46  H    0.084885
    47  H    0.082881
    48  H    0.087866
    49  H    0.115090
    50  H    0.104987
    51  H    0.113266
    52  H    0.102535
    53  H    0.092318
    54  H    0.105084
    55  H    0.084592
    56  H    0.104452
    57  H    0.105369
    58  H    0.099545
    59  H    0.103759
    60  H    0.103493
    61  H    0.093580
    62  H    0.106070
    63  H    0.084236
    64  H    0.098994
    65  H    0.088841
    66  H    0.101114
    67  H    0.120262
    68  H    0.103234
    69  H    0.113316
    70  H    0.091760
    71  H    0.128600
    72  H    0.115168
    73  H    0.305568
    74  H    0.300061
    75  H    0.093546
    76  H    0.089083
    77  H    0.125015
    78  H    0.110414
    79  H    0.110078
    80  H    0.122087
    81  H    0.128252
    82  H    0.094067
    83  H    0.089493
    84  H    0.064271
    85  H    0.065425
    86  H    0.066640
    87  H    0.074652
    88  H    0.049385
    89  H    0.131508
    90  H    0.093684
    91  H    0.126875
    92  H    0.122072
    93  H    0.090323
    94  H    0.119861
    95  H    0.094951
    96  H    0.073720
    97  H    0.077910
    98  H    0.078002
 Sum of Mulliken charges =  -0.00000

 Dipole moment (field-independent basis, Debye):
    X=              0.1107    Y=             -2.4879    Z=              0.8168  Tot=              2.6209
 Quadrupole moment (field-independent basis, Debye-Ang):
   XX=           -304.5647   YY=           -241.7614   ZZ=           -263.5594
   XY=             19.5829   XZ=            -10.1934   YZ=              3.0384

 Normal termination of Gaussian 16 at Tue Jul 16 14:39:58 2019.
