 Gaussian 16, Revision A.03,
 Gaussian 16:  ES64L-G16RevA.03 25-Dec-2016

 -------------------------------------
 # td=(NStates=1) CAM-B3LYP/6-31G(d,p)
 -------------------------------------

 --
 TD
 --
 Symbolic Z-matrix:
 Charge =  0 Multiplicity = 1

                         Standard orientation:
 ---------------------------------------------------------------------
 Center     Atomic      Atomic             Coordinates (Angstroms)
 Number     Number       Type             X           Y           Z
 ---------------------------------------------------------------------
      1          8           0       14.813589   -2.255263    0.058903
      2          8           0      -14.861316    1.708133    1.345227
      3          6           0       11.158528   -1.495460    1.034874
      4          6           0      -12.458251   -1.114317    0.560987
      5          6           0       12.574626   -1.947223    1.245947
      6          6           0      -13.726771   -0.257101    0.690142
      7          6           0       13.422630   -1.880059   -0.085894
      8          6           0      -13.642053    1.134787    1.142409
      9          6           0       11.081723   -0.241568    0.101792
     10          6           0      -11.385156   -0.223381   -0.125112
     11          6           0       13.397886   -0.523433   -0.785492
     12          6           0      -12.752881    1.873854    0.151226
     13          6           0       12.008781    0.149945   -0.778806
     14          6           0      -11.597753    1.092220   -0.407070
     15          6           0       10.567586   -1.182115    2.414868
     16          6           0       10.375062   -2.717035    0.517981
     17          6           0      -11.972891   -1.556186    1.929472
     18          6           0      -12.644608   -2.264726   -0.287390
     19          6           0        9.688779    0.376346    0.141338
     20          6           0      -10.037414   -0.992953   -0.282355
     21          6           0       11.881718    1.281089   -1.826324
     22          6           0      -10.628509    2.058680   -1.149103
     23          6           0        9.438163    1.662533    0.196673
     24          6           0       -8.772881   -0.424646   -0.327128
     25          6           0        8.061527    2.330103    0.258572
     26          6           0       -7.608345   -1.291895   -0.519469
     27          6           0        8.153559    3.722627    0.537405
     28          6           0       -7.770473   -2.698586   -1.118751
     29          6           0        6.928896    1.500942   -0.014287
     30          6           0       -6.463336   -0.521629   -0.563021
     31          6           0        5.604553    2.050430    0.013313
     32          6           0       -5.142312   -1.110154   -0.721301
     33          6           0        4.450297    1.285250   -0.148714
     34          6           0       -3.983322   -0.315912   -0.623185
     35          6           0        3.115512    1.679957   -0.026350
     36          6           0       -2.584166   -0.701003   -0.817738
     37          6           0        2.781886    3.108249    0.371463
     38          6           0       -2.193573   -2.150900   -1.256683
     39          6           0        2.179542    0.793211   -0.331411
     40          6           0       -1.589010    0.226114   -0.688734
     41          6           0        0.843828    1.032195   -0.290966
     42          6           0       -0.147905    0.021683   -0.565725
     43          1           0       13.047094   -1.238107    1.935472
     44          1           0       12.681135   -2.828945    1.885312
     45          1           0      -14.424900   -0.889342    1.410846
     46          1           0      -14.278813   -0.386287   -0.316670
     47          1           0       13.219210   -2.713819   -0.900163
     48          1           0      -13.107684    1.380083    2.336579
     49          1           0       14.211753   -0.140034   -0.167411
     50          1           0       13.824214   -0.383515   -1.836735
     51          1           0      -13.357065    1.948820   -0.813033
     52          1           0      -12.488934    2.666683    0.622371
     53          1           0       10.522642   -2.140497    3.015478
     54          1           0        9.474647   -1.083014    2.207463
     55          1           0       10.951944   -0.272490    2.936679
     56          1           0       10.842619   -2.869021   -0.523468
     57          1           0       10.347834   -3.480919    1.376819
     58          1           0        9.395469   -2.408385    0.228889
     59          1           0      -11.977274   -0.595901    2.577674
     60          1           0      -11.066723   -2.005727    1.831985
     61          1           0      -12.734519   -2.237560    2.434804
     62          1           0      -13.548442   -2.700839    0.130565
     63          1           0      -11.714171   -2.978648   -0.299540
     64          1           0      -12.907684   -2.160141   -1.265463
     65          1           0        8.873918   -0.405929    0.167757
     66          1           0      -10.003748   -2.102149   -0.460450
     67          1           0       10.760890    1.477695   -2.027017
     68          1           0       12.704510    2.200400   -1.533264
     69          1           0       12.241171    0.914665   -2.757814
     70          1           0      -11.386379    3.142344   -1.420436
     71          1           0      -10.118406    1.551156   -2.053600
     72          1           0       -9.842265    2.514839   -0.197935
     73          1           0       14.789504   -3.192163    0.224089
     74          1           0      -15.020743    1.263566    2.199402
     75          1           0       10.255707    2.390283    0.495393
     76          1           0       -8.557857    0.534033   -0.103691
     77          1           0        9.205260    3.992146    0.549718
     78          1           0        7.470600    4.162876   -0.299540
     79          1           0        7.795911    4.069056    1.579971
     80          1           0       -8.467394   -3.034828   -0.166097
     81          1           0       -8.665358   -2.712732   -1.724514
     82          1           0       -6.818343   -3.444997   -1.338755
     83          1           0        6.832439    0.490598   -0.216160
     84          1           0       -6.640189    0.455683   -0.466995
     85          1           0        5.535457    3.109355    0.253625
     86          1           0       -4.931340   -2.035062   -1.072049
     87          1           0        4.605660    0.325991   -0.306128
     88          1           0       -4.030060    0.755429   -0.446256
     89          1           0        3.033527    3.359907    1.540943
     90          1           0        1.838396    3.121711    0.487133
     91          1           0        3.227753    3.900172   -0.253378
     92          1           0       -2.238796   -2.943526   -0.416064
     93          1           0       -2.801850   -2.273159   -2.090896
     94          1           0       -1.189639   -2.301737   -1.523948
     95          1           0        2.456943   -0.207648   -0.697776
     96          1           0       -1.782136    1.310980   -0.364350
     97          1           0        0.446662    2.013350   -0.194450
     98          1           0        0.208834   -1.127262   -0.812677
 ---------------------------------------------------------------------

 SCF Done:  E(RCAM-B3LYP) =  -1706.88806247     A.U. after   15 cycles

 Excitation energies and oscillator strengths:

 Excited State   1:      Singlet-A      2.3179 eV  534.89 nm  f=3.7274  <S**2>=0.000
     155 ->158         0.16371
     156 ->157         0.68615
 This state for optimization and/or second-order correction.
 Total Energy, E(TD-HF/TD-DFT) =  -1706.80287966
 Copying the excited state density for this state as the 1-particle RhoCI density.

 The electronic state is 1-A.
 Alpha  occ. eigenvalues --  -19.21980 -19.20359 -10.32337 -10.31564 -10.30343
 Alpha  occ. eigenvalues --  -10.28773 -10.28280 -10.27989 -10.27920 -10.27626
 Alpha  occ. eigenvalues --  -10.27216 -10.27185 -10.27040 -10.27019 -10.26992
 Alpha  occ. eigenvalues --  -10.26842 -10.26680 -10.26669 -10.26487 -10.26463
 Alpha  occ. eigenvalues --  -10.26388 -10.26325 -10.26313 -10.26237 -10.26165
 Alpha  occ. eigenvalues --  -10.26129 -10.26013 -10.25828 -10.25773 -10.25730
 Alpha  occ. eigenvalues --  -10.25722 -10.25615 -10.25488 -10.25468 -10.25297
 Alpha  occ. eigenvalues --  -10.25245 -10.25118 -10.25080 -10.24537 -10.24402
 Alpha  occ. eigenvalues --  -10.24312 -10.23937  -1.12872  -1.08847  -0.93979
 Alpha  occ. eigenvalues --   -0.93292  -0.92799  -0.91478  -0.90513  -0.89755
 Alpha  occ. eigenvalues --   -0.87918  -0.87141  -0.86434  -0.85009  -0.84142
 Alpha  occ. eigenvalues --   -0.82893  -0.81864  -0.79993  -0.79031  -0.78330
 Alpha  occ. eigenvalues --   -0.77366  -0.77329  -0.76783  -0.75953  -0.75822
 Alpha  occ. eigenvalues --   -0.75488  -0.75258  -0.74386  -0.73252  -0.70341
 Alpha  occ. eigenvalues --   -0.67830  -0.66672  -0.65133  -0.64273  -0.63801
 Alpha  occ. eigenvalues --   -0.63144  -0.62602  -0.61967  -0.61276  -0.60656
 Alpha  occ. eigenvalues --   -0.59837  -0.58623  -0.57944  -0.57732  -0.56523
 Alpha  occ. eigenvalues --   -0.56029  -0.55818  -0.55008  -0.54374  -0.53898
 Alpha  occ. eigenvalues --   -0.53736  -0.53466  -0.52674  -0.51414  -0.50806
 Alpha  occ. eigenvalues --   -0.50648  -0.50396  -0.50079  -0.49724  -0.49292
 Alpha  occ. eigenvalues --   -0.49290  -0.48816  -0.48620  -0.48294  -0.47837
 Alpha  occ. eigenvalues --   -0.47540  -0.47227  -0.46956  -0.46626  -0.46346
 Alpha  occ. eigenvalues --   -0.45844  -0.45720  -0.45479  -0.45396  -0.44746
 Alpha  occ. eigenvalues --   -0.44652  -0.44409  -0.43938  -0.43816  -0.43548
 Alpha  occ. eigenvalues --   -0.43161  -0.43110  -0.42351  -0.42299  -0.42256
 Alpha  occ. eigenvalues --   -0.41965  -0.41465  -0.41178  -0.41059  -0.40831
 Alpha  occ. eigenvalues --   -0.40654  -0.40563  -0.40264  -0.39783  -0.39690
 Alpha  occ. eigenvalues --   -0.39457  -0.39164  -0.38187  -0.38163  -0.38034
 Alpha  occ. eigenvalues --   -0.37850  -0.36835  -0.35702  -0.35493  -0.35302
 Alpha  occ. eigenvalues --   -0.34926  -0.34276  -0.33779  -0.32534  -0.32279
 Alpha  occ. eigenvalues --   -0.31102  -0.29538  -0.28280  -0.26330  -0.23293
 Alpha  occ. eigenvalues --   -0.19519
 Alpha virt. eigenvalues --   -0.05309  -0.00899   0.02539   0.05866   0.07424
 Alpha virt. eigenvalues --    0.09021   0.09553   0.10812   0.11141   0.11516
 Alpha virt. eigenvalues --    0.11930   0.12412   0.12762   0.13061   0.13350

 Mulliken charges:
               1
     1  O   -0.573013
     2  O   -0.522123
     3  C   -0.031000
     4  C   -0.010056
     5  C   -0.179298
     6  C   -0.200047
     7  C    0.154295
     8  C    0.167911
     9  C    0.038987
    10  C    0.090220
    11  C   -0.217670
    12  C   -0.192093
    13  C    0.059534
    14  C    0.011954
    15  C   -0.295793
    16  C   -0.288562
    17  C   -0.274042
    18  C   -0.290722
    19  C   -0.118911
    20  C   -0.161004
    21  C   -0.350907
    22  C   -0.320094
    23  C   -0.110286
    24  C   -0.063615
    25  C    0.085914
    26  C    0.094132
    27  C   -0.378272
    28  C   -0.365439
    29  C   -0.093114
    30  C   -0.109455
    31  C   -0.091991
    32  C   -0.087821
    33  C   -0.116583
    34  C   -0.110499
    35  C    0.120016
    36  C    0.089924
    37  C   -0.344037
    38  C   -0.365351
    39  C   -0.097251
    40  C   -0.135161
    41  C   -0.108082
    42  C   -0.098240
    43  H    0.102247
    44  H    0.087765
    45  H    0.055924
    46  H    0.102640
    47  H    0.059424
    48  H    0.005877
    49  H    0.129280
    50  H    0.098153
    51  H    0.118749
    52  H    0.116495
    53  H    0.087068
    54  H    0.096774
    55  H    0.109819
    56  H    0.103307
    57  H    0.101440
    58  H    0.100065
    59  H    0.091765
    60  H    0.111917
    61  H    0.085603
    62  H    0.093003
    63  H    0.087527
    64  H    0.114094
    65  H    0.092080
    66  H    0.052982
    67  H    0.121479
    68  H    0.092425
    69  H    0.118631
    70  H    0.068105
    71  H    0.130798
    72  H    0.083853
    73  H    0.304705
    74  H    0.317029
    75  H    0.084247
    76  H    0.083697
    77  H    0.120638
    78  H    0.123227
    79  H    0.122160
    80  H    0.098001
    81  H    0.151733
    82  H    0.120965
    83  H    0.079458
    84  H    0.080230
    85  H    0.070937
    86  H    0.078375
    87  H    0.058327
    88  H    0.079054
    89  H    0.088323
    90  H    0.112877
    91  H    0.124811
    92  H    0.110347
    93  H    0.128101
    94  H    0.117159
    95  H    0.086516
    96  H    0.073419
    97  H    0.093875
    98  H    0.060142
 Sum of Mulliken charges =  -0.00000

 Dipole moment (field-independent basis, Debye):
    X=             -0.1634    Y=             -1.5307    Z=              0.6302  Tot=              1.6634
 Quadrupole moment (field-independent basis, Debye-Ang):
   XX=           -295.9542   YY=           -242.9310   ZZ=           -260.6320
   XY=              9.8513   XZ=             -3.3568   YZ=              3.7447

 Normal termination of Gaussian 16 at Thu Jul 11 04:12:41 2019.
