 Gaussian 16, Revision A.03,
 Gaussian 16:  ES64L-G16RevA.03 25-Dec-2016

 -------------------------------------
 # td=(NStates=1) CAM-B3LYP/6-31G(d,p)
 -------------------------------------

 --
 TD
 --
 Symbolic Z-matrix:
 Charge =  0 Multiplicity = 1

                         Standard orientation:
 ---------------------------------------------------------------------
 Center     Atomic      Atomic             Coordinates (Angstroms)
 Number     Number       Type             X           Y           Z
 ---------------------------------------------------------------------
      1          8           0       14.892837   -2.010610   -0.269597
      2          8           0      -14.813440    1.984611    0.717812
      3          6           0       11.192873   -1.534264    0.922257
      4          6           0      -12.448852   -0.969590    0.577957
      5          6           0       12.662006   -1.854384    1.031949
      6          6           0      -13.810604   -0.228539    0.523704
      7          6           0       13.427361   -1.903408   -0.275641
      8          6           0      -13.562950    1.314249    0.693798
      9          6           0       10.944754   -0.215847    0.004088
     10          6           0      -11.325707   -0.262767   -0.107951
     11          6           0       13.277378   -0.462117   -1.024395
     12          6           0      -12.654494    1.823139   -0.391147
     13          6           0       11.855882    0.199987   -0.883575
     14          6           0      -11.439980    0.952874   -0.673371
     15          6           0       10.730988   -1.148326    2.349557
     16          6           0       10.367749   -2.794531    0.270243
     17          6           0      -11.973837   -1.201124    2.027907
     18          6           0      -12.695480   -2.305959   -0.114526
     19          6           0        9.607640    0.357116    0.269366
     20          6           0       -9.991552   -0.954678   -0.362576
     21          6           0       11.501694    1.141147   -2.001761
     22          6           0      -10.344058    1.708191   -1.477534
     23          6           0        9.380303    1.706684    0.211235
     24          6           0       -8.796885   -0.495748   -0.204275
     25          6           0        8.070340    2.272072    0.143914
     26          6           0       -7.600554   -1.338755   -0.342578
     27          6           0        7.925565    3.866788    0.331181
     28          6           0       -7.564408   -2.851890   -0.813709
     29          6           0        6.885978    1.545299   -0.007561
     30          6           0       -6.347392   -0.679337   -0.266421
     31          6           0        5.634512    2.073789    0.274537
     32          6           0       -5.066355   -1.233152   -0.477434
     33          6           0        4.453629    1.300975    0.173578
     34          6           0       -3.979294   -0.354015   -0.236752
     35          6           0        3.110280    1.650459    0.266733
     36          6           0       -2.554894   -0.692188   -0.404516
     37          6           0        2.887703    3.037554    0.565772
     38          6           0       -2.403654   -2.153458   -0.925842
     39          6           0        2.075212    0.730967   -0.074337
     40          6           0       -1.501759    0.155130   -0.083877
     41          6           0        0.709752    0.933666   -0.119759
     42          6           0       -0.146106   -0.046398   -0.262341
     43          1           0       12.950302   -1.252745    1.846455
     44          1           0       12.941114   -2.865816    1.492413
     45          1           0      -14.577033   -0.373799    1.426950
     46          1           0      -14.394739   -0.263002   -0.411478
     47          1           0       13.086454   -2.511433   -1.120611
     48          1           0      -13.091490    1.645705    1.716245
     49          1           0       14.004676    0.258770   -0.524442
     50          1           0       13.558826   -0.480850   -2.047145
     51          1           0      -13.313526    1.990579   -1.341826
     52          1           0      -12.231652    2.771315   -0.015849
     53          1           0       11.142850   -1.895011    2.861693
     54          1           0        9.804867   -0.984213    2.653755
     55          1           0       11.124280   -0.188631    2.815168
     56          1           0       10.765128   -2.906279   -0.591500
     57          1           0       10.776004   -3.728103    0.617069
     58          1           0        9.426698   -2.620159    0.102182
     59          1           0      -11.773132   -0.369955    2.689019
     60          1           0      -10.962281   -1.752222    2.030443
     61          1           0      -12.866647   -1.637187    2.296998
     62          1           0      -13.594438   -2.779059    0.337825
     63          1           0      -11.994996   -3.059250   -0.143780
     64          1           0      -12.817368   -2.222682   -1.291011
     65          1           0        8.830856   -0.180457    0.448453
     66          1           0      -10.161226   -1.950089   -0.502980
     67          1           0       10.287326    1.446604   -2.103794
     68          1           0       11.759278    2.072513   -1.714281
     69          1           0       11.985593    0.818499   -2.974980
     70          1           0      -10.774330    2.524238   -2.219531
     71          1           0       -9.751262    0.994199   -2.098701
     72          1           0       -9.691112    2.106658   -0.784799
     73          1           0       15.119682   -2.976655   -0.158883
     74          1           0      -15.311882    1.610231    1.345034
     75          1           0       10.123357    2.353574    0.166858
     76          1           0       -8.668933    0.490088    0.154395
     77          1           0        8.994442    4.224880    0.056367
     78          1           0        7.019394    4.196209   -0.343905
     79          1           0        7.556437    4.243796    1.387560
     80          1           0       -8.233317   -3.430037   -0.214514
     81          1           0       -8.097853   -2.952698   -1.862394
     82          1           0       -6.642867   -3.392308   -0.929786
     83          1           0        6.952292    0.345518   -0.072030
     84          1           0       -6.470236    0.296798   -0.089731
     85          1           0        5.445882    3.097439    0.712190
     86          1           0       -4.830158   -2.264761   -0.699947
     87          1           0        4.585508    0.288422   -0.141041
     88          1           0       -4.126256    0.587013    0.200793
     89          1           0        3.208481    3.326832    1.571877
     90          1           0        1.727580    3.243048    0.684293
     91          1           0        3.234853    3.614538   -0.227389
     92          1           0       -3.006933   -2.860482   -0.466953
     93          1           0       -2.722274   -2.066660   -1.937851
     94          1           0       -1.417799   -2.613764   -0.880400
     95          1           0        2.577842   -0.288388   -0.256030
     96          1           0       -1.842046    1.082844    0.380397
     97          1           0        0.413102    1.857569    0.569454
     98          1           0        0.370812   -0.950864   -0.617438
 ---------------------------------------------------------------------

 SCF Done:  E(RCAM-B3LYP) =  -1706.94863457     A.U. after   15 cycles

 Excitation energies and oscillator strengths:

 Excited State   1:      Singlet-A      2.1491 eV  576.92 nm  f=3.6562  <S**2>=0.000
     155 ->158        -0.15936
     156 ->157         0.68857
 This state for optimization and/or second-order correction.
 Total Energy, E(TD-HF/TD-DFT) =  -1706.86965724
 Copying the excited state density for this state as the 1-particle RhoCI density.

 The electronic state is 1-A.
 Alpha  occ. eigenvalues --  -19.21729 -19.19977 -10.31622 -10.30710 -10.28269
 Alpha  occ. eigenvalues --  -10.28258 -10.28187 -10.28013 -10.27888 -10.27300
 Alpha  occ. eigenvalues --  -10.27035 -10.26881 -10.26787 -10.26575 -10.26574
 Alpha  occ. eigenvalues --  -10.26570 -10.26497 -10.26488 -10.26406 -10.26330
 Alpha  occ. eigenvalues --  -10.26150 -10.26099 -10.25981 -10.25649 -10.25538
 Alpha  occ. eigenvalues --  -10.25537 -10.25478 -10.25463 -10.25437 -10.25374
 Alpha  occ. eigenvalues --  -10.25347 -10.25331 -10.25258 -10.25211 -10.24838
 Alpha  occ. eigenvalues --  -10.24823 -10.24753 -10.24725 -10.24644 -10.24538
 Alpha  occ. eigenvalues --  -10.22431 -10.22332  -1.10968  -1.07602  -0.93924
 Alpha  occ. eigenvalues --   -0.92691  -0.92460  -0.91266  -0.90469  -0.89621
 Alpha  occ. eigenvalues --   -0.88236  -0.86893  -0.86525  -0.85434  -0.84549
 Alpha  occ. eigenvalues --   -0.82415  -0.81768  -0.79966  -0.79444  -0.79052
 Alpha  occ. eigenvalues --   -0.78746  -0.76926  -0.76593  -0.76087  -0.75576
 Alpha  occ. eigenvalues --   -0.75404  -0.75286  -0.74925  -0.73647  -0.70523
 Alpha  occ. eigenvalues --   -0.69370  -0.67639  -0.66415  -0.66031  -0.64420
 Alpha  occ. eigenvalues --   -0.63820  -0.63586  -0.61650  -0.61420  -0.60692
 Alpha  occ. eigenvalues --   -0.58993  -0.58236  -0.57777  -0.57438  -0.56890
 Alpha  occ. eigenvalues --   -0.55677  -0.55566  -0.55186  -0.54449  -0.53693
 Alpha  occ. eigenvalues --   -0.53035  -0.52765  -0.51975  -0.51552  -0.51538
 Alpha  occ. eigenvalues --   -0.51050  -0.50722  -0.50451  -0.49894  -0.49561
 Alpha  occ. eigenvalues --   -0.49022  -0.48756  -0.48617  -0.48364  -0.48134
 Alpha  occ. eigenvalues --   -0.47809  -0.47152  -0.46798  -0.46498  -0.46027
 Alpha  occ. eigenvalues --   -0.45940  -0.45509  -0.45381  -0.45253  -0.45050
 Alpha  occ. eigenvalues --   -0.45014  -0.44909  -0.44607  -0.43918  -0.43534
 Alpha  occ. eigenvalues --   -0.43365  -0.42694  -0.42425  -0.42293  -0.42226
 Alpha  occ. eigenvalues --   -0.42173  -0.41928  -0.41534  -0.40879  -0.40783
 Alpha  occ. eigenvalues --   -0.40514  -0.40269  -0.40242  -0.40086  -0.39848
 Alpha  occ. eigenvalues --   -0.39604  -0.38833  -0.38358  -0.38052  -0.38008
 Alpha  occ. eigenvalues --   -0.37814  -0.37132  -0.36529  -0.35977  -0.35716
 Alpha  occ. eigenvalues --   -0.35067  -0.34762  -0.34094  -0.32618  -0.32165
 Alpha  occ. eigenvalues --   -0.31551  -0.29626  -0.28109  -0.26389  -0.23082
 Alpha  occ. eigenvalues --   -0.19229
 Alpha virt. eigenvalues --   -0.05926  -0.01374   0.02884   0.06227   0.08619
 Alpha virt. eigenvalues --    0.10352   0.11327   0.11532   0.11750   0.12484
 Alpha virt. eigenvalues --    0.12934   0.13004   0.13696   0.14064   0.14271

 Mulliken charges:
               1
     1  O   -0.561602
     2  O   -0.545247
     3  C   -0.005235
     4  C   -0.025388
     5  C   -0.196857
     6  C   -0.199932
     7  C    0.146183
     8  C    0.156552
     9  C    0.041344
    10  C    0.068860
    11  C   -0.224919
    12  C   -0.211323
    13  C    0.032880
    14  C    0.028175
    15  C   -0.320790
    16  C   -0.304694
    17  C   -0.286722
    18  C   -0.311189
    19  C   -0.062967
    20  C   -0.121362
    21  C   -0.360936
    22  C   -0.364477
    23  C   -0.087108
    24  C   -0.073648
    25  C    0.061926
    26  C    0.074670
    27  C   -0.353170
    28  C   -0.371500
    29  C   -0.116297
    30  C   -0.105223
    31  C   -0.085598
    32  C   -0.071196
    33  C   -0.124000
    34  C   -0.123810
    35  C    0.119867
    36  C    0.093312
    37  C   -0.387912
    38  C   -0.382915
    39  C   -0.126809
    40  C   -0.147372
    41  C   -0.081886
    42  C   -0.047152
    43  H    0.124739
    44  H    0.068806
    45  H    0.063176
    46  H    0.120595
    47  H    0.101547
    48  H    0.061524
    49  H    0.119153
    50  H    0.102875
    51  H    0.102906
    52  H    0.110424
    53  H    0.105324
    54  H    0.110698
    55  H    0.093410
    56  H    0.115684
    57  H    0.097229
    58  H    0.108589
    59  H    0.110107
    60  H    0.103078
    61  H    0.102899
    62  H    0.099513
    63  H    0.112088
    64  H    0.093744
    65  H    0.069517
    66  H    0.067774
    67  H    0.094248
    68  H    0.133669
    69  H    0.102454
    70  H    0.094928
    71  H    0.123639
    72  H    0.128763
    73  H    0.302554
    74  H    0.290355
    75  H    0.067067
    76  H    0.089354
    77  H    0.098866
    78  H    0.113481
    79  H    0.111086
    80  H    0.119768
    81  H    0.103630
    82  H    0.120145
    83  H    0.076650
    84  H    0.071118
    85  H    0.089369
    86  H    0.091896
    87  H    0.062529
    88  H    0.080957
    89  H    0.123127
    90  H    0.079291
    91  H    0.139261
    92  H    0.125610
    93  H    0.133223
    94  H    0.103913
    95  H    0.071343
    96  H    0.082811
    97  H    0.080752
    98  H    0.094210
 Sum of Mulliken charges =  -0.00000

 Dipole moment (field-independent basis, Debye):
    X=             -0.6109    Y=             -2.9981    Z=              1.1284  Tot=              3.2612
 Quadrupole moment (field-independent basis, Debye-Ang):
   XX=           -274.1598   YY=           -243.3056   ZZ=           -261.2609
   XY=              2.2232   XZ=            -11.9283   YZ=              6.9290

 Normal termination of Gaussian 16 at Mon Jul  8 17:46:18 2019.
