 Gaussian 16, Revision A.03,
 Gaussian 16:  ES64L-G16RevA.03 25-Dec-2016

 -------------------------------------
 # td=(NStates=1) CAM-B3LYP/6-31G(d,p)
 -------------------------------------

 --
 TD
 --
 Symbolic Z-matrix:
 Charge =  0 Multiplicity = 1

                         Standard orientation:
 ---------------------------------------------------------------------
 Center     Atomic      Atomic             Coordinates (Angstroms)
 Number     Number       Type             X           Y           Z
 ---------------------------------------------------------------------
      1          8           0       14.936566   -1.958589   -0.086761
      2          8           0      -14.648075    1.979055    1.144237
      3          6           0       11.251249   -1.509648    0.905682
      4          6           0      -12.443141   -0.955960    0.465030
      5          6           0       12.735088   -1.820431    0.995577
      6          6           0      -13.727836   -0.234931    0.533488
      7          6           0       13.491786   -1.656420   -0.349696
      8          6           0      -13.535502    1.319168    0.954763
      9          6           0       11.069298   -0.237312    0.018409
     10          6           0      -11.328546   -0.151956   -0.215211
     11          6           0       13.351128   -0.365101   -0.811490
     12          6           0      -12.664898    1.921799   -0.155807
     13          6           0       11.985527    0.280894   -0.842531
     14          6           0      -11.502650    1.123536   -0.495140
     15          6           0       10.750589   -1.265717    2.358751
     16          6           0       10.565080   -2.680979    0.162856
     17          6           0      -11.971851   -1.388612    1.924765
     18          6           0      -12.798820   -2.308738   -0.382922
     19          6           0        9.646780    0.302757    0.095766
     20          6           0      -10.180871   -0.894627   -0.590437
     21          6           0       11.853467    1.398713   -1.786873
     22          6           0      -10.514616    1.866015   -1.514222
     23          6           0        9.361901    1.600167    0.027286
     24          6           0       -8.864665   -0.532669   -0.425610
     25          6           0        8.001347    2.178770    0.095703
     26          6           0       -7.682501   -1.325370   -0.387642
     27          6           0        7.926342    3.689494    0.496604
     28          6           0       -7.769359   -2.620900   -0.861575
     29          6           0        6.840452    1.415242    0.137395
     30          6           0       -6.455290   -0.649933   -0.216222
     31          6           0        5.545715    1.957447    0.128067
     32          6           0       -5.103209   -1.202628   -0.350309
     33          6           0        4.424048    1.128894    0.053028
     34          6           0       -3.941491   -0.401115   -0.280867
     35          6           0        3.090292    1.582269    0.172393
     36          6           0       -2.654911   -0.830683   -0.412144
     37          6           0        2.801272    3.003120    0.531588
     38          6           0       -2.357165   -2.170561   -0.893485
     39          6           0        2.141285    0.697834   -0.181011
     40          6           0       -1.622027    0.109514   -0.211418
     41          6           0        0.766826    0.862152   -0.224430
     42          6           0       -0.208706   -0.134553   -0.311454
     43          1           0       13.354864   -1.203464    1.754506
     44          1           0       12.800321   -2.691834    1.440899
     45          1           0      -14.459756   -0.686467    1.232919
     46          1           0      -14.296082   -0.315731   -0.418889
     47          1           0       12.927907   -2.254346   -1.073240
     48          1           0      -12.855715    1.105435    1.949425
     49          1           0       14.181257    0.293702   -0.260724
     50          1           0       13.783529   -0.340843   -1.850476
     51          1           0      -13.189160    2.227688   -1.066705
     52          1           0      -12.474148    3.042007    0.102967
     53          1           0       11.052480   -2.027432    3.005856
     54          1           0        9.676801   -1.113469    2.544018
     55          1           0       11.230282   -0.304155    2.759687
     56          1           0       10.894470   -2.723497   -1.069134
     57          1           0       10.727233   -3.753038    0.616028
     58          1           0        9.565773   -2.625942    0.172121
     59          1           0      -11.905176   -0.438243    2.318718
     60          1           0      -10.907717   -1.932017    2.111299
     61          1           0      -12.818196   -2.076059    2.509711
     62          1           0      -13.663742   -2.761432    0.073060
     63          1           0      -11.979949   -3.103450   -0.116200
     64          1           0      -13.112708   -2.068698   -1.428412
     65          1           0        8.939023   -0.401327    0.532116
     66          1           0      -10.301271   -2.021246   -0.751707
     67          1           0       10.868263    1.579455   -2.092699
     68          1           0       12.129072    2.359957   -1.335317
     69          1           0       12.513793    1.270414   -2.667913
     70          1           0      -11.041247    2.445761   -2.266350
     71          1           0       -9.906379    1.053043   -1.953430
     72          1           0      -10.058829    2.721972   -0.920989
     73          1           0       14.741145   -3.068425   -0.034197
     74          1           0      -15.267798    1.654337    1.894029
     75          1           0        9.959191    2.306630   -0.110868
     76          1           0       -8.601162    0.387984    0.003512
     77          1           0        8.811595    3.982980    0.507800
     78          1           0        7.169048    4.174689   -0.129065
     79          1           0        7.518704    3.578017    1.512283
     80          1           0       -8.535595   -3.379434   -0.238181
     81          1           0       -8.331938   -2.776591   -1.699766
     82          1           0       -6.836775   -3.255403   -1.053510
     83          1           0        6.903549    0.379484    0.268490
     84          1           0       -6.630829    0.566469   -0.045497
     85          1           0        5.511470    3.203181    0.198293
     86          1           0       -5.179990   -2.273583   -0.255908
     87          1           0        4.644345    0.054494   -0.139682
     88          1           0       -4.175823    0.650530   -0.030710
     89          1           0        3.002177    3.224544    1.556095
     90          1           0        1.902788    3.387915    0.564033
     91          1           0        3.324426    3.520654   -0.174365
     92          1           0       -3.003045   -2.847581   -0.456976
     93          1           0       -2.428097   -2.368389   -1.932483
     94          1           0       -1.183029   -2.381766   -0.793021
     95          1           0        2.435063   -0.392758   -0.229558
     96          1           0       -1.781828    1.017522   -0.115054
     97          1           0        0.404775    1.878102    0.110415
     98          1           0        0.016198   -1.237702   -0.426986
 ---------------------------------------------------------------------

 SCF Done:  E(RCAM-B3LYP) =  -1706.90924846     A.U. after   15 cycles

 Excitation energies and oscillator strengths:

 Excited State   1:      Singlet-A      2.0709 eV  598.71 nm  f=3.8679  <S**2>=0.000
     155 ->158         0.16124
     156 ->157         0.68840
 This state for optimization and/or second-order correction.
 Total Energy, E(TD-HF/TD-DFT) =  -1706.83314593
 Copying the excited state density for this state as the 1-particle RhoCI density.

 The electronic state is 1-A.
 Alpha  occ. eigenvalues --  -19.22942 -19.22793 -10.31650 -10.29647 -10.28267
 Alpha  occ. eigenvalues --  -10.27904 -10.27502 -10.27298 -10.26990 -10.26959
 Alpha  occ. eigenvalues --  -10.26884 -10.26876 -10.26812 -10.26724 -10.26718
 Alpha  occ. eigenvalues --  -10.26560 -10.26557 -10.26520 -10.26411 -10.26329
 Alpha  occ. eigenvalues --  -10.26067 -10.26018 -10.25779 -10.25742 -10.25510
 Alpha  occ. eigenvalues --  -10.25431 -10.25397 -10.25335 -10.25159 -10.25040
 Alpha  occ. eigenvalues --  -10.24946 -10.24930 -10.24870 -10.24819 -10.24814
 Alpha  occ. eigenvalues --  -10.24758 -10.24637 -10.24499 -10.24389 -10.24287
 Alpha  occ. eigenvalues --  -10.23730 -10.23437  -1.12706  -1.05934  -0.93774
 Alpha  occ. eigenvalues --   -0.93588  -0.92583  -0.92048  -0.91100  -0.90421
 Alpha  occ. eigenvalues --   -0.87631  -0.87025  -0.86101  -0.85645  -0.84547
 Alpha  occ. eigenvalues --   -0.83350  -0.82242  -0.81061  -0.79841  -0.78473
 Alpha  occ. eigenvalues --   -0.77617  -0.77152  -0.76720  -0.76547  -0.75742
 Alpha  occ. eigenvalues --   -0.75580  -0.74957  -0.74292  -0.73477  -0.71132
 Alpha  occ. eigenvalues --   -0.69321  -0.68052  -0.66201  -0.64953  -0.64584
 Alpha  occ. eigenvalues --   -0.64114  -0.62677  -0.62125  -0.60726  -0.60318
 Alpha  occ. eigenvalues --   -0.59500  -0.59146  -0.58845  -0.58413  -0.56929
 Alpha  occ. eigenvalues --   -0.55664  -0.55149  -0.54785  -0.54508  -0.54201
 Alpha  occ. eigenvalues --   -0.53223  -0.52597  -0.52002  -0.51689  -0.50999
 Alpha  occ. eigenvalues --   -0.50364  -0.49932  -0.49845  -0.49736  -0.49057
 Alpha  occ. eigenvalues --   -0.48962  -0.48766  -0.48708  -0.48365  -0.48156
 Alpha  occ. eigenvalues --   -0.47804  -0.47756  -0.47447  -0.46772  -0.46311
 Alpha  occ. eigenvalues --   -0.46191  -0.46048  -0.45695  -0.45358  -0.45325
 Alpha  occ. eigenvalues --   -0.45013  -0.44672  -0.44398  -0.43696  -0.43169
 Alpha  occ. eigenvalues --   -0.42854  -0.42795  -0.42493  -0.41963  -0.41697
 Alpha  occ. eigenvalues --   -0.41443  -0.41345  -0.41181  -0.40827  -0.40663
 Alpha  occ. eigenvalues --   -0.40597  -0.40282  -0.40135  -0.39996  -0.39916
 Alpha  occ. eigenvalues --   -0.39196  -0.38869  -0.38804  -0.38642  -0.37755
 Alpha  occ. eigenvalues --   -0.37702  -0.37345  -0.37133  -0.37071  -0.36223
 Alpha  occ. eigenvalues --   -0.34888  -0.34429  -0.34208  -0.32487  -0.31870
 Alpha  occ. eigenvalues --   -0.30032  -0.29378  -0.28110  -0.25817  -0.22705
 Alpha  occ. eigenvalues --   -0.18844
 Alpha virt. eigenvalues --   -0.06000  -0.01380   0.02465   0.05736   0.08028
 Alpha virt. eigenvalues --    0.09224   0.09976   0.10419   0.11710   0.11924
 Alpha virt. eigenvalues --    0.11963   0.12413   0.13198   0.13731   0.13885

 Mulliken charges:
               1
     1  O   -0.551307
     2  O   -0.542940
     3  C   -0.019849
     4  C   -0.019857
     5  C   -0.162069
     6  C   -0.207836
     7  C    0.128847
     8  C    0.211245
     9  C    0.044016
    10  C    0.115337
    11  C   -0.210182
    12  C   -0.233011
    13  C    0.067803
    14  C    0.050476
    15  C   -0.318898
    16  C   -0.287290
    17  C   -0.286792
    18  C   -0.311942
    19  C   -0.108789
    20  C   -0.169891
    21  C   -0.374881
    22  C   -0.356772
    23  C   -0.038698
    24  C   -0.092535
    25  C   -0.005791
    26  C    0.163649
    27  C   -0.342110
    28  C   -0.404647
    29  C   -0.088546
    30  C   -0.141616
    31  C   -0.087054
    32  C   -0.113501
    33  C   -0.135407
    34  C   -0.107948
    35  C    0.107253
    36  C    0.121769
    37  C   -0.356896
    38  C   -0.366795
    39  C   -0.119587
    40  C   -0.071791
    41  C   -0.105422
    42  C   -0.092546
    43  H    0.089484
    44  H    0.080049
    45  H    0.069699
    46  H    0.091437
    47  H    0.089011
    48  H    0.034791
    49  H    0.099773
    50  H    0.092408
    51  H    0.121378
    52  H    0.092256
    53  H    0.109938
    54  H    0.100488
    55  H    0.109369
    56  H    0.077896
    57  H    0.085780
    58  H    0.118270
    59  H    0.116107
    60  H    0.093247
    61  H    0.069715
    62  H    0.102231
    63  H    0.089227
    64  H    0.107516
    65  H    0.087040
    66  H    0.076168
    67  H    0.128706
    68  H    0.122718
    69  H    0.108059
    70  H    0.103720
    71  H    0.126359
    72  H    0.103727
    73  H    0.304068
    74  H    0.323942
    75  H    0.054324
    76  H    0.081484
    77  H    0.103287
    78  H    0.122561
    79  H    0.136668
    80  H    0.074113
    81  H    0.148151
    82  H    0.102381
    83  H    0.073923
    84  H    0.067179
    85  H    0.071185
    86  H    0.094569
    87  H    0.091326
    88  H    0.092216
    89  H    0.123431
    90  H    0.113109
    91  H    0.130386
    92  H    0.119997
    93  H    0.138444
    94  H    0.087286
    95  H    0.074525
    96  H    0.047949
    97  H    0.077675
    98  H    0.072054
 Sum of Mulliken charges =  -0.00000

 Dipole moment (field-independent basis, Debye):
    X=             -1.2155    Y=             -1.0643    Z=              1.1036  Tot=              1.9565
 Quadrupole moment (field-independent basis, Debye-Ang):
   XX=           -270.8571   YY=           -239.5784   ZZ=           -260.8753
   XY=              1.6388   XZ=            -11.0269   YZ=              2.5034

 Normal termination of Gaussian 16 at Tue Jul 16 08:45:30 2019.
