 Gaussian 16, Revision A.03,
 Gaussian 16:  ES64L-G16RevA.03 25-Dec-2016

 -------------------------------------
 # td=(NStates=1) CAM-B3LYP/6-31G(d,p)
 -------------------------------------

 --
 TD
 --
 Symbolic Z-matrix:
 Charge =  0 Multiplicity = 1

                         Standard orientation:
 ---------------------------------------------------------------------
 Center     Atomic      Atomic             Coordinates (Angstroms)
 Number     Number       Type             X           Y           Z
 ---------------------------------------------------------------------
      1          8           0       14.753250   -2.070169   -0.158279
      2          8           0      -14.736362    1.951490    0.883811
      3          6           0       11.112355   -1.478770    0.904919
      4          6           0      -12.323693   -0.989082    0.674314
      5          6           0       12.635681   -1.763800    1.115654
      6          6           0      -13.712602   -0.165514    0.674137
      7          6           0       13.309918   -1.861847   -0.309093
      8          6           0      -13.486506    1.296592    0.868347
      9          6           0       10.841943   -0.307793   -0.025663
     10          6           0      -11.209562   -0.197237   -0.183760
     11          6           0       13.167082   -0.526303   -0.901505
     12          6           0      -12.718553    1.798686   -0.346193
     13          6           0       11.902305    0.061934   -0.890170
     14          6           0      -11.456036    1.071088   -0.608207
     15          6           0       10.553035   -1.101302    2.336464
     16          6           0       10.303846   -2.679710    0.461759
     17          6           0      -11.738255   -1.163427    2.112494
     18          6           0      -12.673917   -2.367391    0.061268
     19          6           0        9.540207    0.337676    0.033080
     20          6           0      -10.060054   -0.953185   -0.450133
     21          6           0       11.771610    1.167350   -1.845013
     22          6           0      -10.397903    1.773025   -1.513103
     23          6           0        9.301403    1.679036    0.159788
     24          6           0       -8.776638   -0.572677   -0.265084
     25          6           0        8.021163    2.337756    0.124291
     26          6           0       -7.599028   -1.306912   -0.569157
     27          6           0        8.001967    3.763761    0.530148
     28          6           0       -7.562235   -2.834973   -1.008312
     29          6           0        6.859244    1.566121   -0.028093
     30          6           0       -6.409552   -0.651976   -0.336319
     31          6           0        5.564000    2.039082    0.175403
     32          6           0       -5.059354   -1.155232   -0.565850
     33          6           0        4.437171    1.274057   -0.048097
     34          6           0       -3.978708   -0.380100   -0.253566
     35          6           0        3.091310    1.615776    0.146191
     36          6           0       -2.603748   -0.809402   -0.563711
     37          6           0        2.864627    3.088006    0.538008
     38          6           0       -2.335566   -2.206883   -1.030855
     39          6           0        2.143737    0.706411   -0.065221
     40          6           0       -1.592181    0.126843   -0.320797
     41          6           0        0.731964    0.962664   -0.090089
     42          6           0       -0.185066   -0.155328   -0.221987
     43          1           0       13.091533   -1.073989    1.713632
     44          1           0       12.640205   -2.792761    1.602560
     45          1           0      -14.278540   -0.428600    1.540049
     46          1           0      -14.250858   -0.271267   -0.319111
     47          1           0       12.708516   -2.734105   -0.791876
     48          1           0      -12.923177    1.533477    1.663633
     49          1           0       13.928812    0.082241   -0.562223
     50          1           0       13.600522   -0.414462   -1.994234
     51          1           0      -13.174499    1.726524   -1.294479
     52          1           0      -12.518392    2.808851   -0.079740
     53          1           0       10.540224   -1.876189    2.998062
     54          1           0        9.582578   -0.746719    2.313346
     55          1           0       11.222548   -0.320137    2.741607
     56          1           0       10.594471   -3.092980   -0.437283
     57          1           0       10.605483   -3.508328    1.163711
     58          1           0        9.313817   -2.539824    0.507560
     59          1           0      -11.592363   -0.249945    2.691287
     60          1           0      -10.850997   -1.723528    2.015853
     61          1           0      -12.318472   -1.700840    2.830475
     62          1           0      -13.597045   -2.687882    0.599735
     63          1           0      -11.749390   -3.033382    0.194480
     64          1           0      -12.770003   -2.284479   -0.961814
     65          1           0        8.627260   -0.385600    0.330318
     66          1           0      -10.303273   -1.767614   -0.929725
     67          1           0       10.770220    1.427282   -1.856884
     68          1           0       12.273730    2.213860   -1.678236
     69          1           0       12.250590    0.912517   -2.878595
     70          1           0      -10.754419    2.394507   -2.339293
     71          1           0       -9.679165    1.117206   -1.888619
     72          1           0       -9.801680    2.472497   -1.095540
     73          1           0       14.894533   -2.877597    0.353677
     74          1           0      -15.313341    1.787659    1.657705
     75          1           0       10.142621    2.274532    0.067111
     76          1           0       -8.701837    0.422993    0.120169
     77          1           0        8.937270    4.481183    0.455317
     78          1           0        7.604624    4.588605   -0.139182
     79          1           0        7.817934    3.967159    1.617738
     80          1           0       -8.141007   -3.350248   -0.295367
     81          1           0       -8.250124   -3.001120   -1.965807
     82          1           0       -6.527086   -3.276696   -0.956261
     83          1           0        7.126139    0.681782   -0.473387
     84          1           0       -6.523286    0.417645   -0.254213
     85          1           0        5.550444    2.950213    0.635439
     86          1           0       -5.153819   -2.235298   -0.936371
     87          1           0        4.548835    0.067859   -0.522681
     88          1           0       -4.025161    0.440675    0.066543
     89          1           0        2.969390    3.230410    1.587642
     90          1           0        1.840593    3.529365    0.155345
     91          1           0        3.665278    3.634624    0.042101
     92          1           0       -2.939876   -2.923585   -0.530304
     93          1           0       -2.657668   -2.119131   -2.039460
     94          1           0       -1.248346   -2.628697   -0.947831
     95          1           0        2.514872   -0.327492   -0.366330
     96          1           0       -1.963790    1.230665   -0.006919
     97          1           0        0.713125    2.014063    0.269949
     98          1           0        0.143878   -1.308604   -0.055260
 ---------------------------------------------------------------------

 SCF Done:  E(RCAM-B3LYP) =  -1706.97506432     A.U. after   15 cycles

 Excitation energies and oscillator strengths:

 Excited State   1:      Singlet-A      2.2544 eV  549.98 nm  f=3.5926  <S**2>=0.000
     155 ->158         0.17018
     156 ->157         0.68332
 This state for optimization and/or second-order correction.
 Total Energy, E(TD-HF/TD-DFT) =  -1706.89221823
 Copying the excited state density for this state as the 1-particle RhoCI density.

 The electronic state is 1-A.
 Alpha  occ. eigenvalues --  -19.21089 -19.20489 -10.31094 -10.29129 -10.28756
 Alpha  occ. eigenvalues --  -10.27890 -10.27772 -10.27682 -10.27641 -10.27353
 Alpha  occ. eigenvalues --  -10.27343 -10.27188 -10.27175 -10.26952 -10.26858
 Alpha  occ. eigenvalues --  -10.26763 -10.26584 -10.26405 -10.26394 -10.26262
 Alpha  occ. eigenvalues --  -10.26034 -10.25981 -10.25787 -10.25729 -10.25637
 Alpha  occ. eigenvalues --  -10.25556 -10.25315 -10.25219 -10.25073 -10.24977
 Alpha  occ. eigenvalues --  -10.24863 -10.24855 -10.24777 -10.24579 -10.24541
 Alpha  occ. eigenvalues --  -10.24066 -10.24006 -10.23799 -10.23637 -10.23186
 Alpha  occ. eigenvalues --  -10.23076 -10.22516  -1.08813  -1.08004  -0.93853
 Alpha  occ. eigenvalues --   -0.93101  -0.92203  -0.91530  -0.90457  -0.89829
 Alpha  occ. eigenvalues --   -0.87970  -0.86752  -0.86311  -0.85932  -0.84631
 Alpha  occ. eigenvalues --   -0.83137  -0.81821  -0.80253  -0.79944  -0.78378
 Alpha  occ. eigenvalues --   -0.77022  -0.76997  -0.76639  -0.76513  -0.76181
 Alpha  occ. eigenvalues --   -0.75865  -0.75682  -0.75382  -0.73442  -0.71366
 Alpha  occ. eigenvalues --   -0.69309  -0.68099  -0.66472  -0.65415  -0.64456
 Alpha  occ. eigenvalues --   -0.63633  -0.62923  -0.62259  -0.60628  -0.60265
 Alpha  occ. eigenvalues --   -0.59659  -0.59239  -0.58976  -0.57247  -0.56332
 Alpha  occ. eigenvalues --   -0.55491  -0.55159  -0.54978  -0.54496  -0.54322
 Alpha  occ. eigenvalues --   -0.52923  -0.52739  -0.52088  -0.51653  -0.50844
 Alpha  occ. eigenvalues --   -0.50761  -0.50102  -0.49715  -0.49648  -0.49480
 Alpha  occ. eigenvalues --   -0.49239  -0.49142  -0.48497  -0.48417  -0.48013
 Alpha  occ. eigenvalues --   -0.47777  -0.47306  -0.47042  -0.46832  -0.46569
 Alpha  occ. eigenvalues --   -0.46313  -0.46030  -0.45903  -0.45265  -0.45206
 Alpha  occ. eigenvalues --   -0.45066  -0.44371  -0.44310  -0.44081  -0.43557
 Alpha  occ. eigenvalues --   -0.43373  -0.42888  -0.42722  -0.42613  -0.42508
 Alpha  occ. eigenvalues --   -0.42291  -0.41702  -0.41081  -0.40802  -0.40440
 Alpha  occ. eigenvalues --   -0.40240  -0.39589  -0.39421  -0.39141  -0.38976
 Alpha  occ. eigenvalues --   -0.38929  -0.38833  -0.38653  -0.38516  -0.38469
 Alpha  occ. eigenvalues --   -0.37963  -0.37291  -0.36697  -0.36501  -0.36294
 Alpha  occ. eigenvalues --   -0.35903  -0.34823  -0.33845  -0.32059  -0.31644
 Alpha  occ. eigenvalues --   -0.31335  -0.29262  -0.27592  -0.25682  -0.23089
 Alpha  occ. eigenvalues --   -0.19592
 Alpha virt. eigenvalues --   -0.05478  -0.01291   0.02098   0.05780   0.07680
 Alpha virt. eigenvalues --    0.09704   0.10182   0.11882   0.12329   0.12441
 Alpha virt. eigenvalues --    0.12618   0.12753   0.13308   0.13829   0.14242

 Mulliken charges:
               1
     1  O   -0.572658
     2  O   -0.578863
     3  C   -0.058147
     4  C   -0.021398
     5  C   -0.187916
     6  C   -0.180703
     7  C    0.160487
     8  C    0.184403
     9  C    0.080070
    10  C    0.025374
    11  C   -0.223699
    12  C   -0.217547
    13  C    0.091057
    14  C    0.044260
    15  C   -0.302590
    16  C   -0.290378
    17  C   -0.310556
    18  C   -0.302501
    19  C   -0.150623
    20  C   -0.118394
    21  C   -0.372587
    22  C   -0.383083
    23  C   -0.078706
    24  C   -0.097855
    25  C    0.078689
    26  C    0.107893
    27  C   -0.402194
    28  C   -0.370206
    29  C   -0.092540
    30  C   -0.137198
    31  C   -0.096439
    32  C   -0.091327
    33  C   -0.107381
    34  C   -0.022244
    35  C    0.130081
    36  C    0.082512
    37  C   -0.382868
    38  C   -0.363980
    39  C   -0.122507
    40  C   -0.131826
    41  C   -0.091816
    42  C   -0.112017
    43  H    0.110576
    44  H    0.071473
    45  H    0.073053
    46  H    0.099683
    47  H    0.078585
    48  H    0.085516
    49  H    0.145282
    50  H    0.087294
    51  H    0.125555
    52  H    0.108798
    53  H    0.099932
    54  H    0.107549
    55  H    0.094067
    56  H    0.106541
    57  H    0.082909
    58  H    0.112502
    59  H    0.098969
    60  H    0.113971
    61  H    0.095570
    62  H    0.107289
    63  H    0.085033
    64  H    0.115247
    65  H    0.077504
    66  H    0.076478
    67  H    0.121594
    68  H    0.096637
    69  H    0.093187
    70  H    0.097908
    71  H    0.124036
    72  H    0.119812
    73  H    0.303963
    74  H    0.303687
    75  H    0.086915
    76  H    0.089990
    77  H    0.089581
    78  H    0.114094
    79  H    0.128084
    80  H    0.133472
    81  H    0.110811
    82  H    0.113232
    83  H    0.086656
    84  H    0.080233
    85  H    0.093649
    86  H    0.078049
    87  H    0.057066
    88  H    0.032618
    89  H    0.137209
    90  H    0.101910
    91  H    0.126248
    92  H    0.123029
    93  H    0.140717
    94  H    0.098440
    95  H    0.071033
    96  H    0.077805
    97  H    0.091719
    98  H    0.105158
 Sum of Mulliken charges =  -0.00000

 Dipole moment (field-independent basis, Debye):
    X=             -1.8293    Y=             -1.2830    Z=              2.0510  Tot=              3.0330
 Quadrupole moment (field-independent basis, Debye-Ang):
   XX=           -276.3609   YY=           -239.7875   ZZ=           -260.0299
   XY=              7.8287   XZ=             -3.8049   YZ=              2.9508

 Normal termination of Gaussian 16 at Tue Jul 16 23:45:28 2019.
