 Gaussian 16, Revision A.03,
 Gaussian 16:  ES64L-G16RevA.03 25-Dec-2016

 -------------------------------------
 # td=(NStates=1) CAM-B3LYP/6-31G(d,p)
 -------------------------------------

 --
 TD
 --
 Symbolic Z-matrix:
 Charge =  0 Multiplicity = 1

                         Standard orientation:
 ---------------------------------------------------------------------
 Center     Atomic      Atomic             Coordinates (Angstroms)
 Number     Number       Type             X           Y           Z
 ---------------------------------------------------------------------
      1          8           0       14.732823   -2.211234    0.011637
      2          8           0      -14.594230    2.043020    1.170045
      3          6           0       11.201194   -1.314600    1.207488
      4          6           0      -12.275867   -0.979257    0.717541
      5          6           0       12.664949   -1.593776    1.162470
      6          6           0      -13.639981   -0.161243    0.837404
      7          6           0       13.303830   -1.930467   -0.182560
      8          6           0      -13.349663    1.367742    0.988015
      9          6           0       10.867667   -0.302495    0.014061
     10          6           0      -11.253071   -0.189037   -0.185002
     11          6           0       13.284251   -0.643063   -0.946913
     12          6           0      -12.616299    1.991576   -0.120727
     13          6           0       11.847219   -0.033468   -0.921013
     14          6           0      -11.417211    1.159874   -0.504651
     15          6           0       10.824777   -0.548937    2.541124
     16          6           0       10.357636   -2.536091    1.089856
     17          6           0      -11.779953   -1.214906    2.043243
     18          6           0      -12.599880   -2.403198    0.056299
     19          6           0        9.589398    0.419066    0.125327
     20          6           0      -10.060023   -0.957480   -0.427170
     21          6           0       11.518416    0.886527   -2.084253
     22          6           0      -10.420654    1.856591   -1.407223
     23          6           0        9.347857    1.733260   -0.146981
     24          6           0       -8.785745   -0.566606   -0.280890
     25          6           0        8.061549    2.310663   -0.041288
     26          6           0       -7.710647   -1.306023   -0.743866
     27          6           0        7.930553    3.859605    0.230430
     28          6           0       -7.870601   -2.751642   -1.247537
     29          6           0        6.951406    1.542292   -0.059831
     30          6           0       -6.401334   -0.803240   -0.550022
     31          6           0        5.624854    2.056390    0.052559
     32          6           0       -5.117974   -1.341797   -0.809930
     33          6           0        4.500692    1.202254   -0.117372
     34          6           0       -4.025722   -0.615861   -0.488571
     35          6           0        3.135776    1.530524   -0.025145
     36          6           0       -2.714954   -0.931029   -0.505110
     37          6           0        2.811175    3.056649    0.466889
     38          6           0       -2.332627   -2.307885   -0.923292
     39          6           0        2.053331    0.707773   -0.255980
     40          6           0       -1.673188    0.006165   -0.166318
     41          6           0        0.681898    0.844834   -0.186211
     42          6           0       -0.308644   -0.160486   -0.347068
     43          1           0       13.217461   -0.859796    1.576461
     44          1           0       12.834770   -2.377373    1.917261
     45          1           0      -14.192280   -0.717373    1.727166
     46          1           0      -14.330826   -0.146913   -0.200512
     47          1           0       12.866594   -2.751394   -0.623919
     48          1           0      -12.710203    1.624374    1.878568
     49          1           0       14.143088    0.009432   -0.494920
     50          1           0       13.568835   -0.811040   -2.151339
     51          1           0      -13.287708    2.172994   -1.105637
     52          1           0      -12.375287    2.909688    0.304800
     53          1           0       11.048194   -1.208845    3.346304
     54          1           0        9.737597   -0.345450    2.541932
     55          1           0       11.286337    0.469533    2.618290
     56          1           0       10.576484   -3.067840    0.122200
     57          1           0       10.596376   -3.261342    1.942165
     58          1           0        9.287239   -2.239303    1.123649
     59          1           0      -11.727146   -0.143096    2.470278
     60          1           0      -10.648604   -1.588127    1.897684
     61          1           0      -12.253776   -1.955633    2.739285
     62          1           0      -13.450465   -2.674426    0.631377
     63          1           0      -11.744133   -2.987940    0.001361
     64          1           0      -12.887173   -2.352039   -0.847891
     65          1           0        8.803078   -0.104381    0.508680
     66          1           0      -10.227510   -2.130868   -1.191779
     67          1           0       10.415481    1.036976   -2.210997
     68          1           0       12.081090    1.726830   -1.985414
     69          1           0       11.888659    0.257966   -2.939015
     70          1           0      -10.867049    2.574281   -2.140457
     71          1           0       -9.652515    1.327075   -1.972980
     72          1           0       -9.753943    2.578625   -0.593230
     73          1           0       14.913576   -3.172234    0.191729
     74          1           0      -14.944384    1.598880    2.004399
     75          1           0       10.144948    2.441994   -0.446760
     76          1           0       -8.535210    0.528304    0.132384
     77          1           0        8.752280    4.255345   -0.118330
     78          1           0        7.084285    4.425332   -0.457053
     79          1           0        7.709089    4.068001    1.429512
     80          1           0       -8.311993   -3.308658   -0.404844
     81          1           0       -8.577752   -2.926793   -2.097348
     82          1           0       -6.918738   -3.030647   -1.698564
     83          1           0        6.877547    0.436567   -0.561366
     84          1           0       -6.415740    0.145473    0.127035
     85          1           0        5.331213    3.186102    0.441304
     86          1           0       -5.126820   -2.317043   -1.341222
     87          1           0        4.832042    0.220988   -0.266220
     88          1           0       -4.147218    0.521579   -0.148906
     89          1           0        3.009147    3.117837    1.587455
     90          1           0        1.728660    3.304054    0.182282
     91          1           0        3.649652    3.772451   -0.009167
     92          1           0       -2.454342   -3.059071   -0.052002
     93          1           0       -3.017816   -2.586884   -1.852793
     94          1           0       -1.267032   -2.389165   -1.093658
     95          1           0        2.466926   -0.306860   -0.495586
     96          1           0       -1.708728    1.238164    0.362704
     97          1           0        0.282849    1.690298   -0.060445
     98          1           0        0.065804   -1.108099   -0.844066
 ---------------------------------------------------------------------

 SCF Done:  E(RCAM-B3LYP) =  -1706.92726270     A.U. after   15 cycles

 Excitation energies and oscillator strengths:

 Excited State   1:      Singlet-A      1.9115 eV  648.63 nm  f=3.8425  <S**2>=0.000
     155 ->158         0.14036
     156 ->157         0.69654
     156 <-157        -0.10598
 This state for optimization and/or second-order correction.
 Total Energy, E(TD-HF/TD-DFT) =  -1706.85701762
 Copying the excited state density for this state as the 1-particle RhoCI density.

 The electronic state is 1-A.
 Alpha  occ. eigenvalues --  -19.21162 -19.20930 -10.30581 -10.30196 -10.29206
 Alpha  occ. eigenvalues --  -10.28158 -10.28051 -10.27985 -10.27972 -10.27875
 Alpha  occ. eigenvalues --  -10.27799 -10.27606 -10.27566 -10.27476 -10.27412
 Alpha  occ. eigenvalues --  -10.27388 -10.27215 -10.27155 -10.27048 -10.27005
 Alpha  occ. eigenvalues --  -10.26956 -10.26937 -10.26890 -10.26851 -10.26821
 Alpha  occ. eigenvalues --  -10.26614 -10.26580 -10.26564 -10.26412 -10.26295
 Alpha  occ. eigenvalues --  -10.26247 -10.26164 -10.26124 -10.26016 -10.25902
 Alpha  occ. eigenvalues --  -10.25683 -10.25547 -10.25227 -10.24550 -10.24281
 Alpha  occ. eigenvalues --  -10.23334 -10.21845  -1.08765  -1.07356  -0.93397
 Alpha  occ. eigenvalues --   -0.93232  -0.92549  -0.91602  -0.90802  -0.90127
 Alpha  occ. eigenvalues --   -0.87711  -0.87412  -0.86710  -0.85650  -0.84807
 Alpha  occ. eigenvalues --   -0.83250  -0.82020  -0.80267  -0.79380  -0.77780
 Alpha  occ. eigenvalues --   -0.77156  -0.76279  -0.75947  -0.75842  -0.75411
 Alpha  occ. eigenvalues --   -0.75256  -0.74704  -0.74604  -0.73124  -0.71259
 Alpha  occ. eigenvalues --   -0.69460  -0.67210  -0.66081  -0.65021  -0.63517
 Alpha  occ. eigenvalues --   -0.63051  -0.62477  -0.61392  -0.60047  -0.59825
 Alpha  occ. eigenvalues --   -0.59397  -0.58999  -0.57557  -0.57017  -0.55929
 Alpha  occ. eigenvalues --   -0.55168  -0.54931  -0.54595  -0.53955  -0.53589
 Alpha  occ. eigenvalues --   -0.53215  -0.52434  -0.51965  -0.51389  -0.50585
 Alpha  occ. eigenvalues --   -0.50270  -0.50097  -0.49832  -0.49548  -0.49338
 Alpha  occ. eigenvalues --   -0.49093  -0.48379  -0.48212  -0.48064  -0.47983
 Alpha  occ. eigenvalues --   -0.47319  -0.47091  -0.46531  -0.46333  -0.46068
 Alpha  occ. eigenvalues --   -0.45923  -0.45671  -0.45620  -0.44889  -0.44609
 Alpha  occ. eigenvalues --   -0.44501  -0.44276  -0.43761  -0.43650  -0.43452
 Alpha  occ. eigenvalues --   -0.42991  -0.42761  -0.42441  -0.42392  -0.42017
 Alpha  occ. eigenvalues --   -0.41566  -0.41528  -0.41483  -0.40897  -0.40011
 Alpha  occ. eigenvalues --   -0.39914  -0.39785  -0.39746  -0.39478  -0.39179
 Alpha  occ. eigenvalues --   -0.38962  -0.38377  -0.38345  -0.38309  -0.38134
 Alpha  occ. eigenvalues --   -0.37840  -0.37554  -0.37024  -0.36759  -0.35945
 Alpha  occ. eigenvalues --   -0.35521  -0.34981  -0.34255  -0.32555  -0.32152
 Alpha  occ. eigenvalues --   -0.31349  -0.29705  -0.28313  -0.26404  -0.23623
 Alpha  occ. eigenvalues --   -0.18908
 Alpha virt. eigenvalues --   -0.07228  -0.01705   0.01995   0.04996   0.06570
 Alpha virt. eigenvalues --    0.09045   0.10204   0.10859   0.11530   0.11622
 Alpha virt. eigenvalues --    0.11885   0.12063   0.12713   0.12793   0.13114

 Mulliken charges:
               1
     1  O   -0.580296
     2  O   -0.563027
     3  C   -0.014238
     4  C   -0.020382
     5  C   -0.171566
     6  C   -0.191351
     7  C    0.165236
     8  C    0.156755
     9  C    0.070453
    10  C    0.052440
    11  C   -0.198083
    12  C   -0.202108
    13  C    0.005202
    14  C    0.055108
    15  C   -0.303505
    16  C   -0.288767
    17  C   -0.277435
    18  C   -0.290116
    19  C   -0.114415
    20  C   -0.141643
    21  C   -0.353766
    22  C   -0.349320
    23  C   -0.098820
    24  C   -0.082569
    25  C    0.068965
    26  C    0.104181
    27  C   -0.331518
    28  C   -0.365613
    29  C   -0.134549
    30  C   -0.131456
    31  C   -0.070701
    32  C   -0.091274
    33  C   -0.120969
    34  C   -0.091983
    35  C    0.103996
    36  C    0.089341
    37  C   -0.364404
    38  C   -0.359765
    39  C   -0.120409
    40  C   -0.117210
    41  C   -0.058005
    42  C   -0.070060
    43  H    0.110119
    44  H    0.069601
    45  H    0.072195
    46  H    0.082374
    47  H    0.091412
    48  H    0.077277
    49  H    0.127985
    50  H    0.073066
    51  H    0.106028
    52  H    0.128787
    53  H    0.100111
    54  H    0.099359
    55  H    0.107205
    56  H    0.097222
    57  H    0.091113
    58  H    0.101329
    59  H    0.084463
    60  H    0.089612
    61  H    0.102388
    62  H    0.093755
    63  H    0.101745
    64  H    0.109135
    65  H    0.088799
    66  H    0.046928
    67  H    0.121944
    68  H    0.125436
    69  H    0.095660
    70  H    0.108526
    71  H    0.134037
    72  H    0.069859
    73  H    0.303786
    74  H    0.307201
    75  H    0.089128
    76  H    0.091678
    77  H    0.119482
    78  H    0.095417
    79  H    0.110367
    80  H    0.135607
    81  H    0.110536
    82  H    0.104449
    83  H    0.086411
    84  H    0.073088
    85  H    0.080575
    86  H    0.093629
    87  H    0.075538
    88  H    0.082169
    89  H    0.123531
    90  H    0.108438
    91  H    0.097495
    92  H    0.120724
    93  H    0.105546
    94  H    0.113571
    95  H    0.067073
    96  H    0.060922
    97  H    0.053727
    98  H    0.080088
 Sum of Mulliken charges =  -0.00000

 Dipole moment (field-independent basis, Debye):
    X=              1.5352    Y=             -1.8761    Z=              0.6206  Tot=              2.5024
 Quadrupole moment (field-independent basis, Debye-Ang):
   XX=           -283.0428   YY=           -244.8419   ZZ=           -260.5462
   XY=              4.0829   XZ=             -6.4112   YZ=              3.3788

 Normal termination of Gaussian 16 at Wed Jul 10 10:54:52 2019.
