 Gaussian 16, Revision A.03,
 Gaussian 16:  ES64L-G16RevA.03 25-Dec-2016

 -------------------------------------
 # td=(NStates=1) CAM-B3LYP/6-31G(d,p)
 -------------------------------------

 --
 TD
 --
 Symbolic Z-matrix:
 Charge =  0 Multiplicity = 1

                         Standard orientation:
 ---------------------------------------------------------------------
 Center     Atomic      Atomic             Coordinates (Angstroms)
 Number     Number       Type             X           Y           Z
 ---------------------------------------------------------------------
      1          8           0       14.601027   -2.547930   -0.253947
      2          8           0      -14.831408    1.783084    1.074423
      3          6           0       11.146010   -1.476232    1.074670
      4          6           0      -12.377839   -1.165151    0.635698
      5          6           0       12.680402   -1.938527    1.186398
      6          6           0      -13.753495   -0.267250    0.640399
      7          6           0       13.244607   -1.963225   -0.233327
      8          6           0      -13.521264    1.078876    1.089644
      9          6           0       10.960155   -0.202454    0.065205
     10          6           0      -11.265789   -0.278073   -0.067502
     11          6           0       13.372354   -0.551878   -0.775546
     12          6           0      -12.651247    1.833420   -0.037518
     13          6           0       11.942140    0.153926   -0.754607
     14          6           0      -11.467594    1.006051   -0.442301
     15          6           0       10.730451   -1.056770    2.452000
     16          6           0       10.339179   -2.671109    0.477660
     17          6           0      -11.980770   -1.529469    2.032823
     18          6           0      -12.613848   -2.408568   -0.174019
     19          6           0        9.655904    0.329099    0.266145
     20          6           0      -10.030416   -1.016610   -0.488779
     21          6           0       11.848099    1.205902   -1.827466
     22          6           0      -10.541416    1.768308   -1.378994
     23          6           0        9.305571    1.688889   -0.094835
     24          6           0       -8.859830   -0.484154   -0.288699
     25          6           0        7.986910    2.338816    0.064298
     26          6           0       -7.561316   -1.177687   -0.623869
     27          6           0        7.982978    3.729322    0.241438
     28          6           0       -7.646721   -2.640104   -1.227410
     29          6           0        6.906455    1.551858   -0.051065
     30          6           0       -6.352940   -0.500140   -0.393575
     31          6           0        5.563240    1.997295    0.185427
     32          6           0       -5.077890   -0.976352   -0.629090
     33          6           0        4.463595    1.292475   -0.039746
     34          6           0       -3.902257   -0.202772   -0.507111
     35          6           0        3.150249    1.680724    0.248606
     36          6           0       -2.589661   -0.622385   -0.719530
     37          6           0        2.919920    3.103184    0.665696
     38          6           0       -2.310665   -2.003427   -1.255917
     39          6           0        2.065883    0.958356   -0.092011
     40          6           0       -1.573862    0.310238   -0.280238
     41          6           0        0.730064    1.147358   -0.069137
     42          6           0       -0.208645    0.091039   -0.355353
     43          1           0       13.367393   -1.412899    1.784741
     44          1           0       12.611835   -2.855917    1.679718
     45          1           0      -14.370904   -0.721426    1.477471
     46          1           0      -14.327404   -0.265848   -0.315070
     47          1           0       12.703545   -2.592971   -1.037539
     48          1           0      -13.152234    0.970525    2.001531
     49          1           0       14.216745   -0.051128   -0.186593
     50          1           0       13.842487   -0.662666   -1.752689
     51          1           0      -13.452377    2.364890   -0.762575
     52          1           0      -12.207738    2.654685    0.398890
     53          1           0       11.166149   -1.689744    3.087510
     54          1           0        9.714588   -0.982407    2.766146
     55          1           0       11.296552   -0.120589    2.748170
     56          1           0       10.452584   -2.855429   -0.608798
     57          1           0       10.622778   -3.543691    1.077768
     58          1           0        9.373210   -2.612111    0.708169
     59          1           0      -11.547081   -0.736381    2.823631
     60          1           0      -11.165356   -2.295003    1.933633
     61          1           0      -12.690086   -2.028630    2.416801
     62          1           0      -13.305194   -2.917388    0.606748
     63          1           0      -11.878643   -3.049104   -0.374289
     64          1           0      -13.049233   -2.115488   -1.078908
     65          1           0        8.860844   -0.442268    0.349527
     66          1           0      -10.204644   -2.122713   -0.602535
     67          1           0       10.790348    1.328820   -2.177501
     68          1           0       12.234551    2.069868   -1.181982
     69          1           0       12.487754    0.874384   -2.521394
     70          1           0      -10.940874    2.463659   -2.264920
     71          1           0       -9.681503    1.195725   -1.981274
     72          1           0       -9.929714    2.369796   -0.793530
     73          1           0       14.499628   -3.379315    0.145037
     74          1           0      -15.352358    1.450839    1.927825
     75          1           0       10.228909    2.331145   -0.253569
     76          1           0       -8.855374    0.604751    0.039385
     77          1           0        9.016182    4.253038    0.286576
     78          1           0        7.248471    4.209217   -0.428519
     79          1           0        7.701093    3.914578    1.190884
     80          1           0       -8.300029   -3.361225   -0.583371
     81          1           0       -8.206611   -2.569349   -2.159850
     82          1           0       -6.624382   -3.249828   -1.393283
     83          1           0        7.213318    0.591681   -0.418706
     84          1           0       -6.690463    0.208888    0.166102
     85          1           0        5.487224    3.068797    0.451554
     86          1           0       -5.027939   -2.073040   -1.051014
     87          1           0        4.518380    0.178739   -0.338233
     88          1           0       -3.982825    0.966017   -0.082981
     89          1           0        4.124125    3.464311    1.168385
     90          1           0        1.546792    3.186620    1.263809
     91          1           0        2.755326    3.567818   -0.623862
     92          1           0       -2.581309   -2.875403   -0.551100
     93          1           0       -2.731355   -1.808087   -2.371428
     94          1           0       -1.195343   -2.058585   -1.339897
     95          1           0        2.211970   -0.072193   -0.557914
     96          1           0       -1.690320    1.416381   -0.083098
     97          1           0        0.269380    2.044715    0.388691
     98          1           0        0.181987   -0.907096   -0.686865
 ---------------------------------------------------------------------

 SCF Done:  E(RCAM-B3LYP) =  -1706.82554955     A.U. after   16 cycles

 Excitation energies and oscillator strengths:

 Excited State   1:      Singlet-A      1.9971 eV  620.82 nm  f=3.6250  <S**2>=0.000
     155 ->158        -0.13519
     156 ->157         0.69695
     156 <-157        -0.10501
 This state for optimization and/or second-order correction.
 Total Energy, E(TD-HF/TD-DFT) =  -1706.75215775
 Copying the excited state density for this state as the 1-particle RhoCI density.

 The electronic state is 1-A.
 Alpha  occ. eigenvalues --  -19.21324 -19.19727 -10.32256 -10.30584 -10.29128
 Alpha  occ. eigenvalues --  -10.28529 -10.28317 -10.28168 -10.28157 -10.27918
 Alpha  occ. eigenvalues --  -10.27666 -10.27628 -10.27443 -10.27208 -10.27125
 Alpha  occ. eigenvalues --  -10.27018 -10.26848 -10.26696 -10.26635 -10.26579
 Alpha  occ. eigenvalues --  -10.26518 -10.26427 -10.26317 -10.26300 -10.26194
 Alpha  occ. eigenvalues --  -10.25934 -10.25863 -10.25803 -10.25774 -10.25684
 Alpha  occ. eigenvalues --  -10.25261 -10.25131 -10.25021 -10.24869 -10.24774
 Alpha  occ. eigenvalues --  -10.24677 -10.24673 -10.24564 -10.24459 -10.24251
 Alpha  occ. eigenvalues --  -10.24059 -10.23151  -1.08020  -1.06029  -0.93364
 Alpha  occ. eigenvalues --   -0.93136  -0.92566  -0.91737  -0.91080  -0.89962
 Alpha  occ. eigenvalues --   -0.87860  -0.87274  -0.86995  -0.85724  -0.84740
 Alpha  occ. eigenvalues --   -0.83416  -0.82169  -0.80487  -0.79798  -0.78504
 Alpha  occ. eigenvalues --   -0.77758  -0.77727  -0.76667  -0.76248  -0.75803
 Alpha  occ. eigenvalues --   -0.75408  -0.75172  -0.74284  -0.72422  -0.70735
 Alpha  occ. eigenvalues --   -0.68465  -0.66938  -0.65365  -0.64664  -0.64416
 Alpha  occ. eigenvalues --   -0.63604  -0.62662  -0.61913  -0.59860  -0.59352
 Alpha  occ. eigenvalues --   -0.59291  -0.58899  -0.57504  -0.57127  -0.55724
 Alpha  occ. eigenvalues --   -0.55014  -0.54759  -0.54617  -0.54017  -0.53340
 Alpha  occ. eigenvalues --   -0.52750  -0.52402  -0.52163  -0.51063  -0.50845
 Alpha  occ. eigenvalues --   -0.50605  -0.50452  -0.50302  -0.49775  -0.49292
 Alpha  occ. eigenvalues --   -0.49176  -0.48950  -0.48810  -0.48361  -0.48058
 Alpha  occ. eigenvalues --   -0.47759  -0.47474  -0.47061  -0.46531  -0.45839
 Alpha  occ. eigenvalues --   -0.45717  -0.45427  -0.45360  -0.44933  -0.44830
 Alpha  occ. eigenvalues --   -0.44703  -0.44161  -0.43724  -0.43236  -0.43011
 Alpha  occ. eigenvalues --   -0.42627  -0.42391  -0.42359  -0.42166  -0.41844
 Alpha  occ. eigenvalues --   -0.41651  -0.41480  -0.41286  -0.40933  -0.40587
 Alpha  occ. eigenvalues --   -0.40455  -0.40332  -0.39902  -0.39766  -0.39156
 Alpha  occ. eigenvalues --   -0.38984  -0.38922  -0.38644  -0.38014  -0.37981
 Alpha  occ. eigenvalues --   -0.37476  -0.37444  -0.36689  -0.36192  -0.36175
 Alpha  occ. eigenvalues --   -0.34912  -0.33882  -0.33258  -0.32522  -0.31959
 Alpha  occ. eigenvalues --   -0.31763  -0.30160  -0.28450  -0.26006  -0.23520
 Alpha  occ. eigenvalues --   -0.18821
 Alpha virt. eigenvalues --   -0.06667  -0.01040   0.02065   0.05629   0.06205
 Alpha virt. eigenvalues --    0.08184   0.10010   0.10911   0.11464   0.11657
 Alpha virt. eigenvalues --    0.12246   0.12653   0.12920   0.13126   0.13327

 Mulliken charges:
               1
     1  O   -0.575769
     2  O   -0.574384
     3  C   -0.027443
     4  C   -0.049617
     5  C   -0.195129
     6  C   -0.165478
     7  C    0.148936
     8  C    0.156877
     9  C    0.092510
    10  C    0.047732
    11  C   -0.215742
    12  C   -0.225070
    13  C   -0.019554
    14  C    0.049944
    15  C   -0.309499
    16  C   -0.309301
    17  C   -0.292112
    18  C   -0.286381
    19  C   -0.103430
    20  C   -0.105331
    21  C   -0.334637
    22  C   -0.383078
    23  C   -0.161648
    24  C   -0.099457
    25  C    0.119729
    26  C    0.053295
    27  C   -0.398672
    28  C   -0.368639
    29  C   -0.099518
    30  C   -0.055724
    31  C   -0.125978
    32  C   -0.117657
    33  C   -0.067140
    34  C   -0.092892
    35  C    0.108128
    36  C    0.081072
    37  C   -0.298709
    38  C   -0.356420
    39  C   -0.100130
    40  C   -0.121025
    41  C   -0.098572
    42  C   -0.082987
    43  H    0.109724
    44  H    0.087617
    45  H    0.057620
    46  H    0.106276
    47  H    0.079972
    48  H    0.090882
    49  H    0.110133
    50  H    0.113775
    51  H    0.120176
    52  H    0.118772
    53  H    0.102491
    54  H    0.107739
    55  H    0.102965
    56  H    0.114047
    57  H    0.092844
    58  H    0.113083
    59  H    0.093708
    60  H    0.097587
    61  H    0.112477
    62  H    0.083729
    63  H    0.111717
    64  H    0.120339
    65  H    0.092016
    66  H    0.077350
    67  H    0.121623
    68  H    0.115999
    69  H    0.112237
    70  H    0.097330
    71  H    0.107671
    72  H    0.127291
    73  H    0.295894
    74  H    0.297403
    75  H    0.084027
    76  H    0.095536
    77  H    0.106150
    78  H    0.127442
    79  H    0.143496
    80  H    0.106367
    81  H    0.131023
    82  H    0.097610
    83  H    0.080336
    84  H    0.068633
    85  H    0.080926
    86  H    0.085605
    87  H    0.081054
    88  H    0.073888
    89  H    0.086746
    90  H    0.061133
    91  H    0.082216
    92  H    0.131584
    93  H    0.128206
    94  H    0.106729
    95  H    0.061911
    96  H    0.090310
    97  H    0.071347
    98  H    0.084135
 Sum of Mulliken charges =  -0.00000

 Dipole moment (field-independent basis, Debye):
    X=             -1.2694    Y=             -2.4263    Z=              1.6779  Tot=              3.2115
 Quadrupole moment (field-independent basis, Debye-Ang):
   XX=           -290.9963   YY=           -246.8621   ZZ=           -258.4130
   XY=             17.7491   XZ=             -7.4835   YZ=              0.7068

 Normal termination of Gaussian 16 at Sun Jul 14 21:18:47 2019.
