 Gaussian 16, Revision A.03,
 Gaussian 16:  ES64L-G16RevA.03 25-Dec-2016

 -------------------------------------
 # td=(NStates=1) CAM-B3LYP/6-31G(d,p)
 -------------------------------------

 --
 TD
 --
 Symbolic Z-matrix:
 Charge =  0 Multiplicity = 1

                         Standard orientation:
 ---------------------------------------------------------------------
 Center     Atomic      Atomic             Coordinates (Angstroms)
 Number     Number       Type             X           Y           Z
 ---------------------------------------------------------------------
      1          8           0       14.688472   -2.246306   -0.185843
      2          8           0      -14.835088    1.569578    1.332754
      3          6           0       11.175493   -1.577170    0.978153
      4          6           0      -12.358888   -1.229961    0.503955
      5          6           0       12.703993   -2.053169    1.030761
      6          6           0      -13.686647   -0.412796    0.751519
      7          6           0       13.324483   -2.017754   -0.303142
      8          6           0      -13.471561    0.982443    1.129291
      9          6           0       11.025546   -0.294194    0.055523
     10          6           0      -11.310489   -0.251082   -0.200158
     11          6           0       13.301681   -0.546768   -0.916173
     12          6           0      -12.867465    1.749919   -0.012023
     13          6           0       11.888235    0.033938   -0.858096
     14          6           0      -11.614932    1.022706   -0.524632
     15          6           0       10.784306   -1.194282    2.403395
     16          6           0       10.296147   -2.769211    0.571101
     17          6           0      -11.827627   -1.608860    1.915162
     18          6           0      -12.826984   -2.372515   -0.341662
     19          6           0        9.698139    0.326465    0.211094
     20          6           0      -10.060183   -0.951536   -0.296994
     21          6           0       11.856260    1.104668   -1.878520
     22          6           0      -10.552616    1.970785   -1.331010
     23          6           0        9.431620    1.668029    0.156624
     24          6           0       -8.738692   -0.447048   -0.417906
     25          6           0        8.040408    2.251253    0.222251
     26          6           0       -7.555055   -1.184990   -0.652732
     27          6           0        7.980653    3.695976    0.562682
     28          6           0       -7.649692   -2.535765   -1.137803
     29          6           0        6.877010    1.514015    0.064339
     30          6           0       -6.326014   -0.416873   -0.561779
     31          6           0        5.594824    2.087583    0.275546
     32          6           0       -5.048864   -0.857338   -0.575836
     33          6           0        4.519878    1.361041   -0.061386
     34          6           0       -3.913900   -0.070054   -0.403733
     35          6           0        3.142665    1.777450   -0.028948
     36          6           0       -2.586603   -0.502286   -0.689688
     37          6           0        2.872867    3.087720    0.601790
     38          6           0       -2.410869   -1.907892   -1.066560
     39          6           0        2.073640    0.961133   -0.301514
     40          6           0       -1.567124    0.388893   -0.308453
     41          6           0        0.671814    1.018526   -0.138488
     42          6           0       -0.217394    0.131078   -0.584040
     43          1           0       13.174221   -1.246927    1.881509
     44          1           0       12.755475   -3.079417    1.537287
     45          1           0      -14.258243   -1.081888    1.449698
     46          1           0      -14.285158   -0.315467   -0.204152
     47          1           0       12.799519   -2.625702   -1.022393
     48          1           0      -12.771576    0.962516    2.110019
     49          1           0       14.092053   -0.042301   -0.247018
     50          1           0       13.729032   -0.462386   -1.920148
     51          1           0      -13.618749    1.970575   -0.815904
     52          1           0      -12.791469    2.808736    0.221524
     53          1           0       10.953293   -1.883101    3.097480
     54          1           0        9.897485   -0.886091    2.461100
     55          1           0       11.570550   -0.297551    2.767800
     56          1           0       10.455204   -2.915565   -0.518898
     57          1           0       10.578292   -3.551985    1.161853
     58          1           0        9.183546   -2.625265    0.901016
     59          1           0      -11.579497   -0.728446    2.520207
     60          1           0      -10.949662   -2.154610    1.641854
     61          1           0      -12.291784   -2.340454    2.518184
     62          1           0      -13.675355   -2.644825    0.206926
     63          1           0      -12.229549   -3.382981   -0.269788
     64          1           0      -13.199581   -2.158087   -1.274521
     65          1           0        8.893111   -0.374890    0.211868
     66          1           0      -10.166637   -1.921191   -0.562391
     67          1           0       10.937030    1.531009   -1.996074
     68          1           0       12.538236    2.033887   -1.562960
     69          1           0       12.249221    0.990941   -2.856383
     70          1           0      -10.902765    2.681567   -2.069624
     71          1           0       -9.750729    1.490304   -1.978302
     72          1           0      -10.003975    2.717920   -0.371004
     73          1           0       14.676286   -3.023233    0.470948
     74          1           0      -15.082169    1.196230    2.095965
     75          1           0       10.141321    2.390312   -0.314838
     76          1           0       -8.720446    0.501394   -0.078412
     77          1           0        9.021127    4.193964    0.456925
     78          1           0        6.997641    4.149045   -0.095118
     79          1           0        7.754295    3.783226    1.550238
     80          1           0       -7.693413   -3.389147   -0.387388
     81          1           0       -8.277416   -2.682019   -2.044154
     82          1           0       -6.847019   -2.787122   -1.450582
     83          1           0        6.827722    0.441228   -0.247087
     84          1           0       -6.542937    0.638843   -0.570213
     85          1           0        5.299197    3.204790    0.722852
     86          1           0       -4.787395   -2.068722   -0.610015
     87          1           0        4.678122    0.366617   -0.533960
     88          1           0       -4.173903    0.934460   -0.158822
     89          1           0        3.112210    3.187251    1.679257
     90          1           0        1.879297    3.141182    0.368529
     91          1           0        3.572960    3.942861    0.146672
     92          1           0       -3.059332   -2.487981   -0.208549
     93          1           0       -2.856674   -2.119427   -2.043610
     94          1           0       -1.371116   -2.433033   -0.993420
     95          1           0        2.390777   -0.182987   -0.566634
     96          1           0       -1.820712    1.428731    0.092714
     97          1           0        0.295503    1.857285    0.554930
     98          1           0        0.419074   -0.830712   -1.081711
 ---------------------------------------------------------------------

 SCF Done:  E(RCAM-B3LYP) =  -1706.88746768     A.U. after   15 cycles

 Excitation energies and oscillator strengths:

 Excited State   1:      Singlet-A      2.1512 eV  576.34 nm  f=3.6984  <S**2>=0.000
     155 ->158        -0.16071
     156 ->157         0.68862
 This state for optimization and/or second-order correction.
 Total Energy, E(TD-HF/TD-DFT) =  -1706.80841176
 Copying the excited state density for this state as the 1-particle RhoCI density.

 The electronic state is 1-A.
 Alpha  occ. eigenvalues --  -19.21455 -19.20148 -10.31182 -10.29813 -10.28170
 Alpha  occ. eigenvalues --  -10.27971 -10.27849 -10.27848 -10.27674 -10.27636
 Alpha  occ. eigenvalues --  -10.27632 -10.27488 -10.27471 -10.27195 -10.27164
 Alpha  occ. eigenvalues --  -10.27107 -10.26990 -10.26984 -10.26925 -10.26611
 Alpha  occ. eigenvalues --  -10.26601 -10.26336 -10.26188 -10.26139 -10.26087
 Alpha  occ. eigenvalues --  -10.26070 -10.26023 -10.25949 -10.25847 -10.25735
 Alpha  occ. eigenvalues --  -10.25607 -10.25345 -10.25161 -10.25078 -10.24820
 Alpha  occ. eigenvalues --  -10.24746 -10.24605 -10.24478 -10.24196 -10.23958
 Alpha  occ. eigenvalues --  -10.23583 -10.23014  -1.10227  -1.09316  -0.93360
 Alpha  occ. eigenvalues --   -0.93264  -0.92700  -0.91914  -0.90925  -0.89817
 Alpha  occ. eigenvalues --   -0.88003  -0.87492  -0.86468  -0.85612  -0.84867
 Alpha  occ. eigenvalues --   -0.83568  -0.82601  -0.80325  -0.80066  -0.78437
 Alpha  occ. eigenvalues --   -0.77756  -0.77102  -0.76980  -0.76627  -0.75584
 Alpha  occ. eigenvalues --   -0.75388  -0.75007  -0.74820  -0.73280  -0.70627
 Alpha  occ. eigenvalues --   -0.68826  -0.67096  -0.65492  -0.65064  -0.64838
 Alpha  occ. eigenvalues --   -0.63841  -0.62085  -0.61068  -0.60515  -0.59891
 Alpha  occ. eigenvalues --   -0.59410  -0.58635  -0.58271  -0.57608  -0.55999
 Alpha  occ. eigenvalues --   -0.55615  -0.55047  -0.54574  -0.54407  -0.53723
 Alpha  occ. eigenvalues --   -0.53295  -0.52618  -0.52322  -0.52088  -0.50652
 Alpha  occ. eigenvalues --   -0.50418  -0.50108  -0.49998  -0.49800  -0.49502
 Alpha  occ. eigenvalues --   -0.49150  -0.48847  -0.48687  -0.48123  -0.47923
 Alpha  occ. eigenvalues --   -0.47741  -0.47313  -0.47119  -0.46736  -0.46583
 Alpha  occ. eigenvalues --   -0.46031  -0.45547  -0.45441  -0.45119  -0.44911
 Alpha  occ. eigenvalues --   -0.44792  -0.44313  -0.44219  -0.43904  -0.43384
 Alpha  occ. eigenvalues --   -0.43237  -0.42752  -0.42559  -0.42392  -0.42072
 Alpha  occ. eigenvalues --   -0.41841  -0.41666  -0.41175  -0.41143  -0.40995
 Alpha  occ. eigenvalues --   -0.40752  -0.40389  -0.39885  -0.39626  -0.39563
 Alpha  occ. eigenvalues --   -0.39334  -0.39085  -0.39018  -0.37697  -0.37686
 Alpha  occ. eigenvalues --   -0.37585  -0.36965  -0.36211  -0.35707  -0.35254
 Alpha  occ. eigenvalues --   -0.35018  -0.34470  -0.34087  -0.32570  -0.32029
 Alpha  occ. eigenvalues --   -0.31999  -0.30049  -0.28659  -0.26482  -0.23046
 Alpha  occ. eigenvalues --   -0.19313
 Alpha virt. eigenvalues --   -0.06096  -0.01714   0.01997   0.05359   0.07574
 Alpha virt. eigenvalues --    0.09342   0.10296   0.10949   0.11714   0.11814
 Alpha virt. eigenvalues --    0.12311   0.12662   0.12771   0.13058   0.13850

 Mulliken charges:
               1
     1  O   -0.546159
     2  O   -0.547043
     3  C   -0.042580
     4  C   -0.034044
     5  C   -0.202760
     6  C   -0.174204
     7  C    0.181041
     8  C    0.125336
     9  C    0.062249
    10  C    0.077200
    11  C   -0.224492
    12  C   -0.222682
    13  C    0.076166
    14  C    0.032859
    15  C   -0.273943
    16  C   -0.293494
    17  C   -0.311351
    18  C   -0.299876
    19  C   -0.110471
    20  C   -0.129342
    21  C   -0.375372
    22  C   -0.342579
    23  C   -0.117154
    24  C   -0.103587
    25  C    0.056146
    26  C    0.095601
    27  C   -0.356100
    28  C   -0.353006
    29  C   -0.116071
    30  C   -0.127973
    31  C   -0.072467
    32  C   -0.083227
    33  C   -0.104775
    34  C   -0.113177
    35  C    0.101741
    36  C    0.119988
    37  C   -0.363080
    38  C   -0.374022
    39  C   -0.145433
    40  C   -0.144539
    41  C   -0.071317
    42  C   -0.060745
    43  H    0.079366
    44  H    0.074895
    45  H    0.081749
    46  H    0.096330
    47  H    0.083029
    48  H    0.069782
    49  H    0.116368
    50  H    0.102752
    51  H    0.120303
    52  H    0.121605
    53  H    0.104177
    54  H    0.111528
    55  H    0.065269
    56  H    0.108607
    57  H    0.114277
    58  H    0.087117
    59  H    0.108500
    60  H    0.111939
    61  H    0.103284
    62  H    0.110734
    63  H    0.079590
    64  H    0.122355
    65  H    0.097903
    66  H    0.083638
    67  H    0.114316
    68  H    0.094735
    69  H    0.120592
    70  H    0.112603
    71  H    0.119804
    72  H    0.062313
    73  H    0.297939
    74  H    0.292568
    75  H    0.094622
    76  H    0.080883
    77  H    0.099102
    78  H    0.093168
    79  H    0.145030
    80  H    0.105044
    81  H    0.121857
    82  H    0.115221
    83  H    0.090057
    84  H    0.088646
    85  H    0.082613
    86  H    0.064878
    87  H    0.070213
    88  H    0.083166
    89  H    0.126544
    90  H    0.109880
    91  H    0.089565
    92  H    0.108612
    93  H    0.133326
    94  H    0.109170
    95  H    0.053268
    96  H    0.101148
    97  H    0.083805
    98  H    0.088954
 Sum of Mulliken charges =  -0.00000

 Dipole moment (field-independent basis, Debye):
    X=             -0.0847    Y=             -2.4876    Z=              1.2568  Tot=              2.7883
 Quadrupole moment (field-independent basis, Debye-Ang):
   XX=           -303.8625   YY=           -244.1003   ZZ=           -256.8837
   XY=              9.9556   XZ=              1.1635   YZ=             -1.0934

 Normal termination of Gaussian 16 at Sun Jul 14 20:07:11 2019.
