 Gaussian 16, Revision A.03,
 Gaussian 16:  ES64L-G16RevA.03 25-Dec-2016

 -------------------------------------
 # td=(NStates=1) CAM-B3LYP/6-31G(d,p)
 -------------------------------------

 --
 TD
 --
 Symbolic Z-matrix:
 Charge =  0 Multiplicity = 1

                         Standard orientation:
 ---------------------------------------------------------------------
 Center     Atomic      Atomic             Coordinates (Angstroms)
 Number     Number       Type             X           Y           Z
 ---------------------------------------------------------------------
      1          8           0       14.811221   -2.062534   -0.348850
      2          8           0      -14.650765    2.062789    1.239007
      3          6           0       11.301502   -1.383175    1.028334
      4          6           0      -12.482706   -1.051676    0.528483
      5          6           0       12.850883   -1.674709    1.083586
      6          6           0      -13.811040   -0.085624    0.698939
      7          6           0       13.482270   -1.747109   -0.356655
      8          6           0      -13.468952    1.312367    1.077289
      9          6           0       11.021972   -0.296732   -0.026093
     10          6           0      -11.394510   -0.227641   -0.262757
     11          6           0       13.414392   -0.345549   -0.968751
     12          6           0      -12.676099    1.915129   -0.202742
     13          6           0       11.967170    0.216353   -0.796145
     14          6           0      -11.466746    1.061046   -0.577257
     15          6           0       10.889031   -0.967786    2.473084
     16          6           0       10.597410   -2.694494    0.496412
     17          6           0      -12.027167   -1.585657    1.847038
     18          6           0      -13.008384   -2.211945   -0.440283
     19          6           0        9.658854    0.242215    0.048220
     20          6           0      -10.078799   -0.964054   -0.419991
     21          6           0       11.807360    1.227980   -1.949525
     22          6           0      -10.599079    1.730338   -1.561662
     23          6           0        9.341742    1.595946   -0.028357
     24          6           0       -8.879883   -0.419998   -0.332789
     25          6           0        8.022238    2.174881    0.157076
     26          6           0       -7.674697   -1.189377   -0.579247
     27          6           0        8.015714    3.738151    0.349130
     28          6           0       -7.727629   -2.634375   -1.059338
     29          6           0        6.876872    1.454770   -0.021527
     30          6           0       -6.446732   -0.602280   -0.419609
     31          6           0        5.584800    1.878275    0.172859
     32          6           0       -5.116440   -1.104319   -0.597884
     33          6           0        4.486510    1.034765    0.199229
     34          6           0       -4.000885   -0.327324   -0.438809
     35          6           0        3.145081    1.528617    0.248086
     36          6           0       -2.649116   -0.795148   -0.420526
     37          6           0        2.808344    2.978366    0.522125
     38          6           0       -2.449447   -2.226893   -0.609947
     39          6           0        2.091806    0.624977   -0.059123
     40          6           0       -1.626983    0.105895   -0.143146
     41          6           0        0.712967    0.780743    0.041564
     42          6           0       -0.206284   -0.110579   -0.215399
     43          1           0       13.401942   -1.013537    1.771618
     44          1           0       13.035258   -2.704002    1.497550
     45          1           0      -14.554586   -0.454500    1.345139
     46          1           0      -14.180420   -0.049791   -0.375294
     47          1           0       13.003265   -2.452198   -1.010673
     48          1           0      -13.060553    1.479388    2.044596
     49          1           0       14.125573    0.221734   -0.374609
     50          1           0       13.492752   -0.422117   -2.096505
     51          1           0      -13.265460    2.169745   -1.036197
     52          1           0      -12.310949    2.995482    0.114672
     53          1           0       11.156716   -1.841848    3.177780
     54          1           0        9.727757   -0.969282    2.584510
     55          1           0       11.434721   -0.050864    2.693746
     56          1           0       10.743488   -2.889288   -0.510358
     57          1           0       10.767871   -3.712355    1.086383
     58          1           0        9.544841   -2.341163    0.535403
     59          1           0      -11.632288   -0.730423    2.388032
     60          1           0      -11.056250   -2.461959    1.625882
     61          1           0      -12.812815   -2.260263    2.352834
     62          1           0      -13.903259   -2.538467    0.252367
     63          1           0      -12.354872   -3.127862   -0.450835
     64          1           0      -13.336926   -1.694108   -1.491568
     65          1           0        8.988250   -0.490373    0.484269
     66          1           0      -10.046840   -2.047604   -0.654933
     67          1           0       10.724299    1.515118   -2.175121
     68          1           0       12.331697    2.337319   -1.654628
     69          1           0       12.293241    0.783154   -2.852470
     70          1           0      -11.156285    2.541082   -2.170613
     71          1           0       -9.908185    1.099006   -2.216600
     72          1           0       -9.767384    2.350591   -1.107945
     73          1           0       14.749797   -2.825581    0.084686
     74          1           0      -15.267363    1.487522    1.758908
     75          1           0       10.019851    2.362134   -0.281499
     76          1           0       -8.577596    0.592186    0.134036
     77          1           0        9.072996    4.214283    0.093628
     78          1           0        7.386892    4.209927   -0.173571
     79          1           0        7.692058    4.007999    1.437049
     80          1           0       -8.431981   -3.137437   -0.256460
     81          1           0       -8.254243   -2.715244   -2.138229
     82          1           0       -6.909899   -3.162794   -1.152717
     83          1           0        6.936556    0.448500   -0.371058
     84          1           0       -6.354134    0.482036   -0.118604
     85          1           0        5.566218    2.912426    0.256012
     86          1           0       -5.036819   -2.123126   -0.755178
     87          1           0        4.607973   -0.085913    0.042413
     88          1           0       -4.147151    0.483072    0.255956
     89          1           0        3.624837    3.172795    1.180348
     90          1           0        1.822219    3.234576    0.735032
     91          1           0        2.868969    3.629359   -0.444093
     92          1           0       -3.031943   -2.759060    0.117967
     93          1           0       -2.741720   -2.647083   -1.500952
     94          1           0       -1.375657   -2.489473   -0.329804
     95          1           0        2.453377   -0.229349   -0.307438
     96          1           0       -1.661061    1.163435    0.137275
     97          1           0        0.561350    1.818383    0.314200
     98          1           0        0.006200   -1.012460   -0.518953
 ---------------------------------------------------------------------

 SCF Done:  E(RCAM-B3LYP) =  -1706.99768417     A.U. after   14 cycles

 Excitation energies and oscillator strengths:

 Excited State   1:      Singlet-A      2.3650 eV  524.26 nm  f=3.7536  <S**2>=0.000
     155 ->158         0.17076
     156 ->157         0.68337
 This state for optimization and/or second-order correction.
 Total Energy, E(TD-HF/TD-DFT) =  -1706.91077368
 Copying the excited state density for this state as the 1-particle RhoCI density.

 The electronic state is 1-A.
 Alpha  occ. eigenvalues --  -19.20430 -19.20324 -10.29992 -10.29607 -10.28522
 Alpha  occ. eigenvalues --  -10.28333 -10.27545 -10.27532 -10.27369 -10.27303
 Alpha  occ. eigenvalues --  -10.27201 -10.27195 -10.27134 -10.27069 -10.26634
 Alpha  occ. eigenvalues --  -10.26398 -10.26389 -10.26375 -10.26375 -10.26274
 Alpha  occ. eigenvalues --  -10.26270 -10.26106 -10.26091 -10.26086 -10.26038
 Alpha  occ. eigenvalues --  -10.25842 -10.25836 -10.25782 -10.25720 -10.25690
 Alpha  occ. eigenvalues --  -10.25606 -10.25602 -10.25571 -10.25491 -10.25456
 Alpha  occ. eigenvalues --  -10.25285 -10.25243 -10.25118 -10.24843 -10.24800
 Alpha  occ. eigenvalues --  -10.24263 -10.24068  -1.13828  -1.09190  -0.93256
 Alpha  occ. eigenvalues --   -0.92769  -0.92443  -0.91747  -0.90652  -0.89849
 Alpha  occ. eigenvalues --   -0.87856  -0.86585  -0.86164  -0.85413  -0.84585
 Alpha  occ. eigenvalues --   -0.82859  -0.82127  -0.79813  -0.79294  -0.79035
 Alpha  occ. eigenvalues --   -0.76956  -0.76466  -0.76408  -0.75915  -0.75482
 Alpha  occ. eigenvalues --   -0.75108  -0.74522  -0.74368  -0.73737  -0.71064
 Alpha  occ. eigenvalues --   -0.69228  -0.67445  -0.66330  -0.65570  -0.64152
 Alpha  occ. eigenvalues --   -0.63479  -0.63386  -0.62442  -0.61375  -0.60718
 Alpha  occ. eigenvalues --   -0.59692  -0.59442  -0.58380  -0.57768  -0.56641
 Alpha  occ. eigenvalues --   -0.55984  -0.55087  -0.54735  -0.54622  -0.53764
 Alpha  occ. eigenvalues --   -0.53200  -0.53082  -0.52282  -0.51664  -0.51038
 Alpha  occ. eigenvalues --   -0.50543  -0.50153  -0.50102  -0.49762  -0.49604
 Alpha  occ. eigenvalues --   -0.49265  -0.48782  -0.48519  -0.48241  -0.47852
 Alpha  occ. eigenvalues --   -0.47628  -0.47259  -0.47018  -0.46829  -0.46615
 Alpha  occ. eigenvalues --   -0.46236  -0.45600  -0.45211  -0.45073  -0.44673
 Alpha  occ. eigenvalues --   -0.44513  -0.44083  -0.44006  -0.43648  -0.43641
 Alpha  occ. eigenvalues --   -0.43517  -0.43134  -0.42915  -0.42802  -0.42568
 Alpha  occ. eigenvalues --   -0.42330  -0.42061  -0.41729  -0.41014  -0.40658
 Alpha  occ. eigenvalues --   -0.40257  -0.40184  -0.40094  -0.39728  -0.39668
 Alpha  occ. eigenvalues --   -0.39221  -0.38841  -0.38628  -0.38481  -0.38405
 Alpha  occ. eigenvalues --   -0.38102  -0.37427  -0.36419  -0.35863  -0.35608
 Alpha  occ. eigenvalues --   -0.34478  -0.34171  -0.34073  -0.32391  -0.32047
 Alpha  occ. eigenvalues --   -0.31762  -0.30324  -0.28556  -0.26457  -0.23449
 Alpha  occ. eigenvalues --   -0.19803
 Alpha virt. eigenvalues --   -0.05228  -0.01247   0.02555   0.05769   0.08184
 Alpha virt. eigenvalues --    0.09804   0.10545   0.11889   0.12004   0.12301
 Alpha virt. eigenvalues --    0.12645   0.13014   0.13316   0.14165   0.14268

 Mulliken charges:
               1
     1  O   -0.508805
     2  O   -0.570295
     3  C   -0.025300
     4  C   -0.017632
     5  C   -0.204521
     6  C   -0.203064
     7  C    0.141212
     8  C    0.188863
     9  C    0.094169
    10  C    0.064134
    11  C   -0.202466
    12  C   -0.246455
    13  C    0.007182
    14  C    0.077706
    15  C   -0.293991
    16  C   -0.302843
    17  C   -0.270186
    18  C   -0.286410
    19  C   -0.111101
    20  C   -0.152227
    21  C   -0.343264
    22  C   -0.373958
    23  C   -0.094253
    24  C   -0.064194
    25  C    0.059732
    26  C    0.108172
    27  C   -0.368684
    28  C   -0.350382
    29  C   -0.103719
    30  C   -0.150412
    31  C   -0.071079
    32  C   -0.068739
    33  C   -0.134283
    34  C   -0.126616
    35  C    0.090350
    36  C    0.087938
    37  C   -0.359575
    38  C   -0.378749
    39  C   -0.104820
    40  C   -0.115913
    41  C   -0.060151
    42  C   -0.051915
    43  H    0.099197
    44  H    0.067765
    45  H    0.074165
    46  H    0.105791
    47  H    0.076921
    48  H    0.088852
    49  H    0.124537
    50  H    0.102766
    51  H    0.130394
    52  H    0.091160
    53  H    0.096047
    54  H    0.092706
    55  H    0.120457
    56  H    0.122179
    57  H    0.088316
    58  H    0.091582
    59  H    0.120741
    60  H    0.052911
    61  H    0.098809
    62  H    0.086226
    63  H    0.102296
    64  H    0.101040
    65  H    0.087121
    66  H    0.084544
    67  H    0.108637
    68  H    0.082455
    69  H    0.108283
    70  H    0.097358
    71  H    0.121722
    72  H    0.107964
    73  H    0.284402
    74  H    0.297836
    75  H    0.088789
    76  H    0.092203
    77  H    0.097204
    78  H    0.138977
    79  H    0.110304
    80  H    0.101234
    81  H    0.103170
    82  H    0.116065
    83  H    0.077995
    84  H    0.065028
    85  H    0.080656
    86  H    0.071350
    87  H    0.092991
    88  H    0.095286
    89  H    0.120572
    90  H    0.122724
    91  H    0.108688
    92  H    0.127022
    93  H    0.132860
    94  H    0.101664
    95  H    0.043475
    96  H    0.074892
    97  H    0.060479
    98  H    0.057736
 Sum of Mulliken charges =  -0.00000

 Dipole moment (field-independent basis, Debye):
    X=             -0.0046    Y=             -2.1738    Z=              1.2192  Tot=              2.4924
 Quadrupole moment (field-independent basis, Debye-Ang):
   XX=           -278.4975   YY=           -244.0870   ZZ=           -262.1745
   XY=             17.3225   XZ=             -1.4601   YZ=             -1.1378

 Normal termination of Gaussian 16 at Tue Jul  9 15:27:42 2019.
