 Gaussian 16, Revision A.03,
 Gaussian 16:  ES64L-G16RevA.03 25-Dec-2016

 -------------------------------------
 # td=(NStates=1) CAM-B3LYP/6-31G(d,p)
 -------------------------------------

 --
 TD
 --
 Symbolic Z-matrix:
 Charge =  0 Multiplicity = 1

                         Standard orientation:
 ---------------------------------------------------------------------
 Center     Atomic      Atomic             Coordinates (Angstroms)
 Number     Number       Type             X           Y           Z
 ---------------------------------------------------------------------
      1          8           0       14.585515   -2.354932   -0.276046
      2          8           0      -14.602197    1.909602    0.898931
      3          6           0       11.087899   -1.448231    0.994377
      4          6           0      -12.293847   -1.058674    0.702263
      5          6           0       12.619239   -1.851182    1.028536
      6          6           0      -13.603954   -0.218080    0.797199
      7          6           0       13.133305   -2.044736   -0.288671
      8          6           0      -13.409641    1.250284    0.952663
      9          6           0       11.008552   -0.273593    0.116201
     10          6           0      -11.199995   -0.293754   -0.228049
     11          6           0       13.113202   -0.665597   -0.971918
     12          6           0      -12.586976    1.768359   -0.190414
     13          6           0       11.788965   -0.006220   -0.925852
     14          6           0      -11.435524    0.954271   -0.737989
     15          6           0       10.620132   -1.016335    2.442422
     16          6           0       10.242886   -2.670218    0.567027
     17          6           0      -11.702122   -1.195503    2.035377
     18          6           0      -12.675258   -2.452086    0.013843
     19          6           0        9.625592    0.423878    0.239797
     20          6           0       -9.994325   -0.988068   -0.562406
     21          6           0       11.609743    0.955326   -2.037664
     22          6           0      -10.580724    1.623311   -1.758449
     23          6           0        9.385128    1.776639    0.196773
     24          6           0       -8.703534   -0.489247   -0.353294
     25          6           0        7.992809    2.408393    0.235170
     26          6           0       -7.475500   -1.151162   -0.656670
     27          6           0        7.897419    3.980675    0.337968
     28          6           0       -7.618016   -2.603590   -0.977839
     29          6           0        6.852131    1.673676    0.087427
     30          6           0       -6.331721   -0.521816   -0.427327
     31          6           0        5.520503    2.257778    0.084174
     32          6           0       -5.098208   -1.053117   -0.630933
     33          6           0        4.475839    1.427817   -0.098457
     34          6           0       -3.960073   -0.434082   -0.223452
     35          6           0        3.073004    1.910573    0.152533
     36          6           0       -2.617832   -0.843631   -0.440172
     37          6           0        2.823422    3.235977    0.519197
     38          6           0       -2.224680   -2.315876   -0.825610
     39          6           0        2.152592    0.797682   -0.138564
     40          6           0       -1.485267    0.097098   -0.096965
     41          6           0        0.708712    0.920989    0.056963
     42          6           0       -0.205274   -0.113994   -0.067047
     43          1           0       13.039423   -1.020115    1.425214
     44          1           0       12.916362   -2.607182    1.664600
     45          1           0      -14.348010   -0.542124    1.552575
     46          1           0      -14.025598   -0.343669   -0.101682
     47          1           0       12.668785   -2.807176   -0.933978
     48          1           0      -12.833763    1.443041    1.945420
     49          1           0       13.904899   -0.002313   -0.730570
     50          1           0       13.329633   -0.905039   -2.091974
     51          1           0      -13.290460    1.989140   -1.125722
     52          1           0      -12.207508    2.817424   -0.078569
     53          1           0       10.836770   -2.011623    2.987658
     54          1           0        9.464638   -0.812948    2.578114
     55          1           0       11.089365   -0.219178    2.824206
     56          1           0       10.577622   -3.073590   -0.260970
     57          1           0       10.454853   -3.499739    1.105304
     58          1           0        9.163671   -2.517913    0.742238
     59          1           0      -11.565401   -0.233705    2.353095
     60          1           0      -10.827238   -1.688371    2.020823
     61          1           0      -12.419929   -1.791651    2.730232
     62          1           0      -13.402843   -2.970727    0.906359
     63          1           0      -11.906177   -3.179581   -0.166633
     64          1           0      -13.149850   -2.405047   -1.035553
     65          1           0        8.850850   -0.271895    0.378436
     66          1           0       -9.972513   -2.238031   -0.841098
     67          1           0       10.547224    1.213355   -2.100891
     68          1           0       12.008178    1.853896   -1.878561
     69          1           0       12.297398    0.534387   -3.004629
     70          1           0      -11.146410    2.340225   -2.595462
     71          1           0       -9.973605    0.919275   -2.355725
     72          1           0       -9.852485    2.214308   -1.316690
     73          1           0       14.762596   -3.389192   -0.332876
     74          1           0      -15.017087    1.671697    1.814891
     75          1           0       10.281147    2.708296   -0.155558
     76          1           0       -8.700231    0.493719    0.097595
     77          1           0        9.036306    4.338973    0.350810
     78          1           0        7.374471    4.344365   -0.347377
     79          1           0        7.371462    4.057492    1.330151
     80          1           0       -7.703333   -3.429114   -0.002686
     81          1           0       -8.631558   -2.878728   -1.556732
     82          1           0       -6.803586   -3.183751   -1.610884
     83          1           0        6.925947    0.707530   -0.132076
     84          1           0       -6.652529    0.550381   -0.159107
     85          1           0        5.563795    3.257503    0.474967
     86          1           0       -4.956038   -2.128073   -0.933179
     87          1           0        4.810590    0.325721   -0.456988
     88          1           0       -3.974848    0.686858    0.205191
     89          1           0        3.546492    3.741734    1.234547
     90          1           0        1.633233    3.266020    0.901983
     91          1           0        3.049461    3.901993   -0.400923
     92          1           0       -2.740113   -3.150032   -0.312436
     93          1           0       -2.682633   -2.399876   -1.938671
     94          1           0       -1.174759   -2.381227   -0.828798
     95          1           0        2.737461   -0.070826   -0.444458
     96          1           0       -1.792238    1.125499   -0.057323
     97          1           0        0.283585    1.929913    0.132969
     98          1           0        0.186372   -1.241260    0.015323
 ---------------------------------------------------------------------

 SCF Done:  E(RCAM-B3LYP) =  -1706.86847204     A.U. after   15 cycles

 Excitation energies and oscillator strengths:

 Excited State   1:      Singlet-A      2.0636 eV  600.82 nm  f=3.4842  <S**2>=0.000
     155 ->158         0.12614
     156 ->157         0.69947
     156 <-157        -0.10828
 This state for optimization and/or second-order correction.
 Total Energy, E(TD-HF/TD-DFT) =  -1706.79263683
 Copying the excited state density for this state as the 1-particle RhoCI density.

 The electronic state is 1-A.
 Alpha  occ. eigenvalues --  -19.22331 -19.20850 -10.30435 -10.30050 -10.28977
 Alpha  occ. eigenvalues --  -10.28735 -10.28636 -10.28407 -10.28367 -10.27875
 Alpha  occ. eigenvalues --  -10.27611 -10.27605 -10.27604 -10.27485 -10.27419
 Alpha  occ. eigenvalues --  -10.27108 -10.26967 -10.26697 -10.26670 -10.26569
 Alpha  occ. eigenvalues --  -10.26552 -10.26541 -10.26389 -10.26132 -10.26038
 Alpha  occ. eigenvalues --  -10.25953 -10.25778 -10.25766 -10.25682 -10.25673
 Alpha  occ. eigenvalues --  -10.25637 -10.25613 -10.25371 -10.25291 -10.24903
 Alpha  occ. eigenvalues --  -10.24884 -10.24401 -10.24287 -10.23377 -10.23200
 Alpha  occ. eigenvalues --  -10.22808 -10.22719  -1.11339  -1.05800  -0.94283
 Alpha  occ. eigenvalues --   -0.93094  -0.92194  -0.91807  -0.90661  -0.89097
 Alpha  occ. eigenvalues --   -0.87645  -0.87283  -0.86747  -0.85312  -0.84486
 Alpha  occ. eigenvalues --   -0.83094  -0.82082  -0.80610  -0.79530  -0.78501
 Alpha  occ. eigenvalues --   -0.78010  -0.76523  -0.76500  -0.75828  -0.75733
 Alpha  occ. eigenvalues --   -0.75472  -0.75086  -0.74421  -0.72919  -0.70670
 Alpha  occ. eigenvalues --   -0.68228  -0.67105  -0.65507  -0.65195  -0.64058
 Alpha  occ. eigenvalues --   -0.63089  -0.62427  -0.61256  -0.60653  -0.59340
 Alpha  occ. eigenvalues --   -0.59094  -0.58837  -0.58294  -0.57619  -0.56376
 Alpha  occ. eigenvalues --   -0.55437  -0.55089  -0.54816  -0.53718  -0.53612
 Alpha  occ. eigenvalues --   -0.53018  -0.52590  -0.51976  -0.51392  -0.51183
 Alpha  occ. eigenvalues --   -0.50709  -0.50557  -0.50382  -0.50106  -0.49639
 Alpha  occ. eigenvalues --   -0.49211  -0.48929  -0.48512  -0.48295  -0.48050
 Alpha  occ. eigenvalues --   -0.47668  -0.47346  -0.46631  -0.46370  -0.45863
 Alpha  occ. eigenvalues --   -0.45661  -0.45378  -0.45096  -0.44856  -0.44435
 Alpha  occ. eigenvalues --   -0.44222  -0.44032  -0.43425  -0.43319  -0.43213
 Alpha  occ. eigenvalues --   -0.43068  -0.42759  -0.42451  -0.42345  -0.42003
 Alpha  occ. eigenvalues --   -0.41930  -0.41076  -0.40849  -0.40728  -0.40615
 Alpha  occ. eigenvalues --   -0.40325  -0.40268  -0.40162  -0.39775  -0.39146
 Alpha  occ. eigenvalues --   -0.38960  -0.38854  -0.38642  -0.37901  -0.37820
 Alpha  occ. eigenvalues --   -0.37609  -0.37489  -0.36733  -0.36323  -0.36264
 Alpha  occ. eigenvalues --   -0.34943  -0.34548  -0.33924  -0.32099  -0.31948
 Alpha  occ. eigenvalues --   -0.31539  -0.29247  -0.28072  -0.25785  -0.23784
 Alpha  occ. eigenvalues --   -0.18823
 Alpha virt. eigenvalues --   -0.06339  -0.00332   0.02282   0.05524   0.07466
 Alpha virt. eigenvalues --    0.08750   0.09794   0.10637   0.10804   0.11219
 Alpha virt. eigenvalues --    0.11341   0.11718   0.11985   0.12934   0.13108

 Mulliken charges:
               1
     1  O   -0.587247
     2  O   -0.535420
     3  C   -0.050780
     4  C   -0.016226
     5  C   -0.162190
     6  C   -0.160624
     7  C    0.150788
     8  C    0.167157
     9  C    0.059801
    10  C    0.013932
    11  C   -0.222559
    12  C   -0.236714
    13  C    0.077716
    14  C    0.092693
    15  C   -0.293224
    16  C   -0.291980
    17  C   -0.267979
    18  C   -0.297417
    19  C   -0.132597
    20  C   -0.145720
    21  C   -0.352718
    22  C   -0.370218
    23  C   -0.095563
    24  C   -0.113042
    25  C    0.021976
    26  C    0.162211
    27  C   -0.347628
    28  C   -0.371686
    29  C   -0.082114
    30  C   -0.093636
    31  C   -0.075062
    32  C   -0.110919
    33  C   -0.132833
    34  C   -0.095307
    35  C    0.131186
    36  C    0.064557
    37  C   -0.388262
    38  C   -0.356318
    39  C   -0.110002
    40  C   -0.121655
    41  C   -0.128404
    42  C   -0.046483
    43  H    0.115752
    44  H    0.081291
    45  H    0.069094
    46  H    0.112471
    47  H    0.085336
    48  H    0.057262
    49  H    0.133206
    50  H    0.074698
    51  H    0.101695
    52  H    0.106334
    53  H    0.084907
    54  H    0.089646
    55  H    0.118679
    56  H    0.102937
    57  H    0.107438
    58  H    0.101524
    59  H    0.106261
    60  H    0.114060
    61  H    0.073940
    62  H    0.064380
    63  H    0.108863
    64  H    0.102595
    65  H    0.097296
    66  H    0.058821
    67  H    0.120536
    68  H    0.133362
    69  H    0.079598
    70  H    0.080976
    71  H    0.125884
    72  H    0.128342
    73  H    0.299315
    74  H    0.309105
    75  H    0.056938
    76  H    0.085023
    77  H    0.093648
    78  H    0.138656
    79  H    0.123323
    80  H    0.089136
    81  H    0.103650
    82  H    0.100004
    83  H    0.061421
    84  H    0.081139
    85  H    0.075306
    86  H    0.093816
    87  H    0.090531
    88  H    0.071628
    89  H    0.128657
    90  H    0.099100
    91  H    0.131358
    92  H    0.122918
    93  H    0.100513
    94  H    0.115903
    95  H    0.092342
    96  H    0.077730
    97  H    0.090041
    98  H    0.082121
 Sum of Mulliken charges =  -0.00000

 Dipole moment (field-independent basis, Debye):
    X=              0.7677    Y=             -1.3236    Z=              1.0073  Tot=              1.8319
 Quadrupole moment (field-independent basis, Debye-Ang):
   XX=           -288.7579   YY=           -237.7230   ZZ=           -263.8074
   XY=             -4.2794   XZ=            -19.5440   YZ=              4.4739

 Normal termination of Gaussian 16 at Wed Jul 10 06:42:55 2019.
