 Gaussian 16, Revision A.03,
 Gaussian 16:  ES64L-G16RevA.03 25-Dec-2016

 -------------------------------------
 # td=(NStates=1) CAM-B3LYP/6-31G(d,p)
 -------------------------------------

 --
 TD
 --
 Symbolic Z-matrix:
 Charge =  0 Multiplicity = 1

                         Standard orientation:
 ---------------------------------------------------------------------
 Center     Atomic      Atomic             Coordinates (Angstroms)
 Number     Number       Type             X           Y           Z
 ---------------------------------------------------------------------
      1          8           0       14.684228   -2.390016   -0.131593
      2          8           0      -14.577245    2.022204    1.163410
      3          6           0       11.079450   -1.565849    1.043171
      4          6           0      -12.310228   -1.067977    0.757656
      5          6           0       12.504289   -2.019331    1.130296
      6          6           0      -13.674465   -0.309232    0.788990
      7          6           0       13.255093   -1.932680   -0.205483
      8          6           0      -13.424792    1.254947    1.124637
      9          6           0       10.982075   -0.328780    0.174420
     10          6           0      -11.227290   -0.276353   -0.065143
     11          6           0       13.253396   -0.610953   -0.791710
     12          6           0      -12.711520    1.760962   -0.047988
     13          6           0       11.940889    0.138815   -0.785253
     14          6           0      -11.482775    0.974208   -0.471419
     15          6           0       10.622463   -1.235974    2.467160
     16          6           0       10.176925   -2.738813    0.602965
     17          6           0      -11.771651   -1.438845    2.101082
     18          6           0      -12.619384   -2.350826   -0.035747
     19          6           0        9.696438    0.395064    0.206654
     20          6           0      -10.015785   -0.964102   -0.503884
     21          6           0       11.839216    1.379009   -1.598911
     22          6           0      -10.498770    1.633343   -1.399769
     23          6           0        9.341638    1.676139   -0.087721
     24          6           0       -8.800929   -0.525629   -0.308907
     25          6           0        8.078145    2.340335    0.018836
     26          6           0       -7.560805   -1.223480   -0.604785
     27          6           0        8.001211    3.802413    0.187232
     28          6           0       -7.694770   -2.655175   -1.208594
     29          6           0        6.944078    1.596754   -0.063994
     30          6           0       -6.348913   -0.598213   -0.403601
     31          6           0        5.627332    2.131884    0.175000
     32          6           0       -5.093133   -1.111237   -0.849491
     33          6           0        4.437170    1.352428   -0.064327
     34          6           0       -4.001149   -0.321903   -0.521343
     35          6           0        3.052848    1.806468    0.079996
     36          6           0       -2.604411   -0.749471   -0.637160
     37          6           0        2.790947    3.190062    0.649872
     38          6           0       -2.211653   -2.084865   -1.386274
     39          6           0        2.135450    0.809046   -0.240593
     40          6           0       -1.554240    0.165599   -0.346718
     41          6           0        0.647704    1.095984   -0.119156
     42          6           0       -0.210520    0.025672   -0.476297
     43          1           0       12.932109   -1.295083    1.815313
     44          1           0       12.528243   -2.929429    1.551833
     45          1           0      -14.453777   -0.819567    1.603880
     46          1           0      -14.261231   -0.231772   -0.050609
     47          1           0       12.894310   -2.760898   -0.954252
     48          1           0      -12.927555    1.417342    2.055823
     49          1           0       14.012611    0.020059   -0.445700
     50          1           0       13.696696   -0.652759   -1.750472
     51          1           0      -13.315897    2.151744   -1.021876
     52          1           0      -12.420086    2.844256    0.214419
     53          1           0       10.738871   -1.933698    3.249102
     54          1           0        9.659618   -0.767501    2.646794
     55          1           0       11.166140   -0.220731    2.813324
     56          1           0       10.375563   -3.020537   -0.601355
     57          1           0       10.446801   -3.500318    1.145449
     58          1           0        9.169654   -2.474121    0.688482
     59          1           0      -11.690060   -0.596493    2.814692
     60          1           0      -10.931583   -2.207562    2.083870
     61          1           0      -12.494974   -2.076288    2.547399
     62          1           0      -13.485308   -2.996574    0.384680
     63          1           0      -11.728918   -3.087017   -0.244988
     64          1           0      -13.217347   -2.323374   -1.110841
     65          1           0        8.968396   -0.398214    0.370425
     66          1           0      -10.055766   -1.894691   -0.716234
     67          1           0       10.798735    1.462881   -1.932925
     68          1           0       12.088100    2.427952   -0.803309
     69          1           0       12.540026    1.596288   -2.376813
     70          1           0      -10.908389    2.162659   -2.225183
     71          1           0       -9.845486    0.875333   -2.013445
     72          1           0       -9.894368    2.435631   -0.898851
     73          1           0       14.609342   -3.375530    0.244511
     74          1           0      -15.189564    1.802430    1.869147
     75          1           0        9.968279    2.298432   -0.138961
     76          1           0       -8.673204    0.417082    0.196497
     77          1           0        9.065682    4.114692    0.322370
     78          1           0        7.465646    4.368398   -0.596666
     79          1           0        7.366687    4.026343    1.180957
     80          1           0       -8.349211   -3.232659   -0.564524
     81          1           0       -8.249225   -2.384940   -2.180032
     82          1           0       -6.694126   -3.155568   -1.331610
     83          1           0        6.961271    0.494890   -0.452576
     84          1           0       -6.442472    0.387518   -0.314004
     85          1           0        5.352277    3.107892    0.377227
     86          1           0       -4.933702   -1.924925   -1.333184
     87          1           0        4.605389    0.301897   -0.416279
     88          1           0       -4.198486    0.575370    0.052960
     89          1           0        3.445115    3.415600    1.550792
     90          1           0        1.677634    3.203400    1.009418
     91          1           0        2.903933    3.979739   -0.223961
     92          1           0       -2.455294   -3.019419   -0.799197
     93          1           0       -2.993625   -2.199339   -2.259464
     94          1           0       -1.210518   -2.305938   -1.651909
     95          1           0        2.187403   -0.128572   -0.852452
     96          1           0       -1.782117    1.230051   -0.001171
     97          1           0        0.528468    2.119135    0.444625
     98          1           0        0.255998   -0.897661   -0.927881
 ---------------------------------------------------------------------

 SCF Done:  E(RCAM-B3LYP) =  -1706.92822098     A.U. after   15 cycles

 Excitation energies and oscillator strengths:

 Excited State   1:      Singlet-A      2.2588 eV  548.89 nm  f=3.5940  <S**2>=0.000
     155 ->158        -0.16933
     156 ->157         0.68414
 This state for optimization and/or second-order correction.
 Total Energy, E(TD-HF/TD-DFT) =  -1706.84521137
 Copying the excited state density for this state as the 1-particle RhoCI density.

 The electronic state is 1-A.
 Alpha  occ. eigenvalues --  -19.21004 -19.20818 -10.30867 -10.30195 -10.28696
 Alpha  occ. eigenvalues --  -10.28440 -10.28263 -10.28258 -10.28020 -10.27965
 Alpha  occ. eigenvalues --  -10.27682 -10.27350 -10.27249 -10.27077 -10.26931
 Alpha  occ. eigenvalues --  -10.26926 -10.26815 -10.26647 -10.26594 -10.26530
 Alpha  occ. eigenvalues --  -10.26369 -10.26326 -10.26302 -10.26025 -10.26019
 Alpha  occ. eigenvalues --  -10.25793 -10.25780 -10.25705 -10.25690 -10.25649
 Alpha  occ. eigenvalues --  -10.25163 -10.25043 -10.24968 -10.24684 -10.24652
 Alpha  occ. eigenvalues --  -10.24625 -10.24544 -10.24332 -10.23988 -10.23897
 Alpha  occ. eigenvalues --  -10.23289 -10.23274  -1.10378  -1.05438  -0.94077
 Alpha  occ. eigenvalues --   -0.93332  -0.91403  -0.91207  -0.90425  -0.89272
 Alpha  occ. eigenvalues --   -0.87948  -0.87369  -0.86395  -0.85381  -0.84463
 Alpha  occ. eigenvalues --   -0.82670  -0.81569  -0.79951  -0.79442  -0.77578
 Alpha  occ. eigenvalues --   -0.77356  -0.76869  -0.76144  -0.76087  -0.75976
 Alpha  occ. eigenvalues --   -0.75328  -0.74848  -0.73879  -0.73080  -0.70464
 Alpha  occ. eigenvalues --   -0.68847  -0.67822  -0.65701  -0.65381  -0.64986
 Alpha  occ. eigenvalues --   -0.64132  -0.63552  -0.61920  -0.61337  -0.59659
 Alpha  occ. eigenvalues --   -0.59572  -0.59372  -0.57450  -0.57292  -0.56001
 Alpha  occ. eigenvalues --   -0.55933  -0.55489  -0.55046  -0.54039  -0.53556
 Alpha  occ. eigenvalues --   -0.52831  -0.52188  -0.51806  -0.51404  -0.50396
 Alpha  occ. eigenvalues --   -0.50117  -0.50068  -0.49989  -0.49737  -0.48907
 Alpha  occ. eigenvalues --   -0.48794  -0.48660  -0.48356  -0.48286  -0.47908
 Alpha  occ. eigenvalues --   -0.47536  -0.47424  -0.47135  -0.46559  -0.46109
 Alpha  occ. eigenvalues --   -0.45673  -0.45490  -0.45475  -0.45320  -0.44885
 Alpha  occ. eigenvalues --   -0.44635  -0.44411  -0.44150  -0.43963  -0.43900
 Alpha  occ. eigenvalues --   -0.43389  -0.42639  -0.42320  -0.42153  -0.41963
 Alpha  occ. eigenvalues --   -0.41701  -0.41388  -0.40952  -0.40715  -0.40455
 Alpha  occ. eigenvalues --   -0.40008  -0.39807  -0.39695  -0.39421  -0.39311
 Alpha  occ. eigenvalues --   -0.38964  -0.38633  -0.38031  -0.37865  -0.37650
 Alpha  occ. eigenvalues --   -0.37318  -0.37168  -0.37024  -0.36696  -0.35924
 Alpha  occ. eigenvalues --   -0.35713  -0.35089  -0.33991  -0.31986  -0.31338
 Alpha  occ. eigenvalues --   -0.31196  -0.29430  -0.27612  -0.25698  -0.22659
 Alpha  occ. eigenvalues --   -0.19265
 Alpha virt. eigenvalues --   -0.05228  -0.00876   0.02497   0.05217   0.07937
 Alpha virt. eigenvalues --    0.09345   0.10747   0.11273   0.11667   0.12062
 Alpha virt. eigenvalues --    0.12181   0.12766   0.13126   0.13709   0.13991

 Mulliken charges:
               1
     1  O   -0.584273
     2  O   -0.560120
     3  C   -0.032339
     4  C    0.001479
     5  C   -0.172079
     6  C   -0.193618
     7  C    0.160117
     8  C    0.175944
     9  C    0.050871
    10  C    0.072606
    11  C   -0.225202
    12  C   -0.225958
    13  C    0.071324
    14  C    0.078563
    15  C   -0.323879
    16  C   -0.271926
    17  C   -0.298332
    18  C   -0.309458
    19  C   -0.101805
    20  C   -0.121596
    21  C   -0.351696
    22  C   -0.376669
    23  C   -0.049168
    24  C   -0.063006
    25  C    0.074886
    26  C    0.071733
    27  C   -0.366322
    28  C   -0.364103
    29  C   -0.113937
    30  C   -0.127337
    31  C   -0.097428
    32  C   -0.046172
    33  C   -0.116403
    34  C   -0.119140
    35  C    0.086075
    36  C    0.080735
    37  C   -0.363613
    38  C   -0.376173
    39  C   -0.117233
    40  C   -0.116250
    41  C   -0.092897
    42  C   -0.085758
    43  H    0.111303
    44  H    0.079129
    45  H    0.047275
    46  H    0.121462
    47  H    0.073198
    48  H    0.085045
    49  H    0.131960
    50  H    0.111415
    51  H    0.108405
    52  H    0.100108
    53  H    0.110481
    54  H    0.117891
    55  H    0.082873
    56  H    0.070376
    57  H    0.110856
    58  H    0.112947
    59  H    0.106183
    60  H    0.105341
    61  H    0.105137
    62  H    0.090666
    63  H    0.089486
    64  H    0.084176
    65  H    0.072639
    66  H    0.050387
    67  H    0.138862
    68  H    0.066730
    69  H    0.118071
    70  H    0.102319
    71  H    0.113491
    72  H    0.104894
    73  H    0.300508
    74  H    0.301336
    75  H    0.024813
    76  H    0.081401
    77  H    0.102801
    78  H    0.130887
    79  H    0.107184
    80  H    0.122750
    81  H    0.121892
    82  H    0.107113
    83  H    0.082437
    84  H    0.086789
    85  H    0.074732
    86  H    0.063882
    87  H    0.076098
    88  H    0.088899
    89  H    0.130077
    90  H    0.100324
    91  H    0.127302
    92  H    0.111418
    93  H    0.107795
    94  H    0.120488
    95  H    0.095504
    96  H    0.080978
    97  H    0.082834
    98  H    0.086211
 Sum of Mulliken charges =  -0.00000

 Dipole moment (field-independent basis, Debye):
    X=             -1.2158    Y=             -1.1372    Z=              1.1805  Tot=              2.0408
 Quadrupole moment (field-independent basis, Debye-Ang):
   XX=           -278.4792   YY=           -241.1604   ZZ=           -258.0433
   XY=              8.1025   XZ=            -10.6893   YZ=              1.8528

 Normal termination of Gaussian 16 at Fri Jul 12 06:35:18 2019.
