 Gaussian 16, Revision A.03,
 Gaussian 16:  ES64L-G16RevA.03 25-Dec-2016

 -------------------------------------
 # td=(NStates=1) CAM-B3LYP/6-31G(d,p)
 -------------------------------------

 --
 TD
 --
 Symbolic Z-matrix:
 Charge =  0 Multiplicity = 1

                         Standard orientation:
 ---------------------------------------------------------------------
 Center     Atomic      Atomic             Coordinates (Angstroms)
 Number     Number       Type             X           Y           Z
 ---------------------------------------------------------------------
      1          8           0       14.833638   -2.034352   -0.301582
      2          8           0      -14.797176    1.906022    1.100058
      3          6           0       11.300111   -1.384979    1.039916
      4          6           0      -12.430535   -0.975706    0.551515
      5          6           0       12.898892   -1.668422    1.076624
      6          6           0      -13.719376   -0.261224    0.646167
      7          6           0       13.500871   -1.724592   -0.313162
      8          6           0      -13.539563    1.206707    0.981370
      9          6           0       11.007610   -0.266494    0.008886
     10          6           0      -11.322639   -0.221113   -0.301455
     11          6           0       13.319378   -0.411876   -1.083645
     12          6           0      -12.791424    1.769461   -0.155161
     13          6           0       11.896822    0.132631   -0.983017
     14          6           0      -11.572279    0.975481   -0.593047
     15          6           0       10.776911   -1.140542    2.464350
     16          6           0       10.567062   -2.640908    0.560481
     17          6           0      -11.911803   -1.242419    1.966129
     18          6           0      -12.742946   -2.336900   -0.097732
     19          6           0        9.712792    0.286945    0.152520
     20          6           0      -10.095986   -0.952811   -0.600437
     21          6           0       11.593408    1.181820   -1.988707
     22          6           0      -10.637933    1.873926   -1.381363
     23          6           0        9.282768    1.645619    0.221525
     24          6           0       -8.810529   -0.461245   -0.365483
     25          6           0        8.012000    2.215922    0.189597
     26          6           0       -7.579549   -1.270855   -0.708611
     27          6           0        7.899784    3.682344    0.429277
     28          6           0       -7.659795   -2.671975   -1.062263
     29          6           0        6.855052    1.454795    0.118154
     30          6           0       -6.335704   -0.632090   -0.553939
     31          6           0        5.610443    1.940364    0.117484
     32          6           0       -5.042020   -1.064603   -0.499780
     33          6           0        4.426060    1.150552    0.072680
     34          6           0       -3.989793   -0.273639   -0.330518
     35          6           0        3.131153    1.592748    0.171007
     36          6           0       -2.650907   -0.844155   -0.454362
     37          6           0        2.780826    3.043157    0.448806
     38          6           0       -2.284416   -2.245093   -0.830634
     39          6           0        2.120650    0.787246   -0.110313
     40          6           0       -1.631414    0.058566   -0.175409
     41          6           0        0.693855    0.918049   -0.008345
     42          6           0       -0.179898   -0.134691   -0.286371
     43          1           0       13.517343   -0.950485    1.575546
     44          1           0       13.016882   -2.694195    1.624332
     45          1           0      -14.267940   -0.651059    1.466134
     46          1           0      -14.398461   -0.192803   -0.294691
     47          1           0       12.961094   -2.605221   -0.870859
     48          1           0      -13.058226    1.356759    1.962622
     49          1           0       13.985657    0.192098   -0.411488
     50          1           0       13.776449   -0.265185   -2.160243
     51          1           0      -13.350694    2.043821   -1.060359
     52          1           0      -12.357324    2.651397    0.331938
     53          1           0       11.053721   -1.921024    3.134734
     54          1           0        9.671072   -0.859552    2.478435
     55          1           0       11.349471   -0.435207    2.787071
     56          1           0       10.993391   -3.090147   -0.301492
     57          1           0       10.796606   -3.319587    1.352492
     58          1           0        9.513641   -2.525885    0.467925
     59          1           0      -11.450029   -0.330459    2.532732
     60          1           0      -11.067847   -2.073075    1.758922
     61          1           0      -12.679282   -2.007399    2.437471
     62          1           0      -13.565725   -2.678034    0.608104
     63          1           0      -11.933593   -2.843687    0.073463
     64          1           0      -12.921232   -2.198099   -1.119748
     65          1           0        8.859677   -0.519303    0.421203
     66          1           0      -10.291955   -2.051457   -1.061525
     67          1           0       10.801473    1.577608   -2.092267
     68          1           0       12.030575    2.246684   -1.742055
     69          1           0       12.033579    0.811665   -2.971039
     70          1           0      -11.125069    2.419984   -2.222007
     71          1           0       -9.820810    1.452620   -1.918707
     72          1           0      -10.374008    2.767138   -0.618531
     73          1           0       14.876903   -2.835094    0.232102
     74          1           0      -15.465868    1.401341    1.684085
     75          1           0       10.139452    2.357118    0.003003
     76          1           0       -8.746835    0.614782    0.123063
     77          1           0        8.987670    4.071023    0.582792
     78          1           0        7.359377    4.085897   -0.268150
     79          1           0        7.523992    4.003199    1.366774
     80          1           0       -8.201951   -3.182061   -0.223130
     81          1           0       -8.522253   -2.748127   -1.878409
     82          1           0       -6.812619   -3.111133   -1.122768
     83          1           0        6.840171    0.486224   -0.227559
     84          1           0       -6.281991    0.443465   -0.217929
     85          1           0        5.492683    2.885499    0.369961
     86          1           0       -4.822437   -2.216575   -0.712744
     87          1           0        4.691933    0.079875   -0.304577
     88          1           0       -3.936390    0.787762    0.069483
     89          1           0        3.535179    3.359419    1.260786
     90          1           0        1.746485    3.097857    0.677949
     91          1           0        3.034095    3.762948   -0.411528
     92          1           0       -2.183546   -3.086571    0.170454
     93          1           0       -3.493788   -2.352382   -1.563939
     94          1           0       -1.232155   -2.322928   -1.601912
     95          1           0        2.336976   -0.220602   -0.224704
     96          1           0       -2.095421    0.982307    0.049234
     97          1           0        0.239167    1.945770    0.203494
     98          1           0        0.253412   -1.110308   -0.588165
 ---------------------------------------------------------------------

 SCF Done:  E(RCAM-B3LYP) =  -1706.86987353     A.U. after   15 cycles

 Excitation energies and oscillator strengths:

 Excited State   1:      Singlet-A      2.1492 eV  576.88 nm  f=3.5824  <S**2>=0.000
     155 ->158        -0.16175
     156 ->157         0.68781
 This state for optimization and/or second-order correction.
 Total Energy, E(TD-HF/TD-DFT) =  -1706.79089055
 Copying the excited state density for this state as the 1-particle RhoCI density.

 The electronic state is 1-A.
 Alpha  occ. eigenvalues --  -19.21692 -19.20624 -10.31365 -10.31084 -10.29420
 Alpha  occ. eigenvalues --  -10.28124 -10.28099 -10.28080 -10.27716 -10.27676
 Alpha  occ. eigenvalues --  -10.27601 -10.27574 -10.27474 -10.27226 -10.27082
 Alpha  occ. eigenvalues --  -10.27000 -10.26895 -10.26711 -10.26647 -10.26592
 Alpha  occ. eigenvalues --  -10.26548 -10.26508 -10.26372 -10.26356 -10.26318
 Alpha  occ. eigenvalues --  -10.26093 -10.25991 -10.25822 -10.25326 -10.25313
 Alpha  occ. eigenvalues --  -10.25268 -10.24812 -10.24662 -10.24576 -10.24543
 Alpha  occ. eigenvalues --  -10.24409 -10.24275 -10.24261 -10.24119 -10.23387
 Alpha  occ. eigenvalues --  -10.23349 -10.23242  -1.12102  -1.07138  -0.94500
 Alpha  occ. eigenvalues --   -0.93424  -0.92818  -0.92284  -0.91197  -0.89943
 Alpha  occ. eigenvalues --   -0.88056  -0.87518  -0.87050  -0.85808  -0.84989
 Alpha  occ. eigenvalues --   -0.84018  -0.82693  -0.80836  -0.80066  -0.77647
 Alpha  occ. eigenvalues --   -0.77397  -0.77148  -0.76730  -0.76477  -0.76039
 Alpha  occ. eigenvalues --   -0.75828  -0.74980  -0.74828  -0.73299  -0.70824
 Alpha  occ. eigenvalues --   -0.69468  -0.67526  -0.65910  -0.64905  -0.64487
 Alpha  occ. eigenvalues --   -0.63417  -0.62689  -0.61637  -0.61174  -0.59939
 Alpha  occ. eigenvalues --   -0.59396  -0.59086  -0.57770  -0.57469  -0.56896
 Alpha  occ. eigenvalues --   -0.56240  -0.55989  -0.55623  -0.54497  -0.53893
 Alpha  occ. eigenvalues --   -0.53210  -0.52809  -0.52281  -0.51938  -0.51789
 Alpha  occ. eigenvalues --   -0.51652  -0.50886  -0.50310  -0.49867  -0.49336
 Alpha  occ. eigenvalues --   -0.49009  -0.48475  -0.48103  -0.47718  -0.47556
 Alpha  occ. eigenvalues --   -0.47480  -0.47246  -0.46981  -0.46892  -0.46223
 Alpha  occ. eigenvalues --   -0.46075  -0.45965  -0.45714  -0.45571  -0.45125
 Alpha  occ. eigenvalues --   -0.44836  -0.44673  -0.44519  -0.43964  -0.43384
 Alpha  occ. eigenvalues --   -0.43227  -0.43063  -0.42831  -0.42653  -0.42451
 Alpha  occ. eigenvalues --   -0.42062  -0.41673  -0.41315  -0.40818  -0.40522
 Alpha  occ. eigenvalues --   -0.40261  -0.39993  -0.39927  -0.39605  -0.39454
 Alpha  occ. eigenvalues --   -0.39168  -0.38999  -0.38666  -0.38442  -0.38361
 Alpha  occ. eigenvalues --   -0.38052  -0.37404  -0.37002  -0.36215  -0.35636
 Alpha  occ. eigenvalues --   -0.34830  -0.34732  -0.33645  -0.32313  -0.31725
 Alpha  occ. eigenvalues --   -0.31452  -0.29958  -0.28446  -0.26693  -0.22920
 Alpha  occ. eigenvalues --   -0.19346
 Alpha virt. eigenvalues --   -0.05977  -0.01787   0.02255   0.05524   0.07734
 Alpha virt. eigenvalues --    0.09071   0.09571   0.11089   0.11672   0.11847
 Alpha virt. eigenvalues --    0.12011   0.12092   0.12600   0.12682   0.13095

 Mulliken charges:
               1
     1  O   -0.536634
     2  O   -0.588259
     3  C   -0.044375
     4  C   -0.052722
     5  C   -0.211521
     6  C   -0.176023
     7  C    0.170241
     8  C    0.172627
     9  C    0.067138
    10  C    0.104209
    11  C   -0.223621
    12  C   -0.203772
    13  C    0.073033
    14  C    0.023895
    15  C   -0.286731
    16  C   -0.287369
    17  C   -0.292605
    18  C   -0.278902
    19  C   -0.132890
    20  C   -0.151228
    21  C   -0.316602
    22  C   -0.358038
    23  C   -0.126717
    24  C   -0.096233
    25  C    0.089043
    26  C    0.093987
    27  C   -0.371149
    28  C   -0.349758
    29  C   -0.082549
    30  C   -0.129370
    31  C   -0.069798
    32  C   -0.101769
    33  C   -0.143230
    34  C   -0.095942
    35  C    0.145641
    36  C    0.128118
    37  C   -0.359765
    38  C   -0.316133
    39  C   -0.130126
    40  C   -0.120963
    41  C   -0.081004
    42  C   -0.101919
    43  H    0.108471
    44  H    0.068889
    45  H    0.073717
    46  H    0.090685
    47  H    0.052695
    48  H    0.079587
    49  H    0.119361
    50  H    0.105270
    51  H    0.126087
    52  H    0.106836
    53  H    0.098458
    54  H    0.104859
    55  H    0.113828
    56  H    0.104404
    57  H    0.094638
    58  H    0.108329
    59  H    0.112660
    60  H    0.086209
    61  H    0.088747
    62  H    0.088954
    63  H    0.101960
    64  H    0.112259
    65  H    0.072388
    66  H    0.079163
    67  H    0.111007
    68  H    0.089658
    69  H    0.098572
    70  H    0.100724
    71  H    0.124809
    72  H    0.088466
    73  H    0.304939
    74  H    0.303648
    75  H    0.068201
    76  H    0.104728
    77  H    0.094982
    78  H    0.133995
    79  H    0.131830
    80  H    0.120368
    81  H    0.110591
    82  H    0.111120
    83  H    0.071263
    84  H    0.068057
    85  H    0.059455
    86  H    0.085149
    87  H    0.073292
    88  H    0.101030
    89  H    0.105104
    90  H    0.113837
    91  H    0.115157
    92  H    0.100326
    93  H    0.054880
    94  H    0.095235
    95  H    0.070956
    96  H    0.065431
    97  H    0.082720
    98  H    0.091803
 Sum of Mulliken charges =  -0.00000

 Dipole moment (field-independent basis, Debye):
    X=              0.5364    Y=             -1.4484    Z=              1.6319  Tot=              2.2469
 Quadrupole moment (field-independent basis, Debye-Ang):
   XX=           -266.0221   YY=           -248.0748   ZZ=           -262.1334
   XY=             13.2240   XZ=              1.8714   YZ=             -2.2202

 Normal termination of Gaussian 16 at Tue Jul  9 11:39:56 2019.
