 Gaussian 16, Revision A.03,
 Gaussian 16:  ES64L-G16RevA.03 25-Dec-2016

 -------------------------------------
 # td=(NStates=1) CAM-B3LYP/6-31G(d,p)
 -------------------------------------

 --
 TD
 --
 Symbolic Z-matrix:
 Charge =  0 Multiplicity = 1

                         Standard orientation:
 ---------------------------------------------------------------------
 Center     Atomic      Atomic             Coordinates (Angstroms)
 Number     Number       Type             X           Y           Z
 ---------------------------------------------------------------------
      1          8           0       14.692104   -2.183870   -0.569592
      2          8           0      -14.822598    2.051093    0.633563
      3          6           0       11.294184   -1.490850    0.901332
      4          6           0      -12.448835   -0.839330    0.492881
      5          6           0       12.777498   -1.918351    0.926744
      6          6           0      -13.790265   -0.074685    0.456919
      7          6           0       13.375723   -1.814617   -0.555721
      8          6           0      -13.626756    1.355534    0.782738
      9          6           0       11.027508   -0.114588    0.051059
     10          6           0      -11.297930   -0.209023   -0.247850
     11          6           0       13.281302   -0.336444   -1.050910
     12          6           0      -12.783392    1.852830   -0.411614
     13          6           0       11.960185    0.340012   -0.834216
     14          6           0      -11.500940    1.086518   -0.633906
     15          6           0       10.849761   -1.289386    2.360882
     16          6           0       10.381868   -2.587488    0.314397
     17          6           0      -12.049932   -1.228257    1.982946
     18          6           0      -12.665405   -2.260754   -0.063834
     19          6           0        9.676012    0.384656    0.151033
     20          6           0      -10.064324   -1.009202   -0.428894
     21          6           0       11.692061    1.506980   -1.728484
     22          6           0      -10.437488    1.729740   -1.479695
     23          6           0        9.371239    1.736932    0.103119
     24          6           0       -8.769859   -0.536925   -0.321543
     25          6           0        8.047619    2.210262    0.241539
     26          6           0       -7.582681   -1.351129   -0.455526
     27          6           0        8.001720    3.705828    0.424398
     28          6           0       -7.674999   -2.747111   -0.902126
     29          6           0        6.913325    1.576949    0.059538
     30          6           0       -6.381452   -0.684160   -0.251827
     31          6           0        5.572560    2.026104    0.220312
     32          6           0       -5.054060   -1.219755   -0.441663
     33          6           0        4.514660    1.205701    0.186533
     34          6           0       -3.968297   -0.412618   -0.275361
     35          6           0        3.110088    1.528619    0.339365
     36          6           0       -2.608336   -0.837356   -0.391448
     37          6           0        2.834362    2.933029    0.707135
     38          6           0       -2.363683   -2.320112   -0.529923
     39          6           0        2.129574    0.525147    0.092750
     40          6           0       -1.436316    0.002897   -0.137547
     41          6           0        0.736734    0.781173    0.080203
     42          6           0       -0.141298   -0.241100   -0.222199
     43          1           0       13.346512   -1.071252    1.418361
     44          1           0       12.968515   -2.848026    1.425793
     45          1           0      -14.539822   -0.537963    1.177117
     46          1           0      -14.324406   -0.090630   -0.474805
     47          1           0       12.498142   -2.433651   -1.286537
     48          1           0      -12.970868    1.711450    1.654251
     49          1           0       14.127737    0.157644   -0.477926
     50          1           0       13.627653   -0.182334   -2.123184
     51          1           0      -13.343790    1.936906   -1.273323
     52          1           0      -12.449510    2.942260   -0.243618
     53          1           0       11.027869   -2.051200    2.895672
     54          1           0        9.728685   -1.090892    2.336523
     55          1           0       11.345782   -0.298869    2.835769
     56          1           0       10.774797   -2.687200   -0.779084
     57          1           0       10.355138   -3.417029    1.049608
     58          1           0        9.321945   -2.377322    0.061599
     59          1           0      -11.614062   -0.225851    2.582027
     60          1           0      -11.228179   -2.001838    1.888019
     61          1           0      -12.983434   -1.599533    2.517436
     62          1           0      -13.681640   -2.717955    0.274635
     63          1           0      -11.927875   -3.073950    0.243351
     64          1           0      -12.746969   -2.203580   -1.085709
     65          1           0        8.845033   -0.319261    0.380103
     66          1           0      -10.475049   -2.003945   -0.696098
     67          1           0       10.509895    1.330671   -2.028985
     68          1           0       11.851083    2.546411   -1.409958
     69          1           0       12.230513    1.364798   -2.804599
     70          1           0      -10.988223    2.716021   -2.033498
     71          1           0      -10.145555    1.046977   -2.427043
     72          1           0       -9.673941    2.236807   -0.832245
     73          1           0       14.649446   -2.953139    0.082774
     74          1           0      -15.377157    1.882726    1.547336
     75          1           0       10.046746    2.616731   -0.027067
     76          1           0       -8.578084    0.513001   -0.066269
     77          1           0        9.014067    4.240821    0.076680
     78          1           0        7.280272    4.120595   -0.428856
     79          1           0        7.851099    4.070938    1.513318
     80          1           0       -8.626250   -3.303653   -0.283089
     81          1           0       -8.037372   -2.794701   -1.968644
     82          1           0       -6.809455   -3.283017   -0.761784
     83          1           0        7.022819    0.484803   -0.109448
     84          1           0       -6.291971    0.275975    0.315191
     85          1           0        5.329638    3.127869    0.367685
     86          1           0       -4.889526   -2.175479   -0.688880
     87          1           0        4.535109    0.065635    0.037654
     88          1           0       -3.987769    0.535213    0.144174
     89          1           0        3.885640    3.289374    1.412610
     90          1           0        1.874729    3.148183    1.489129
     91          1           0        2.852057    3.633910   -0.351679
     92          1           0       -2.613664   -3.048516    0.297360
     93          1           0       -3.030159   -2.609739   -1.361550
     94          1           0       -1.337563   -2.538702   -0.886877
     95          1           0        2.436711   -0.342238   -0.407532
     96          1           0       -1.765036    0.970124   -0.067178
     97          1           0        0.296254    1.788343    0.300475
     98          1           0        0.436981   -1.204527   -0.520167
 ---------------------------------------------------------------------

 SCF Done:  E(RCAM-B3LYP) =  -1706.97025510     A.U. after   15 cycles

 Excitation energies and oscillator strengths:

 Excited State   1:      Singlet-A      2.1345 eV  580.87 nm  f=3.7668  <S**2>=0.000
     155 ->158         0.14932
     156 ->157         0.69090
 This state for optimization and/or second-order correction.
 Total Energy, E(TD-HF/TD-DFT) =  -1706.89181509
 Copying the excited state density for this state as the 1-particle RhoCI density.

 The electronic state is 1-A.
 Alpha  occ. eigenvalues --  -19.23142 -19.22521 -10.32445 -10.30184 -10.30090
 Alpha  occ. eigenvalues --  -10.28032 -10.27811 -10.27581 -10.27297 -10.27267
 Alpha  occ. eigenvalues --  -10.27137 -10.27020 -10.26926 -10.26792 -10.26739
 Alpha  occ. eigenvalues --  -10.26722 -10.26670 -10.26626 -10.26517 -10.26510
 Alpha  occ. eigenvalues --  -10.26480 -10.26431 -10.26404 -10.26392 -10.26378
 Alpha  occ. eigenvalues --  -10.26377 -10.26246 -10.26234 -10.25930 -10.25832
 Alpha  occ. eigenvalues --  -10.25697 -10.25684 -10.25624 -10.25604 -10.25554
 Alpha  occ. eigenvalues --  -10.25277 -10.25119 -10.25081 -10.25062 -10.24693
 Alpha  occ. eigenvalues --  -10.24518 -10.24262  -1.11980  -1.09328  -0.93313
 Alpha  occ. eigenvalues --   -0.93035  -0.92360  -0.91745  -0.91031  -0.89887
 Alpha  occ. eigenvalues --   -0.88106  -0.87080  -0.86065  -0.85207  -0.84518
 Alpha  occ. eigenvalues --   -0.83129  -0.81730  -0.79512  -0.79080  -0.78143
 Alpha  occ. eigenvalues --   -0.76163  -0.75961  -0.75462  -0.75232  -0.74810
 Alpha  occ. eigenvalues --   -0.74643  -0.74564  -0.73979  -0.72991  -0.70589
 Alpha  occ. eigenvalues --   -0.68422  -0.67227  -0.65430  -0.64684  -0.63928
 Alpha  occ. eigenvalues --   -0.63180  -0.62606  -0.62396  -0.61207  -0.59737
 Alpha  occ. eigenvalues --   -0.58696  -0.58577  -0.57745  -0.57209  -0.56381
 Alpha  occ. eigenvalues --   -0.55934  -0.54868  -0.54642  -0.54194  -0.53514
 Alpha  occ. eigenvalues --   -0.52699  -0.52418  -0.51575  -0.51308  -0.50729
 Alpha  occ. eigenvalues --   -0.50469  -0.49831  -0.49568  -0.49213  -0.48911
 Alpha  occ. eigenvalues --   -0.48721  -0.48391  -0.48292  -0.48163  -0.47982
 Alpha  occ. eigenvalues --   -0.47666  -0.47321  -0.47079  -0.46929  -0.46608
 Alpha  occ. eigenvalues --   -0.46001  -0.45741  -0.45651  -0.45155  -0.45040
 Alpha  occ. eigenvalues --   -0.44742  -0.44381  -0.43988  -0.43260  -0.43127
 Alpha  occ. eigenvalues --   -0.42934  -0.42599  -0.42274  -0.41715  -0.41519
 Alpha  occ. eigenvalues --   -0.41357  -0.41199  -0.41132  -0.40947  -0.40616
 Alpha  occ. eigenvalues --   -0.40486  -0.40420  -0.39867  -0.39651  -0.39454
 Alpha  occ. eigenvalues --   -0.38899  -0.38568  -0.37555  -0.37534  -0.37356
 Alpha  occ. eigenvalues --   -0.37326  -0.36957  -0.36910  -0.36712  -0.36012
 Alpha  occ. eigenvalues --   -0.35012  -0.34444  -0.34007  -0.32586  -0.32110
 Alpha  occ. eigenvalues --   -0.30723  -0.29858  -0.28440  -0.25547  -0.23433
 Alpha  occ. eigenvalues --   -0.19235
 Alpha virt. eigenvalues --   -0.06130  -0.01186   0.01718   0.05621   0.08088
 Alpha virt. eigenvalues --    0.09392   0.10083   0.11269   0.11401   0.11811
 Alpha virt. eigenvalues --    0.11950   0.12386   0.12446   0.12897   0.12977

 Mulliken charges:
               1
     1  O   -0.529134
     2  O   -0.555245
     3  C   -0.021639
     4  C   -0.029076
     5  C   -0.216935
     6  C   -0.168798
     7  C    0.191809
     8  C    0.161513
     9  C    0.063304
    10  C    0.093915
    11  C   -0.229620
    12  C   -0.225111
    13  C    0.080399
    14  C    0.022312
    15  C   -0.277726
    16  C   -0.298116
    17  C   -0.269526
    18  C   -0.325201
    19  C   -0.143772
    20  C   -0.131218
    21  C   -0.370901
    22  C   -0.353017
    23  C   -0.082461
    24  C   -0.089549
    25  C    0.112154
    26  C    0.123627
    27  C   -0.380427
    28  C   -0.358389
    29  C   -0.117859
    30  C   -0.140547
    31  C   -0.104044
    32  C   -0.070745
    33  C   -0.091415
    34  C   -0.089531
    35  C    0.127416
    36  C    0.058557
    37  C   -0.356155
    38  C   -0.373574
    39  C   -0.144587
    40  C   -0.125478
    41  C   -0.075222
    42  C   -0.051085
    43  H    0.108074
    44  H    0.088119
    45  H    0.065683
    46  H    0.113274
    47  H    0.023800
    48  H    0.083189
    49  H    0.111315
    50  H    0.107588
    51  H    0.130026
    52  H    0.089001
    53  H    0.105146
    54  H    0.090535
    55  H    0.083391
    56  H    0.099031
    57  H    0.097104
    58  H    0.103600
    59  H    0.064863
    60  H    0.104517
    61  H    0.095654
    62  H    0.084591
    63  H    0.098122
    64  H    0.112748
    65  H    0.101588
    66  H    0.094694
    67  H    0.109128
    68  H    0.124973
    69  H    0.080475
    70  H    0.059275
    71  H    0.120797
    72  H    0.122238
    73  H    0.315646
    74  H    0.304297
    75  H    0.094090
    76  H    0.089798
    77  H    0.084043
    78  H    0.109880
    79  H    0.120749
    80  H    0.087432
    81  H    0.126614
    82  H    0.119975
    83  H    0.066224
    84  H    0.086535
    85  H    0.096197
    86  H    0.076473
    87  H    0.073785
    88  H    0.076251
    89  H    0.078925
    90  H    0.100029
    91  H    0.107683
    92  H    0.119294
    93  H    0.108295
    94  H    0.101868
    95  H    0.088608
    96  H    0.075064
    97  H    0.091168
    98  H    0.089632
 Sum of Mulliken charges =  -0.00000

 Dipole moment (field-independent basis, Debye):
    X=             -0.6440    Y=             -1.3638    Z=              1.8474  Tot=              2.3848
 Quadrupole moment (field-independent basis, Debye-Ang):
   XX=           -268.2804   YY=           -246.9758   ZZ=           -264.2027
   XY=              7.2434   XZ=              0.3376   YZ=              0.8313

 Normal termination of Gaussian 16 at Wed Jul 10 13:43:35 2019.
