 Gaussian 16, Revision A.03,
 Gaussian 16:  ES64L-G16RevA.03 25-Dec-2016

 -------------------------------------
 # td=(NStates=1) CAM-B3LYP/6-31G(d,p)
 -------------------------------------

 --
 TD
 --
 Symbolic Z-matrix:
 Charge =  0 Multiplicity = 1

                         Standard orientation:
 ---------------------------------------------------------------------
 Center     Atomic      Atomic             Coordinates (Angstroms)
 Number     Number       Type             X           Y           Z
 ---------------------------------------------------------------------
      1          8           0       14.684517   -2.201341   -0.287585
      2          8           0      -14.691452    2.049346    0.714942
      3          6           0       11.228622   -1.441484    0.942172
      4          6           0      -12.417676   -0.943958    0.537821
      5          6           0       12.712174   -1.840884    0.964318
      6          6           0      -13.709631   -0.191979    0.532480
      7          6           0       13.273587   -1.864486   -0.360565
      8          6           0      -13.513302    1.269658    0.737369
      9          6           0       10.931967   -0.177506    0.030359
     10          6           0      -11.204217   -0.151839   -0.214296
     11          6           0       13.242097   -0.491703   -0.995796
     12          6           0      -12.672081    1.860308   -0.349578
     13          6           0       11.868369    0.231124   -0.819594
     14          6           0      -11.388234    1.050658   -0.566748
     15          6           0       10.657034   -1.076905    2.337745
     16          6           0       10.420497   -2.665111    0.473049
     17          6           0      -11.923142   -1.257291    1.932453
     18          6           0      -12.729600   -2.282843   -0.125569
     19          6           0        9.646861    0.442380    0.197977
     20          6           0      -10.043274   -0.999930   -0.302598
     21          6           0       11.716977    1.388169   -1.879552
     22          6           0      -10.392193    1.807345   -1.374531
     23          6           0        9.316751    1.696374    0.064757
     24          6           0       -8.711774   -0.491413   -0.274431
     25          6           0        8.010941    2.265108    0.236107
     26          6           0       -7.533376   -1.378958   -0.371479
     27          6           0        8.048870    3.724432    0.635982
     28          6           0       -7.742868   -2.794408   -0.876036
     29          6           0        6.862251    1.486696   -0.121334
     30          6           0       -6.346372   -0.643274   -0.234709
     31          6           0        5.554452    2.083124    0.134294
     32          6           0       -5.063707   -1.157685   -0.505117
     33          6           0        4.462698    1.270714   -0.048335
     34          6           0       -3.963032   -0.480401   -0.352816
     35          6           0        3.064716    1.642040    0.154880
     36          6           0       -2.526037   -0.919459   -0.439606
     37          6           0        2.769686    3.059983    0.569220
     38          6           0       -2.181587   -2.264696   -0.758497
     39          6           0        2.082590    0.699206   -0.044196
     40          6           0       -1.548085    0.085157   -0.218287
     41          6           0        0.691487    0.938889   -0.023262
     42          6           0       -0.166112   -0.062325   -0.469403
     43          1           0       13.296750   -1.246182    1.587570
     44          1           0       12.655401   -2.992669    1.378322
     45          1           0      -14.356157   -0.474581    1.471378
     46          1           0      -14.681800   -0.608171   -0.264653
     47          1           0       12.717632   -2.598572   -1.058965
     48          1           0      -12.992574    1.378638    1.548829
     49          1           0       14.211975    0.063681   -0.655513
     50          1           0       13.563261   -0.626589   -1.927680
     51          1           0      -13.403930    1.795842   -1.244772
     52          1           0      -12.724617    3.007224   -0.166579
     53          1           0       10.920230   -2.023543    2.906058
     54          1           0        9.539980   -1.081937    2.459584
     55          1           0       10.881104   -0.164794    2.770318
     56          1           0       10.504140   -3.014402   -0.599701
     57          1           0       10.672435   -3.313167    1.161843
     58          1           0        9.231010   -2.546372    0.550119
     59          1           0      -11.782578   -0.294808    2.588904
     60          1           0      -10.957881   -1.708367    1.880403
     61          1           0      -12.578604   -1.946216    2.406272
     62          1           0      -13.297756   -2.944295    0.745128
     63          1           0      -11.775267   -2.865827   -0.203186
     64          1           0      -13.235370   -2.277528   -1.161241
     65          1           0        8.909676   -0.219616    0.307772
     66          1           0      -10.096226   -1.906695   -0.337303
     67          1           0       10.805043    1.559190   -2.097807
     68          1           0       12.074632    2.320338   -1.412152
     69          1           0       12.286391    1.093367   -2.846930
     70          1           0      -10.890747    2.537925   -1.995168
     71          1           0       -9.727430    1.058997   -1.985572
     72          1           0       -9.555816    2.501887   -0.901536
     73          1           0       14.438097   -3.300355   -0.466259
     74          1           0      -15.079378    2.016316    1.556187
     75          1           0       10.140856    2.408763    0.405406
     76          1           0       -8.727460    0.573337    0.230663
     77          1           0        9.059107    4.077677    0.800629
     78          1           0        7.401667    4.322226   -0.211532
     79          1           0        7.478351    4.013550    1.464464
     80          1           0       -8.629686   -3.286927   -0.271517
     81          1           0       -7.994943   -2.933304   -2.005304
     82          1           0       -6.663295   -3.501877   -0.626669
     83          1           0        6.934966    0.581791   -0.388212
     84          1           0       -6.639908    0.292278    0.247148
     85          1           0        5.507748    3.126113    0.345144
     86          1           0       -5.139298   -2.247907   -0.505957
     87          1           0        4.511636    0.121084   -0.282884
     88          1           0       -3.925219    0.645195   -0.207134
     89          1           0        3.352758    3.211296    1.533321
     90          1           0        1.619073    3.184147    0.880266
     91          1           0        3.085595    3.710458   -0.240080
     92          1           0       -2.316972   -3.148178   -0.010168
     93          1           0       -2.803942   -2.693777   -1.647559
     94          1           0       -1.197890   -2.396478   -1.004706
     95          1           0        2.380212   -0.251744   -0.391006
     96          1           0       -2.080017    0.930927    0.264788
     97          1           0        0.258347    1.814187    0.397037
     98          1           0        0.154205   -1.052546   -0.716550
 ---------------------------------------------------------------------

 SCF Done:  E(RCAM-B3LYP) =  -1706.89360429     A.U. after   15 cycles

 Excitation energies and oscillator strengths:

 Excited State   1:      Singlet-A      2.3832 eV  520.25 nm  f=3.6471  <S**2>=0.000
     155 ->158         0.17837
     156 ->157         0.67835
 This state for optimization and/or second-order correction.
 Total Energy, E(TD-HF/TD-DFT) =  -1706.80602430
 Copying the excited state density for this state as the 1-particle RhoCI density.

 The electronic state is 1-A.
 Alpha  occ. eigenvalues --  -19.22593 -19.20551 -10.30358 -10.29659 -10.28010
 Alpha  occ. eigenvalues --  -10.27976 -10.27801 -10.27785 -10.27310 -10.27230
 Alpha  occ. eigenvalues --  -10.27219 -10.27139 -10.27007 -10.26972 -10.26914
 Alpha  occ. eigenvalues --  -10.26726 -10.26723 -10.26616 -10.26568 -10.26487
 Alpha  occ. eigenvalues --  -10.26441 -10.26305 -10.26248 -10.26200 -10.25569
 Alpha  occ. eigenvalues --  -10.25540 -10.25497 -10.25446 -10.25372 -10.25341
 Alpha  occ. eigenvalues --  -10.25298 -10.25233 -10.25232 -10.25049 -10.24913
 Alpha  occ. eigenvalues --  -10.24856 -10.24780 -10.24681 -10.24606 -10.24420
 Alpha  occ. eigenvalues --  -10.24221 -10.24050  -1.10271  -1.07393  -0.93840
 Alpha  occ. eigenvalues --   -0.93797  -0.92141  -0.91507  -0.90765  -0.89775
 Alpha  occ. eigenvalues --   -0.87702  -0.87170  -0.86633  -0.85888  -0.85118
 Alpha  occ. eigenvalues --   -0.83686  -0.82564  -0.80678  -0.79560  -0.78407
 Alpha  occ. eigenvalues --   -0.76949  -0.76563  -0.76141  -0.76105  -0.75663
 Alpha  occ. eigenvalues --   -0.75310  -0.74847  -0.74352  -0.73737  -0.70912
 Alpha  occ. eigenvalues --   -0.69139  -0.67394  -0.65542  -0.65143  -0.64233
 Alpha  occ. eigenvalues --   -0.63523  -0.63037  -0.61618  -0.61248  -0.60784
 Alpha  occ. eigenvalues --   -0.60305  -0.59320  -0.58984  -0.57995  -0.56598
 Alpha  occ. eigenvalues --   -0.56024  -0.55421  -0.54879  -0.54398  -0.54028
 Alpha  occ. eigenvalues --   -0.53427  -0.52608  -0.51989  -0.51713  -0.50858
 Alpha  occ. eigenvalues --   -0.49907  -0.49778  -0.49696  -0.49285  -0.49103
 Alpha  occ. eigenvalues --   -0.48623  -0.48530  -0.48026  -0.47829  -0.47625
 Alpha  occ. eigenvalues --   -0.47194  -0.47167  -0.46853  -0.46682  -0.46394
 Alpha  occ. eigenvalues --   -0.46176  -0.45873  -0.45608  -0.45201  -0.44915
 Alpha  occ. eigenvalues --   -0.44554  -0.44369  -0.44252  -0.43627  -0.43055
 Alpha  occ. eigenvalues --   -0.42707  -0.42438  -0.42315  -0.42093  -0.41942
 Alpha  occ. eigenvalues --   -0.41741  -0.41640  -0.41254  -0.41145  -0.40755
 Alpha  occ. eigenvalues --   -0.40502  -0.40375  -0.40247  -0.39690  -0.39361
 Alpha  occ. eigenvalues --   -0.39138  -0.38963  -0.38705  -0.38444  -0.38370
 Alpha  occ. eigenvalues --   -0.37944  -0.37519  -0.37303  -0.36264  -0.35952
 Alpha  occ. eigenvalues --   -0.34758  -0.34431  -0.33366  -0.32582  -0.32352
 Alpha  occ. eigenvalues --   -0.31551  -0.30399  -0.28976  -0.25825  -0.23091
 Alpha  occ. eigenvalues --   -0.19883
 Alpha virt. eigenvalues --   -0.05090  -0.01264   0.01784   0.05996   0.07635
 Alpha virt. eigenvalues --    0.08206   0.09945   0.10738   0.11463   0.11989
 Alpha virt. eigenvalues --    0.12343   0.12664   0.12840   0.13075   0.13604

 Mulliken charges:
               1
     1  O   -0.545875
     2  O   -0.556491
     3  C   -0.036557
     4  C   -0.016754
     5  C   -0.128969
     6  C   -0.168746
     7  C    0.112905
     8  C    0.173335
     9  C    0.088274
    10  C    0.115393
    11  C   -0.210287
    12  C   -0.228925
    13  C   -0.004933
    14  C    0.036362
    15  C   -0.309181
    16  C   -0.291326
    17  C   -0.290033
    18  C   -0.292634
    19  C   -0.079905
    20  C   -0.079170
    21  C   -0.338505
    22  C   -0.375647
    23  C   -0.124812
    24  C   -0.123587
    25  C    0.073296
    26  C    0.077693
    27  C   -0.375895
    28  C   -0.347038
    29  C   -0.069449
    30  C   -0.091656
    31  C   -0.092716
    32  C   -0.095759
    33  C   -0.117063
    34  C   -0.097270
    35  C    0.110612
    36  C    0.115910
    37  C   -0.366513
    38  C   -0.387796
    39  C   -0.132115
    40  C   -0.125317
    41  C   -0.065577
    42  C   -0.098049
    43  H    0.116619
    44  H    0.051294
    45  H    0.060975
    46  H    0.064734
    47  H    0.073438
    48  H    0.091414
    49  H    0.106782
    50  H    0.114502
    51  H    0.110718
    52  H    0.103565
    53  H    0.085483
    54  H    0.101682
    55  H    0.118935
    56  H    0.103385
    57  H    0.113142
    58  H    0.078765
    59  H    0.086027
    60  H    0.111428
    61  H    0.102138
    62  H    0.073448
    63  H    0.088500
    64  H    0.110418
    65  H    0.080767
    66  H    0.029650
    67  H    0.128130
    68  H    0.114318
    69  H    0.090650
    70  H    0.106572
    71  H    0.111240
    72  H    0.088570
    73  H    0.300088
    74  H    0.296434
    75  H    0.072999
    76  H    0.100379
    77  H    0.118598
    78  H    0.103456
    79  H    0.133159
    80  H    0.112537
    81  H    0.133608
    82  H    0.073701
    83  H    0.063399
    84  H    0.087590
    85  H    0.091012
    86  H    0.084865
    87  H    0.076758
    88  H    0.075621
    89  H    0.118216
    90  H    0.093775
    91  H    0.133053
    92  H    0.111034
    93  H    0.102962
    94  H    0.115858
    95  H    0.076382
    96  H    0.083892
    97  H    0.090898
    98  H    0.093204
 Sum of Mulliken charges =  -0.00000

 Dipole moment (field-independent basis, Debye):
    X=              1.4242    Y=             -1.4760    Z=              1.8262  Tot=              2.7463
 Quadrupole moment (field-independent basis, Debye-Ang):
   XX=           -310.8844   YY=           -240.0754   ZZ=           -261.5010
   XY=              5.3275   XZ=            -24.7131   YZ=              9.7132

 Normal termination of Gaussian 16 at Fri Jul 12 14:19:51 2019.
