 Gaussian 16, Revision A.03,
 Gaussian 16:  ES64L-G16RevA.03 25-Dec-2016

 -------------------------------------
 # td=(NStates=1) CAM-B3LYP/6-31G(d,p)
 -------------------------------------

 --
 TD
 --
 Symbolic Z-matrix:
 Charge =  0 Multiplicity = 1

                         Standard orientation:
 ---------------------------------------------------------------------
 Center     Atomic      Atomic             Coordinates (Angstroms)
 Number     Number       Type             X           Y           Z
 ---------------------------------------------------------------------
      1          8           0       14.562960   -2.457828   -0.733264
      2          8           0      -14.715107    2.027929    0.744978
      3          6           0       11.348569   -1.403513    1.023854
      4          6           0      -12.422123   -1.017297    0.632144
      5          6           0       12.757857   -1.748671    0.972419
      6          6           0      -13.726257   -0.185417    0.632986
      7          6           0       13.253902   -1.881589   -0.503379
      8          6           0      -13.482232    1.316313    0.754936
      9          6           0       11.016802   -0.279046    0.073654
     10          6           0      -11.300473   -0.249607   -0.151640
     11          6           0       13.256098   -0.495798   -1.102596
     12          6           0      -12.619079    1.809585   -0.465019
     13          6           0       11.846067    0.159903   -0.836311
     14          6           0      -11.421373    1.008583   -0.567156
     15          6           0       11.060909   -0.890109    2.520306
     16          6           0       10.403244   -2.593527    0.725651
     17          6           0      -11.836325   -1.223468    1.993418
     18          6           0      -12.740506   -2.390723   -0.048438
     19          6           0        9.739345    0.276284    0.175810
     20          6           0      -10.050730   -1.099258   -0.477757
     21          6           0       11.592971    1.367215   -1.807971
     22          6           0      -10.400863    1.639376   -1.613634
     23          6           0        9.321765    1.605352    0.196553
     24          6           0       -8.790596   -0.624546   -0.236742
     25          6           0        8.040820    2.181906    0.263461
     26          6           0       -7.595094   -1.337166   -0.394876
     27          6           0        7.922450    3.687308    0.367229
     28          6           0       -7.634697   -2.771990   -0.917449
     29          6           0        6.831423    1.528394    0.075686
     30          6           0       -6.416759   -0.619088   -0.261729
     31          6           0        5.580824    1.987096    0.106807
     32          6           0       -5.097570   -1.086086   -0.323212
     33          6           0        4.406268    1.234786   -0.032955
     34          6           0       -3.949634   -0.293746   -0.224565
     35          6           0        3.090555    1.687476    0.148774
     36          6           0       -2.589327   -0.757651   -0.307994
     37          6           0        2.729230    3.129700    0.485293
     38          6           0       -2.394347   -2.226723   -0.790617
     39          6           0        2.115451    0.785522   -0.145740
     40          6           0       -1.576178    0.188857   -0.135101
     41          6           0        0.714599    0.904454    0.006845
     42          6           0       -0.222697    0.030842   -0.283841
     43          1           0       13.404810   -1.141213    1.419012
     44          1           0       13.137099   -2.792458    1.400484
     45          1           0      -14.290013   -0.232881    1.646650
     46          1           0      -14.300661   -0.303288   -0.338713
     47          1           0       12.485354   -2.584417   -1.087697
     48          1           0      -13.094725    1.520745    1.664738
     49          1           0       14.053392    0.102329   -0.780291
     50          1           0       13.603475   -0.490974   -2.232456
     51          1           0      -13.058760    1.893987   -1.392945
     52          1           0      -12.442297    2.915288   -0.277652
     53          1           0       11.375160   -1.652725    3.325699
     54          1           0        9.991945   -0.700290    2.789655
     55          1           0       11.572078    0.190041    2.703003
     56          1           0       10.263269   -2.889862   -0.252496
     57          1           0       10.681744   -3.311551    1.434992
     58          1           0        9.237658   -2.320415    0.704724
     59          1           0      -11.789729   -0.286756    2.691974
     60          1           0      -10.831451   -1.677052    2.027816
     61          1           0      -12.300111   -1.950720    2.510819
     62          1           0      -13.624059   -2.957785    0.226383
     63          1           0      -11.768361   -3.096966    0.055397
     64          1           0      -12.578446   -2.319178   -1.203727
     65          1           0        8.687175   -0.441555    0.282730
     66          1           0      -10.129599   -2.126783   -0.850823
     67          1           0       10.482743    1.337577   -1.945096
     68          1           0       11.910339    2.316354   -1.379459
     69          1           0       12.129766    1.147469   -2.752386
     70          1           0      -11.074621    2.434473   -2.148303
     71          1           0      -10.021027    0.829516   -2.111342
     72          1           0       -9.709743    2.396901   -0.969550
     73          1           0       14.477414   -3.283310   -0.154221
     74          1           0      -15.294850    2.007498    1.611697
     75          1           0       10.188655    2.440966    0.320969
     76          1           0       -8.704997    0.433368    0.009231
     77          1           0        8.887878    4.352307    0.647267
     78          1           0        7.282474    4.157606   -0.557021
     79          1           0        7.201989    3.921513    1.152226
     80          1           0       -8.236043   -3.369343   -0.261864
     81          1           0       -7.985502   -2.795428   -2.155339
     82          1           0       -6.630490   -3.226621   -0.830722
     83          1           0        6.726261    0.428473   -0.176475
     84          1           0       -6.594981    0.316359    0.024575
     85          1           0        5.568458    2.950294    0.366738
     86          1           0       -4.928975   -2.116351   -0.588060
     87          1           0        4.350751    0.154262   -0.282770
     88          1           0       -4.205911    0.767922   -0.249628
     89          1           0        3.531860    3.445872    1.436092
     90          1           0        1.694644    3.472287    0.743404
     91          1           0        3.172075    3.529917   -0.345328
     92          1           0       -2.903093   -2.877016   -0.191162
     93          1           0       -2.828331   -2.429826   -1.808513
     94          1           0       -1.377818   -2.604213   -0.771237
     95          1           0        2.562152   -0.197195   -0.456507
     96          1           0       -1.764491    1.148171    0.205221
     97          1           0        0.323454    1.870229    0.600905
     98          1           0        0.128461   -0.989959   -0.706962
 ---------------------------------------------------------------------

 SCF Done:  E(RCAM-B3LYP) =  -1706.96912929     A.U. after   15 cycles

 Excitation energies and oscillator strengths:

 Excited State   1:      Singlet-A      2.1397 eV  579.44 nm  f=3.8584  <S**2>=0.000
     155 ->158         0.16659
     156 ->157         0.68704
 This state for optimization and/or second-order correction.
 Total Energy, E(TD-HF/TD-DFT) =  -1706.89049555
 Copying the excited state density for this state as the 1-particle RhoCI density.

 The electronic state is 1-A.
 Alpha  occ. eigenvalues --  -19.21689 -19.20522 -10.30969 -10.29281 -10.28509
 Alpha  occ. eigenvalues --  -10.28239 -10.27771 -10.27732 -10.27622 -10.27589
 Alpha  occ. eigenvalues --  -10.27350 -10.27268 -10.27267 -10.27163 -10.27024
 Alpha  occ. eigenvalues --  -10.27012 -10.26938 -10.26935 -10.26684 -10.26510
 Alpha  occ. eigenvalues --  -10.26397 -10.26342 -10.26271 -10.26094 -10.26060
 Alpha  occ. eigenvalues --  -10.25962 -10.25882 -10.25706 -10.25695 -10.25609
 Alpha  occ. eigenvalues --  -10.25588 -10.25501 -10.25411 -10.25404 -10.25337
 Alpha  occ. eigenvalues --  -10.25295 -10.25063 -10.25014 -10.24957 -10.24790
 Alpha  occ. eigenvalues --  -10.24533 -10.23713  -1.08161  -1.07129  -0.94889
 Alpha  occ. eigenvalues --   -0.93082  -0.93018  -0.91914  -0.91218  -0.90303
 Alpha  occ. eigenvalues --   -0.87823  -0.87087  -0.86798  -0.85431  -0.84541
 Alpha  occ. eigenvalues --   -0.83444  -0.81972  -0.79438  -0.79017  -0.78793
 Alpha  occ. eigenvalues --   -0.77068  -0.76764  -0.76524  -0.76130  -0.75944
 Alpha  occ. eigenvalues --   -0.75190  -0.74860  -0.74795  -0.73693  -0.70998
 Alpha  occ. eigenvalues --   -0.69384  -0.67375  -0.66079  -0.65168  -0.64678
 Alpha  occ. eigenvalues --   -0.63778  -0.62896  -0.61374  -0.61264  -0.60766
 Alpha  occ. eigenvalues --   -0.59679  -0.58799  -0.58620  -0.57291  -0.56564
 Alpha  occ. eigenvalues --   -0.56192  -0.55078  -0.54626  -0.54395  -0.53456
 Alpha  occ. eigenvalues --   -0.53145  -0.52493  -0.51818  -0.51194  -0.50838
 Alpha  occ. eigenvalues --   -0.50017  -0.49939  -0.49588  -0.49407  -0.49335
 Alpha  occ. eigenvalues --   -0.48684  -0.48428  -0.48221  -0.47996  -0.47836
 Alpha  occ. eigenvalues --   -0.47625  -0.47304  -0.46939  -0.46733  -0.46358
 Alpha  occ. eigenvalues --   -0.46190  -0.45826  -0.45770  -0.45612  -0.44844
 Alpha  occ. eigenvalues --   -0.44326  -0.44148  -0.44082  -0.43869  -0.43290
 Alpha  occ. eigenvalues --   -0.42778  -0.42711  -0.41986  -0.41909  -0.41757
 Alpha  occ. eigenvalues --   -0.41585  -0.41462  -0.41012  -0.40809  -0.40634
 Alpha  occ. eigenvalues --   -0.40443  -0.40184  -0.40153  -0.39804  -0.39633
 Alpha  occ. eigenvalues --   -0.39067  -0.38949  -0.38846  -0.38723  -0.38339
 Alpha  occ. eigenvalues --   -0.38237  -0.37937  -0.36407  -0.36298  -0.35964
 Alpha  occ. eigenvalues --   -0.35227  -0.34106  -0.33916  -0.32645  -0.31673
 Alpha  occ. eigenvalues --   -0.30723  -0.30172  -0.28905  -0.26851  -0.22948
 Alpha  occ. eigenvalues --   -0.19446
 Alpha virt. eigenvalues --   -0.06221  -0.01951   0.02917   0.06292   0.08320
 Alpha virt. eigenvalues --    0.09740   0.10625   0.10835   0.11501   0.11770
 Alpha virt. eigenvalues --    0.12100   0.12506   0.13073   0.13656   0.13827

 Mulliken charges:
               1
     1  O   -0.561898
     2  O   -0.591782
     3  C    0.007191
     4  C    0.028432
     5  C   -0.177884
     6  C   -0.176567
     7  C    0.153542
     8  C    0.175214
     9  C    0.112487
    10  C    0.044702
    11  C   -0.215850
    12  C   -0.233847
    13  C    0.011330
    14  C    0.044455
    15  C   -0.308751
    16  C   -0.297100
    17  C   -0.301349
    18  C   -0.321848
    19  C   -0.136417
    20  C   -0.176348
    21  C   -0.353580
    22  C   -0.337948
    23  C   -0.108441
    24  C   -0.075392
    25  C    0.108236
    26  C    0.109380
    27  C   -0.387888
    28  C   -0.358124
    29  C   -0.102442
    30  C   -0.102150
    31  C   -0.067308
    32  C   -0.089881
    33  C   -0.131739
    34  C   -0.115390
    35  C    0.142727
    36  C    0.086045
    37  C   -0.352547
    38  C   -0.377568
    39  C   -0.144410
    40  C   -0.111900
    41  C   -0.097189
    42  C   -0.050265
    43  H    0.120712
    44  H    0.051350
    45  H    0.064575
    46  H    0.106837
    47  H    0.066492
    48  H    0.087386
    49  H    0.125133
    50  H    0.094306
    51  H    0.132735
    52  H    0.095253
    53  H    0.092629
    54  H    0.112631
    55  H    0.089909
    56  H    0.120276
    57  H    0.107998
    58  H    0.080573
    59  H    0.084061
    60  H    0.107986
    61  H    0.104782
    62  H    0.118888
    63  H    0.073806
    64  H    0.099385
    65  H    0.069939
    66  H    0.090557
    67  H    0.126834
    68  H    0.121472
    69  H    0.102039
    70  H    0.092540
    71  H    0.136561
    72  H    0.095934
    73  H    0.301669
    74  H    0.305027
    75  H    0.069085
    76  H    0.088438
    77  H    0.100064
    78  H    0.107614
    79  H    0.130669
    80  H    0.124427
    81  H    0.095035
    82  H    0.107537
    83  H    0.064965
    84  H    0.068044
    85  H    0.055837
    86  H    0.072715
    87  H    0.085415
    88  H    0.086983
    89  H    0.077102
    90  H    0.121816
    91  H    0.147479
    92  H    0.134656
    93  H    0.122772
    94  H    0.111467
    95  H    0.074025
    96  H    0.076032
    97  H    0.067786
    98  H    0.069822
 Sum of Mulliken charges =  -0.00000

 Dipole moment (field-independent basis, Debye):
    X=             -1.1170    Y=             -0.9747    Z=              1.9335  Tot=              2.4365
 Quadrupole moment (field-independent basis, Debye-Ang):
   XX=           -287.9118   YY=           -243.6548   ZZ=           -262.2525
   XY=             10.4187   XZ=             -0.6327   YZ=              2.9082

 Normal termination of Gaussian 16 at Tue Jul  9 00:00:50 2019.
