 Gaussian 16, Revision A.03,
 Gaussian 16:  ES64L-G16RevA.03 25-Dec-2016

 -------------------------------------
 # td=(NStates=1) CAM-B3LYP/6-31G(d,p)
 -------------------------------------

 --
 TD
 --
 Symbolic Z-matrix:
 Charge =  0 Multiplicity = 1

                         Standard orientation:
 ---------------------------------------------------------------------
 Center     Atomic      Atomic             Coordinates (Angstroms)
 Number     Number       Type             X           Y           Z
 ---------------------------------------------------------------------
      1          8           0       14.795967   -2.323402   -0.015043
      2          8           0      -14.700180    1.849368    1.062403
      3          6           0       11.184264   -1.461562    0.999594
      4          6           0      -12.374297   -0.941956    0.626393
      5          6           0       12.689730   -1.778861    1.183122
      6          6           0      -13.758401   -0.325729    0.753684
      7          6           0       13.371318   -1.886471   -0.255890
      8          6           0      -13.450372    1.224971    1.041261
      9          6           0       10.984738   -0.316108    0.025877
     10          6           0      -11.295971   -0.264238   -0.207509
     11          6           0       13.263245   -0.526529   -0.879785
     12          6           0      -12.692336    1.796027   -0.112448
     13          6           0       11.858526    0.020100   -0.879602
     14          6           0      -11.502492    1.093287   -0.518080
     15          6           0       10.662849   -0.958767    2.361666
     16          6           0       10.306296   -2.605540    0.523731
     17          6           0      -11.819899   -1.391422    2.094168
     18          6           0      -12.703169   -2.281277   -0.000221
     19          6           0        9.655612    0.386845    0.188428
     20          6           0      -10.042354   -0.900032   -0.391215
     21          6           0       11.815195    1.279406   -1.793163
     22          6           0      -10.632297    1.806019   -1.425949
     23          6           0        9.357847    1.653538    0.159373
     24          6           0       -8.796635   -0.476171   -0.329700
     25          6           0        8.038776    2.309718    0.249732
     26          6           0       -7.604002   -1.295151   -0.549578
     27          6           0        8.000868    3.762946    0.542866
     28          6           0       -7.667205   -2.679937   -0.925941
     29          6           0        6.903107    1.557710   -0.040489
     30          6           0       -6.411400   -0.689860   -0.484568
     31          6           0        5.592078    1.979571    0.144694
     32          6           0       -5.070161   -1.076200   -0.634068
     33          6           0        4.437550    1.220560   -0.224027
     34          6           0       -3.967367   -0.382182   -0.371784
     35          6           0        3.083466    1.656225   -0.030592
     36          6           0       -2.603076   -0.663234   -0.565419
     37          6           0        2.872510    3.029087    0.534325
     38          6           0       -2.394118   -2.021750   -1.207239
     39          6           0        2.068282    0.642236   -0.330220
     40          6           0       -1.543771    0.203102   -0.449725
     41          6           0        0.755937    0.887733   -0.075142
     42          6           0       -0.142271   -0.059481   -0.528686
     43          1           0       13.163335   -1.101920    1.976379
     44          1           0       12.715432   -2.893798    1.456433
     45          1           0      -14.345116   -0.846328    1.509764
     46          1           0      -14.241541   -0.421000   -0.179483
     47          1           0       12.724290   -2.544302   -0.832084
     48          1           0      -12.867991    1.167835    1.977855
     49          1           0       13.974896    0.275713   -0.753786
     50          1           0       13.522841   -0.756953   -1.930943
     51          1           0      -13.298360    1.629522   -1.105909
     52          1           0      -12.536885    3.032204   -0.059124
     53          1           0       10.758125   -1.660548    3.369102
     54          1           0        9.519050   -0.683270    2.209171
     55          1           0       11.333907   -0.162343    2.694197
     56          1           0       10.596290   -3.150729   -0.476012
     57          1           0       10.309083   -3.440031    1.447912
     58          1           0        9.367551   -2.415941    0.292509
     59          1           0      -11.492336   -0.371399    2.639837
     60          1           0      -10.886910   -1.826394    1.724565
     61          1           0      -12.697899   -1.996091    2.630331
     62          1           0      -13.728826   -2.810369    0.439185
     63          1           0      -11.900543   -3.112717    0.147469
     64          1           0      -12.918778   -2.003168   -1.104108
     65          1           0        8.853897   -0.266104    0.396749
     66          1           0      -10.046526   -2.222323   -0.309670
     67          1           0       10.613023    1.295067   -1.787558
     68          1           0       12.191542    2.243463   -1.488742
     69          1           0       12.259809    1.111804   -2.852581
     70          1           0      -11.203172    2.534184   -2.241898
     71          1           0      -10.059729    1.163419   -2.049310
     72          1           0       -9.814119    2.465575   -0.830017
     73          1           0       14.947421   -3.355881    0.155744
     74          1           0      -15.170901    1.769164    1.914648
     75          1           0       10.170297    2.370214   -0.037891
     76          1           0       -8.757606    0.677137   -0.061633
     77          1           0        9.028216    4.306901    0.571341
     78          1           0        7.654794    4.218470   -0.231039
     79          1           0        7.501636    3.887852    1.487140
     80          1           0       -8.303365   -3.280718   -0.166011
     81          1           0       -8.204178   -2.803893   -2.036105
     82          1           0       -6.635930   -2.967747   -1.441696
     83          1           0        7.011326    0.453419   -0.474825
     84          1           0       -6.487270    0.344463   -0.106963
     85          1           0        5.461536    2.907499    0.696967
     86          1           0       -4.783009   -2.081778   -0.923693
     87          1           0        4.547295    0.207249   -0.451959
     88          1           0       -4.312800    0.555792    0.512151
     89          1           0        2.923774    3.002144    1.763947
     90          1           0        1.742120    3.165736    0.310377
     91          1           0        3.565781    3.914678    0.085730
     92          1           0       -2.771649   -2.734119   -0.627843
     93          1           0       -2.600101   -2.067823   -2.403077
     94          1           0       -1.237385   -2.146336   -1.306194
     95          1           0        2.555778   -0.085475   -0.906558
     96          1           0       -1.798343    1.143825    0.063840
     97          1           0        0.495644    1.947781    0.120778
     98          1           0        0.242720   -0.949078   -1.103543
 ---------------------------------------------------------------------

 SCF Done:  E(RCAM-B3LYP) =  -1706.86281638     A.U. after   15 cycles

 Excitation energies and oscillator strengths:

 Excited State   1:      Singlet-A      2.1322 eV  581.49 nm  f=3.6302  <S**2>=0.000
     155 ->158         0.14191
     156 ->157         0.69292
 This state for optimization and/or second-order correction.
 Total Energy, E(TD-HF/TD-DFT) =  -1706.78445950
 Copying the excited state density for this state as the 1-particle RhoCI density.

 The electronic state is 1-A.
 Alpha  occ. eigenvalues --  -19.21127 -19.21024 -10.30995 -10.30798 -10.28825
 Alpha  occ. eigenvalues --  -10.27980 -10.27711 -10.27553 -10.27438 -10.27358
 Alpha  occ. eigenvalues --  -10.27348 -10.27274 -10.27253 -10.27211 -10.27209
 Alpha  occ. eigenvalues --  -10.26958 -10.26768 -10.26729 -10.26613 -10.26602
 Alpha  occ. eigenvalues --  -10.26598 -10.26487 -10.26441 -10.26405 -10.26391
 Alpha  occ. eigenvalues --  -10.26321 -10.26257 -10.26213 -10.26175 -10.26152
 Alpha  occ. eigenvalues --  -10.26020 -10.25963 -10.25889 -10.25772 -10.25693
 Alpha  occ. eigenvalues --  -10.25655 -10.25489 -10.25351 -10.25231 -10.24968
 Alpha  occ. eigenvalues --  -10.24620 -10.24211  -1.09660  -1.04402  -0.94243
 Alpha  occ. eigenvalues --   -0.94121  -0.92606  -0.91955  -0.91128  -0.90324
 Alpha  occ. eigenvalues --   -0.87815  -0.87660  -0.86857  -0.86039  -0.85221
 Alpha  occ. eigenvalues --   -0.83584  -0.82016  -0.80515  -0.80142  -0.78269
 Alpha  occ. eigenvalues --   -0.76402  -0.76148  -0.75967  -0.75513  -0.75352
 Alpha  occ. eigenvalues --   -0.74499  -0.74310  -0.73552  -0.73268  -0.70820
 Alpha  occ. eigenvalues --   -0.69036  -0.67870  -0.66027  -0.65005  -0.63689
 Alpha  occ. eigenvalues --   -0.62738  -0.62296  -0.61898  -0.60131  -0.59704
 Alpha  occ. eigenvalues --   -0.58865  -0.58730  -0.58003  -0.57386  -0.56551
 Alpha  occ. eigenvalues --   -0.55240  -0.54707  -0.54479  -0.54311  -0.53564
 Alpha  occ. eigenvalues --   -0.53380  -0.53113  -0.52092  -0.51781  -0.51122
 Alpha  occ. eigenvalues --   -0.50586  -0.50138  -0.49804  -0.49439  -0.49381
 Alpha  occ. eigenvalues --   -0.49131  -0.48907  -0.48520  -0.48020  -0.47758
 Alpha  occ. eigenvalues --   -0.47456  -0.47349  -0.47155  -0.46578  -0.46521
 Alpha  occ. eigenvalues --   -0.45958  -0.45701  -0.45397  -0.44602  -0.44188
 Alpha  occ. eigenvalues --   -0.43860  -0.43710  -0.43420  -0.42892  -0.42767
 Alpha  occ. eigenvalues --   -0.42634  -0.42056  -0.41648  -0.41578  -0.41374
 Alpha  occ. eigenvalues --   -0.41216  -0.41092  -0.40852  -0.40712  -0.40269
 Alpha  occ. eigenvalues --   -0.40053  -0.39657  -0.39493  -0.39095  -0.38970
 Alpha  occ. eigenvalues --   -0.38691  -0.38608  -0.38416  -0.38231  -0.37963
 Alpha  occ. eigenvalues --   -0.37792  -0.36864  -0.36700  -0.36506  -0.35417
 Alpha  occ. eigenvalues --   -0.35215  -0.34478  -0.33691  -0.32676  -0.30655
 Alpha  occ. eigenvalues --   -0.29834  -0.29692  -0.28497  -0.26365  -0.23330
 Alpha  occ. eigenvalues --   -0.19352
 Alpha virt. eigenvalues --   -0.06234  -0.01236   0.02227   0.05021   0.07533
 Alpha virt. eigenvalues --    0.09420   0.09942   0.10615   0.10855   0.11341
 Alpha virt. eigenvalues --    0.12026   0.12180   0.12226   0.12584   0.12948

 Mulliken charges:
               1
     1  O   -0.594492
     2  O   -0.562737
     3  C   -0.021471
     4  C   -0.057028
     5  C   -0.174326
     6  C   -0.170258
     7  C    0.159992
     8  C    0.170107
     9  C    0.120057
    10  C    0.095197
    11  C   -0.210728
    12  C   -0.219624
    13  C    0.005925
    14  C    0.080845
    15  C   -0.285380
    16  C   -0.286285
    17  C   -0.275625
    18  C   -0.274827
    19  C   -0.131529
    20  C   -0.125089
    21  C   -0.361040
    22  C   -0.371485
    23  C   -0.092734
    24  C   -0.089412
    25  C    0.051391
    26  C    0.154014
    27  C   -0.368456
    28  C   -0.387816
    29  C   -0.105468
    30  C   -0.128141
    31  C   -0.097226
    32  C   -0.070401
    33  C   -0.120693
    34  C   -0.094074
    35  C    0.085211
    36  C    0.088578
    37  C   -0.355827
    38  C   -0.363936
    39  C   -0.095257
    40  C   -0.122372
    41  C   -0.089201
    42  C   -0.087557
    43  H    0.103203
    44  H    0.072209
    45  H    0.087277
    46  H    0.102403
    47  H    0.099955
    48  H    0.086351
    49  H    0.125931
    50  H    0.096074
    51  H    0.123556
    52  H    0.097462
    53  H    0.072614
    54  H    0.094953
    55  H    0.109232
    56  H    0.082960
    57  H    0.074401
    58  H    0.121104
    59  H    0.075424
    60  H    0.110321
    61  H    0.094001
    62  H    0.067146
    63  H    0.084193
    64  H    0.093045
    65  H    0.083645
    66  H    0.033963
    67  H    0.104970
    68  H    0.124385
    69  H    0.093867
    70  H    0.084272
    71  H    0.138644
    72  H    0.100640
    73  H    0.309014
    74  H    0.306282
    75  H    0.082188
    76  H    0.081163
    77  H    0.098625
    78  H    0.145591
    79  H    0.132769
    80  H    0.124458
    81  H    0.093696
    82  H    0.116687
    83  H    0.077424
    84  H    0.069797
    85  H    0.084850
    86  H    0.080096
    87  H    0.078125
    88  H    0.031616
    89  H    0.111903
    90  H    0.093631
    91  H    0.118508
    92  H    0.134792
    93  H    0.108852
    94  H    0.085375
    95  H    0.093377
    96  H    0.080854
    97  H    0.103292
    98  H    0.098017
 Sum of Mulliken charges =  -0.00000

 Dipole moment (field-independent basis, Debye):
    X=             -0.6958    Y=             -0.2711    Z=              0.8686  Tot=              1.1455
 Quadrupole moment (field-independent basis, Debye-Ang):
   XX=           -282.1092   YY=           -244.2932   ZZ=           -260.6064
   XY=              0.9365   XZ=            -18.3966   YZ=              5.6996

 Normal termination of Gaussian 16 at Sat Jul 13 21:36:58 2019.
