 Gaussian 16, Revision A.03,
 Gaussian 16:  ES64L-G16RevA.03 25-Dec-2016

 -------------------------------------
 # td=(NStates=1) CAM-B3LYP/6-31G(d,p)
 -------------------------------------

 --
 TD
 --
 Symbolic Z-matrix:
 Charge =  0 Multiplicity = 1

                         Standard orientation:
 ---------------------------------------------------------------------
 Center     Atomic      Atomic             Coordinates (Angstroms)
 Number     Number       Type             X           Y           Z
 ---------------------------------------------------------------------
      1          8           0       14.576013   -2.470878   -0.253310
      2          8           0      -14.677621    1.920356    1.066968
      3          6           0       11.081669   -1.535705    0.975564
      4          6           0      -12.446897   -1.070163    0.445676
      5          6           0       12.575000   -1.975318    0.952964
      6          6           0      -13.761941   -0.298097    0.547349
      7          6           0       13.195211   -2.006788   -0.419441
      8          6           0      -13.514076    1.083757    0.790150
      9          6           0       10.929251   -0.334798   -0.080324
     10          6           0      -11.327628   -0.334674   -0.325411
     11          6           0       13.296431   -0.568138   -0.836835
     12          6           0      -12.669663    1.761974   -0.281478
     13          6           0       11.918860    0.078673   -0.797217
     14          6           0      -11.555937    0.956971   -0.735325
     15          6           0       10.657403   -1.040033    2.439178
     16          6           0       10.236874   -2.744307    0.495889
     17          6           0      -11.879181   -1.433264    1.873357
     18          6           0      -12.777956   -2.379496   -0.199016
     19          6           0        9.633416    0.379667    0.002774
     20          6           0      -10.058720   -1.091932   -0.602034
     21          6           0       11.681381    1.117121   -2.013144
     22          6           0      -10.526060    1.836027   -1.558618
     23          6           0        9.362498    1.666535    0.071519
     24          6           0       -8.861950   -0.548363   -0.248801
     25          6           0        8.111574    2.248447    0.138487
     26          6           0       -7.555787   -1.216993   -0.432457
     27          6           0        8.102282    3.818737    0.490966
     28          6           0       -7.604717   -2.709955   -0.987966
     29          6           0        6.988339    1.666392   -0.046774
     30          6           0       -6.440350   -0.634125   -0.174537
     31          6           0        5.662726    2.064177    0.057226
     32          6           0       -5.050737   -0.993645   -0.387763
     33          6           0        4.594735    1.351672   -0.082434
     34          6           0       -3.947777   -0.208390   -0.152757
     35          6           0        3.189652    1.767479    0.170505
     36          6           0       -2.583342   -0.635572   -0.218477
     37          6           0        2.973441    3.149002    0.588356
     38          6           0       -2.293107   -1.965644   -0.755418
     39          6           0        2.103902    0.924448   -0.084345
     40          6           0       -1.590542    0.274896   -0.001316
     41          6           0        0.745805    1.043782    0.070633
     42          6           0       -0.186028    0.156805   -0.279849
     43          1           0       13.192475   -1.220095    1.544373
     44          1           0       12.871396   -2.891908    1.521635
     45          1           0      -14.315775   -0.860691    1.287032
     46          1           0      -14.327227   -0.465140   -0.449514
     47          1           0       12.656429   -2.680318   -1.105106
     48          1           0      -13.076660    1.334520    1.816139
     49          1           0       13.894715    0.004256   -0.201284
     50          1           0       13.639459   -0.706185   -1.749272
     51          1           0      -13.380064    2.028491   -1.200393
     52          1           0      -12.212606    2.784291    0.136889
     53          1           0       11.018804   -1.878322    3.048311
     54          1           0        9.514880   -0.784678    2.621264
     55          1           0       11.174969   -0.029481    2.655353
     56          1           0       10.824610   -3.100811   -0.588159
     57          1           0       10.058598   -3.624521    1.137943
     58          1           0        9.229559   -2.134416    0.490961
     59          1           0      -11.776923   -0.363688    2.516762
     60          1           0      -10.853742   -1.719337    1.909432
     61          1           0      -12.531192   -2.088130    2.413929
     62          1           0      -13.464136   -2.939445    0.228463
     63          1           0      -11.829604   -3.016580   -0.052901
     64          1           0      -12.848204   -2.232168   -1.271883
     65          1           0        8.857958   -0.445531    0.363398
     66          1           0      -10.117636   -2.211529   -0.670032
     67          1           0       10.584514    1.288907   -2.077218
     68          1           0       12.331061    1.893461   -1.880142
     69          1           0       12.181155    0.723825   -3.013369
     70          1           0      -11.000044    2.084930   -2.595767
     71          1           0       -9.297186    1.554353   -1.881775
     72          1           0      -10.443084    2.859695   -0.799192
     73          1           0       14.659694   -3.453290   -0.282547
     74          1           0      -15.025800    1.581254    1.995389
     75          1           0       10.088568    2.434571    0.007174
     76          1           0       -8.540783    0.341857    0.162928
     77          1           0        9.094090    4.400355    0.404845
     78          1           0        7.478168    4.477194   -0.012409
     79          1           0        7.824088    4.009803    1.459589
     80          1           0       -8.235394   -3.471962   -0.474941
     81          1           0       -8.025958   -2.586473   -2.059461
     82          1           0       -6.572255   -3.223460   -1.208827
     83          1           0        7.080834    0.600361   -0.131027
     84          1           0       -6.634016    0.255291    0.483808
     85          1           0        5.711934    3.106613    0.417818
     86          1           0       -4.855835   -2.083063   -0.606314
     87          1           0        4.728300    0.225025   -0.609239
     88          1           0       -4.098791    0.779974    0.189984
     89          1           0        3.325822    3.294751    1.511561
     90          1           0        2.052501    3.571235    0.476358
     91          1           0        3.546890    3.703303   -0.108664
     92          1           0       -3.204276   -2.653384   -0.295949
     93          1           0       -2.461194   -1.974855   -1.852635
     94          1           0       -1.295419   -2.411929   -0.533594
     95          1           0        2.687197    0.029123   -0.476063
     96          1           0       -1.987565    1.278610    0.441676
     97          1           0        0.385987    2.086432    0.496596
     98          1           0        0.081265   -0.803884   -0.514325
 ---------------------------------------------------------------------

 SCF Done:  E(RCAM-B3LYP) =  -1706.93538541     A.U. after   14 cycles

 Excitation energies and oscillator strengths:

 Excited State   1:      Singlet-A      2.7128 eV  457.04 nm  f=3.7051  <S**2>=0.000
     155 ->158        -0.17430
     156 ->157         0.67863
 This state for optimization and/or second-order correction.
 Total Energy, E(TD-HF/TD-DFT) =  -1706.83569292
 Copying the excited state density for this state as the 1-particle RhoCI density.

 The electronic state is 1-A.
 Alpha  occ. eigenvalues --  -19.20786 -19.20481 -10.30454 -10.30058 -10.29103
 Alpha  occ. eigenvalues --  -10.28499 -10.27830 -10.27768 -10.27433 -10.27369
 Alpha  occ. eigenvalues --  -10.27213 -10.27049 -10.26974 -10.26920 -10.26917
 Alpha  occ. eigenvalues --  -10.26916 -10.26889 -10.26878 -10.26861 -10.26714
 Alpha  occ. eigenvalues --  -10.26693 -10.26542 -10.26523 -10.26507 -10.26304
 Alpha  occ. eigenvalues --  -10.26276 -10.26168 -10.26127 -10.25775 -10.25757
 Alpha  occ. eigenvalues --  -10.25611 -10.25604 -10.25463 -10.25438 -10.25263
 Alpha  occ. eigenvalues --  -10.25219 -10.24978 -10.24756 -10.23959 -10.23776
 Alpha  occ. eigenvalues --  -10.23474 -10.22849  -1.07513  -1.06684  -0.93929
 Alpha  occ. eigenvalues --   -0.93911  -0.92869  -0.92391  -0.91401  -0.90684
 Alpha  occ. eigenvalues --   -0.88232  -0.87118  -0.86295  -0.86062  -0.85241
 Alpha  occ. eigenvalues --   -0.83861  -0.82343  -0.80152  -0.79894  -0.78597
 Alpha  occ. eigenvalues --   -0.77391  -0.76165  -0.76069  -0.75818  -0.75320
 Alpha  occ. eigenvalues --   -0.75287  -0.74737  -0.74654  -0.73795  -0.71555
 Alpha  occ. eigenvalues --   -0.69921  -0.67822  -0.66028  -0.65364  -0.63950
 Alpha  occ. eigenvalues --   -0.63392  -0.62773  -0.61890  -0.60498  -0.59859
 Alpha  occ. eigenvalues --   -0.59594  -0.58943  -0.57688  -0.57332  -0.56209
 Alpha  occ. eigenvalues --   -0.55780  -0.55659  -0.55168  -0.54672  -0.53654
 Alpha  occ. eigenvalues --   -0.53195  -0.52668  -0.51763  -0.51437  -0.51280
 Alpha  occ. eigenvalues --   -0.50923  -0.50747  -0.49818  -0.49688  -0.49217
 Alpha  occ. eigenvalues --   -0.48979  -0.48649  -0.48559  -0.48283  -0.47968
 Alpha  occ. eigenvalues --   -0.47771  -0.47474  -0.47025  -0.46807  -0.46570
 Alpha  occ. eigenvalues --   -0.46386  -0.46222  -0.45728  -0.45349  -0.44444
 Alpha  occ. eigenvalues --   -0.44419  -0.44216  -0.43857  -0.43641  -0.43296
 Alpha  occ. eigenvalues --   -0.42903  -0.42779  -0.41907  -0.41787  -0.41759
 Alpha  occ. eigenvalues --   -0.41364  -0.41032  -0.40847  -0.40709  -0.40455
 Alpha  occ. eigenvalues --   -0.40284  -0.40198  -0.40064  -0.39614  -0.39185
 Alpha  occ. eigenvalues --   -0.39059  -0.38427  -0.38326  -0.38169  -0.37861
 Alpha  occ. eigenvalues --   -0.37400  -0.37202  -0.36570  -0.36092  -0.35169
 Alpha  occ. eigenvalues --   -0.34936  -0.34647  -0.34442  -0.32812  -0.31792
 Alpha  occ. eigenvalues --   -0.31110  -0.30928  -0.29059  -0.26460  -0.24484
 Alpha  occ. eigenvalues --   -0.21170
 Alpha virt. eigenvalues --   -0.04790  -0.00767   0.02157   0.05810   0.08284
 Alpha virt. eigenvalues --    0.09861   0.10385   0.10829   0.11712   0.11953
 Alpha virt. eigenvalues --    0.12014   0.12080   0.12717   0.13365   0.13824

 Mulliken charges:
               1
     1  O   -0.579973
     2  O   -0.590623
     3  C   -0.026761
     4  C   -0.032394
     5  C   -0.177806
     6  C   -0.165337
     7  C    0.141796
     8  C    0.180875
     9  C    0.089669
    10  C    0.068393
    11  C   -0.176342
    12  C   -0.216040
    13  C   -0.017091
    14  C    0.049322
    15  C   -0.300853
    16  C   -0.256705
    17  C   -0.302793
    18  C   -0.290875
    19  C   -0.134334
    20  C   -0.163629
    21  C   -0.351211
    22  C   -0.316094
    23  C   -0.070586
    24  C   -0.034365
    25  C    0.108429
    26  C    0.123111
    27  C   -0.410802
    28  C   -0.378992
    29  C   -0.123714
    30  C   -0.158263
    31  C   -0.045163
    32  C   -0.101551
    33  C   -0.127792
    34  C   -0.085028
    35  C    0.074432
    36  C    0.123142
    37  C   -0.366584
    38  C   -0.373239
    39  C   -0.104086
    40  C   -0.132066
    41  C   -0.081081
    42  C   -0.064765
    43  H    0.090765
    44  H    0.072911
    45  H    0.090145
    46  H    0.095941
    47  H    0.085140
    48  H    0.077929
    49  H    0.131549
    50  H    0.108698
    51  H    0.106218
    52  H    0.103011
    53  H    0.109479
    54  H    0.092489
    55  H    0.105650
    56  H    0.068532
    57  H    0.110221
    58  H    0.081263
    59  H    0.061629
    60  H    0.121648
    61  H    0.101619
    62  H    0.109325
    63  H    0.075711
    64  H    0.110437
    65  H    0.073806
    66  H    0.099955
    67  H    0.124745
    68  H    0.122848
    69  H    0.087264
    70  H    0.109238
    71  H    0.093655
    72  H    0.073236
    73  H    0.303961
    74  H    0.300979
    75  H    0.091482
    76  H    0.080266
    77  H    0.094065
    78  H    0.126192
    79  H    0.133915
    80  H    0.119082
    81  H    0.112457
    82  H    0.095393
    83  H    0.064505
    84  H    0.073862
    85  H    0.078490
    86  H    0.077969
    87  H    0.074884
    88  H    0.081394
    89  H    0.130111
    90  H    0.113224
    91  H    0.122346
    92  H    0.088724
    93  H    0.133486
    94  H    0.115279
    95  H    0.062972
    96  H    0.066947
    97  H    0.080948
    98  H    0.079778
 Sum of Mulliken charges =  -0.00000

 Dipole moment (field-independent basis, Debye):
    X=              1.2126    Y=             -1.8861    Z=              1.3206  Tot=              2.6022
 Quadrupole moment (field-independent basis, Debye-Ang):
   XX=           -282.5752   YY=           -242.3734   ZZ=           -260.5245
   XY=             17.5266   XZ=            -16.7646   YZ=              4.5311

 Normal termination of Gaussian 16 at Sat Jul 13 03:10:52 2019.
