 Gaussian 16, Revision A.03,
 Gaussian 16:  ES64L-G16RevA.03 25-Dec-2016

 -------------------------------------
 # td=(NStates=1) CAM-B3LYP/6-31G(d,p)
 -------------------------------------

 --
 TD
 --
 Symbolic Z-matrix:
 Charge =  0 Multiplicity = 1

                         Standard orientation:
 ---------------------------------------------------------------------
 Center     Atomic      Atomic             Coordinates (Angstroms)
 Number     Number       Type             X           Y           Z
 ---------------------------------------------------------------------
      1          8           0       14.560640   -2.403569   -0.131190
      2          8           0      -14.627060    2.011411    0.936388
      3          6           0       11.122536   -1.480866    0.960036
      4          6           0      -12.285331   -0.989607    0.739989
      5          6           0       12.556563   -1.834808    1.121768
      6          6           0      -13.712818   -0.256327    0.803653
      7          6           0       13.271712   -2.051746   -0.157815
      8          6           0      -13.380111    1.295866    0.961379
      9          6           0       10.957820   -0.336325   -0.033331
     10          6           0      -11.344524   -0.237078   -0.178966
     11          6           0       13.241440   -0.594639   -0.918513
     12          6           0      -12.716922    1.749777   -0.271062
     13          6           0       11.858647   -0.016812   -0.878475
     14          6           0      -11.525143    0.959513   -0.691521
     15          6           0       10.720648   -1.022247    2.447062
     16          6           0       10.209687   -2.602925    0.575268
     17          6           0      -11.730722   -1.128853    2.197460
     18          6           0      -12.554240   -2.433249    0.284306
     19          6           0        9.663245    0.436810    0.108038
     20          6           0      -10.019259   -1.026606   -0.429297
     21          6           0       11.724772    1.079229   -1.957507
     22          6           0      -10.614740    1.619209   -1.666357
     23          6           0        9.395133    1.725737    0.080175
     24          6           0       -8.831531   -0.562749   -0.344310
     25          6           0        8.048310    2.403700    0.185957
     26          6           0       -7.584524   -1.255692   -0.552906
     27          6           0        8.036040    3.911710    0.501793
     28          6           0       -7.666494   -2.724190   -1.039517
     29          6           0        7.008596    1.587375    0.070373
     30          6           0       -6.408531   -0.583187   -0.332425
     31          6           0        5.643414    2.104364    0.159850
     32          6           0       -5.094860   -1.078478   -0.616508
     33          6           0        4.479435    1.352516   -0.088513
     34          6           0       -3.958201   -0.323276   -0.473062
     35          6           0        3.154695    1.741910    0.068017
     36          6           0       -2.606765   -0.798467   -0.667226
     37          6           0        2.804234    3.141153    0.667025
     38          6           0       -2.319080   -2.168062   -1.146151
     39          6           0        2.125977    0.800767   -0.260990
     40          6           0       -1.569992    0.163161   -0.366728
     41          6           0        0.723264    0.995255   -0.151332
     42          6           0       -0.192286   -0.160826   -0.347748
     43          1           0       13.132898   -0.937735    1.621381
     44          1           0       12.917569   -2.678892    1.736175
     45          1           0      -14.299079   -0.504283    1.814418
     46          1           0      -14.209934   -0.627632   -0.126764
     47          1           0       12.617013   -2.567514   -0.889207
     48          1           0      -12.845677    1.521754    1.857768
     49          1           0       14.123841   -0.038177   -0.231702
     50          1           0       13.653625   -0.758917   -1.895313
     51          1           0      -13.347446    1.943001   -1.092627
     52          1           0      -12.394132    2.617642   -0.060393
     53          1           0       10.900142   -1.796551    3.157340
     54          1           0        9.525510   -0.632816    2.406591
     55          1           0       11.186591   -0.053488    2.784281
     56          1           0       10.338368   -2.916214   -0.446610
     57          1           0       10.207241   -3.414766    1.323095
     58          1           0        9.060654   -2.466868    0.497099
     59          1           0      -11.272356   -0.143583    2.589986
     60          1           0      -10.741396   -1.890615    1.946720
     61          1           0      -12.414808   -1.616693    2.809842
     62          1           0      -13.366930   -2.934446    0.863961
     63          1           0      -11.785023   -3.070255    0.227574
     64          1           0      -13.045908   -2.456882   -0.761514
     65          1           0        8.906997   -0.334836    0.555682
     66          1           0      -10.229722   -2.170424   -0.496512
     67          1           0       10.674243    1.317756   -1.951872
     68          1           0       12.404349    2.008357   -1.754972
     69          1           0       12.270196    0.518991   -2.978304
     70          1           0      -11.182431    2.276606   -2.340611
     71          1           0      -10.051352    0.864324   -1.984215
     72          1           0       -9.840588    2.302698   -1.302552
     73          1           0       14.534830   -3.224966    0.444131
     74          1           0      -15.269420    1.750660    1.616919
     75          1           0       10.249679    2.468486   -0.185781
     76          1           0       -8.559335    0.458332   -0.088324
     77          1           0        8.984743    4.402812    0.278559
     78          1           0        7.419290    4.409230   -0.280990
     79          1           0        7.861986    4.201411    1.599879
     80          1           0       -8.118956   -3.374194   -0.204379
     81          1           0       -8.357043   -2.759208   -1.699865
     82          1           0       -6.705155   -3.175666   -1.373201
     83          1           0        6.978030    0.666973   -0.417610
     84          1           0       -6.335840    0.455075   -0.058904
     85          1           0        5.392604    3.195070    0.560679
     86          1           0       -5.118038   -2.091632   -0.963909
     87          1           0        4.742989    0.218409   -0.536051
     88          1           0       -4.169042    0.752665   -0.306203
     89          1           0        3.220836    3.156179    1.716142
     90          1           0        1.757199    3.451248    0.514206
     91          1           0        3.283597    4.062281    0.135905
     92          1           0       -2.169516   -2.810345    0.014681
     93          1           0       -3.495895   -2.496475   -1.895389
     94          1           0       -1.398305   -2.332163   -1.947569
     95          1           0        2.510662   -0.217338   -0.709110
     96          1           0       -1.982797    1.276002    0.042464
     97          1           0        0.438922    2.054425   -0.161020
     98          1           0        0.162317   -1.125775   -0.586912
 ---------------------------------------------------------------------

 SCF Done:  E(RCAM-B3LYP) =  -1706.90522749     A.U. after   15 cycles

 Excitation energies and oscillator strengths:

 Excited State   1:      Singlet-A      2.1457 eV  577.84 nm  f=3.4102  <S**2>=0.000
     155 ->158        -0.12423
     156 ->157         0.69973
     156 <-157        -0.10245
 This state for optimization and/or second-order correction.
 Total Energy, E(TD-HF/TD-DFT) =  -1706.82637608
 Copying the excited state density for this state as the 1-particle RhoCI density.

 The electronic state is 1-A.
 Alpha  occ. eigenvalues --  -19.22789 -19.19921 -10.31861 -10.30038 -10.29414
 Alpha  occ. eigenvalues --  -10.28225 -10.28141 -10.28086 -10.27997 -10.27802
 Alpha  occ. eigenvalues --  -10.27750 -10.27706 -10.27474 -10.27449 -10.27429
 Alpha  occ. eigenvalues --  -10.27400 -10.27219 -10.27163 -10.26834 -10.26653
 Alpha  occ. eigenvalues --  -10.26623 -10.26594 -10.26412 -10.26254 -10.26060
 Alpha  occ. eigenvalues --  -10.26056 -10.26008 -10.25705 -10.25605 -10.25550
 Alpha  occ. eigenvalues --  -10.25505 -10.25451 -10.25427 -10.25414 -10.25363
 Alpha  occ. eigenvalues --  -10.25348 -10.25290 -10.25071 -10.24983 -10.24379
 Alpha  occ. eigenvalues --  -10.23519 -10.22038  -1.12749  -1.07822  -0.94313
 Alpha  occ. eigenvalues --   -0.93462  -0.91478  -0.91114  -0.90165  -0.89418
 Alpha  occ. eigenvalues --   -0.87352  -0.87005  -0.86445  -0.84841  -0.84061
 Alpha  occ. eigenvalues --   -0.82704  -0.81282  -0.80084  -0.79623  -0.77668
 Alpha  occ. eigenvalues --   -0.76734  -0.76442  -0.76019  -0.75966  -0.75444
 Alpha  occ. eigenvalues --   -0.75277  -0.74802  -0.74043  -0.72343  -0.70761
 Alpha  occ. eigenvalues --   -0.68224  -0.67267  -0.65819  -0.64850  -0.64504
 Alpha  occ. eigenvalues --   -0.64059  -0.61786  -0.61567  -0.60465  -0.59776
 Alpha  occ. eigenvalues --   -0.58821  -0.58524  -0.58460  -0.57164  -0.55715
 Alpha  occ. eigenvalues --   -0.55155  -0.54796  -0.54196  -0.53931  -0.53584
 Alpha  occ. eigenvalues --   -0.52903  -0.52627  -0.52343  -0.51303  -0.50470
 Alpha  occ. eigenvalues --   -0.50344  -0.49867  -0.49561  -0.49189  -0.49093
 Alpha  occ. eigenvalues --   -0.48756  -0.48709  -0.48403  -0.48085  -0.47626
 Alpha  occ. eigenvalues --   -0.47282  -0.47122  -0.46846  -0.46550  -0.46075
 Alpha  occ. eigenvalues --   -0.45809  -0.45406  -0.45364  -0.45119  -0.44961
 Alpha  occ. eigenvalues --   -0.44774  -0.44651  -0.44225  -0.43904  -0.43201
 Alpha  occ. eigenvalues --   -0.42534  -0.42471  -0.42226  -0.41976  -0.41816
 Alpha  occ. eigenvalues --   -0.41467  -0.41398  -0.41327  -0.40584  -0.40341
 Alpha  occ. eigenvalues --   -0.40034  -0.39774  -0.39602  -0.39305  -0.39030
 Alpha  occ. eigenvalues --   -0.38760  -0.38544  -0.38483  -0.38007  -0.37776
 Alpha  occ. eigenvalues --   -0.37540  -0.37397  -0.36258  -0.35779  -0.35211
 Alpha  occ. eigenvalues --   -0.34911  -0.34372  -0.33110  -0.32440  -0.31426
 Alpha  occ. eigenvalues --   -0.30842  -0.30035  -0.28553  -0.26837  -0.24247
 Alpha  occ. eigenvalues --   -0.19101
 Alpha virt. eigenvalues --   -0.06065  -0.00174   0.02693   0.06166   0.08225
 Alpha virt. eigenvalues --    0.08473   0.09706   0.11110   0.11498   0.11908
 Alpha virt. eigenvalues --    0.12299   0.12557   0.12838   0.12959   0.13120

 Mulliken charges:
               1
     1  O   -0.526624
     2  O   -0.581791
     3  C   -0.010832
     4  C   -0.039891
     5  C   -0.171293
     6  C   -0.186468
     7  C    0.157236
     8  C    0.164691
     9  C    0.086930
    10  C    0.083262
    11  C   -0.228255
    12  C   -0.190233
    13  C    0.046079
    14  C    0.035341
    15  C   -0.295988
    16  C   -0.306791
    17  C   -0.267965
    18  C   -0.311764
    19  C   -0.115182
    20  C   -0.189593
    21  C   -0.332956
    22  C   -0.361416
    23  C   -0.114698
    24  C   -0.039644
    25  C    0.092755
    26  C    0.091274
    27  C   -0.373051
    28  C   -0.359804
    29  C   -0.107382
    30  C   -0.138410
    31  C   -0.109347
    32  C   -0.068723
    33  C   -0.116029
    34  C   -0.115904
    35  C    0.109509
    36  C    0.107426
    37  C   -0.371832
    38  C   -0.322089
    39  C   -0.126366
    40  C   -0.106225
    41  C   -0.093660
    42  C   -0.099010
    43  H    0.093806
    44  H    0.062960
    45  H    0.056374
    46  H    0.105083
    47  H    0.068188
    48  H    0.092753
    49  H    0.084290
    50  H    0.103159
    51  H    0.125178
    52  H    0.114375
    53  H    0.108912
    54  H    0.069215
    55  H    0.108869
    56  H    0.114488
    57  H    0.101630
    58  H    0.096815
    59  H    0.097189
    60  H    0.062897
    61  H    0.113516
    62  H    0.098996
    63  H    0.110153
    64  H    0.086956
    65  H    0.079344
    66  H    0.074842
    67  H    0.119000
    68  H    0.107911
    69  H    0.070519
    70  H    0.104033
    71  H    0.129084
    72  H    0.109786
    73  H    0.302896
    74  H    0.297902
    75  H    0.080408
    76  H    0.084798
    77  H    0.115188
    78  H    0.125923
    79  H    0.126724
    80  H    0.107919
    81  H    0.135853
    82  H    0.108197
    83  H    0.099051
    84  H    0.072531
    85  H    0.076548
    86  H    0.068074
    87  H    0.060803
    88  H    0.085423
    89  H    0.132646
    90  H    0.111240
    91  H    0.107162
    92  H    0.100634
    93  H    0.061594
    94  H    0.116467
    95  H    0.078792
    96  H    0.077580
    97  H    0.097903
    98  H    0.102136
 Sum of Mulliken charges =  -0.00000

 Dipole moment (field-independent basis, Debye):
    X=             -0.3140    Y=             -1.0353    Z=              1.5441  Tot=              1.8854
 Quadrupole moment (field-independent basis, Debye-Ang):
   XX=           -278.3596   YY=           -240.8957   ZZ=           -262.8540
   XY=              5.7990   XZ=              0.6778   YZ=              1.7343

 Normal termination of Gaussian 16 at Wed Jul 10 14:59:51 2019.
