 Gaussian 16, Revision A.03,
 Gaussian 16:  ES64L-G16RevA.03 25-Dec-2016

 -------------------------------------
 # td=(NStates=1) CAM-B3LYP/6-31G(d,p)
 -------------------------------------

 --
 TD
 --
 Symbolic Z-matrix:
 Charge =  0 Multiplicity = 1

                         Standard orientation:
 ---------------------------------------------------------------------
 Center     Atomic      Atomic             Coordinates (Angstroms)
 Number     Number       Type             X           Y           Z
 ---------------------------------------------------------------------
      1          8           0       14.763848   -2.131937   -0.133535
      2          8           0      -14.621294    2.130871    1.051405
      3          6           0       11.258048   -1.341543    1.021265
      4          6           0      -12.472091   -0.988122    0.713789
      5          6           0       12.677389   -1.781982    1.125024
      6          6           0      -13.702362   -0.142203    0.654567
      7          6           0       13.317046   -1.747149   -0.243375
      8          6           0      -13.478267    1.389845    1.003522
      9          6           0       10.901772   -0.170970    0.126940
     10          6           0      -11.316152   -0.285437   -0.069124
     11          6           0       13.232336   -0.437234   -0.913326
     12          6           0      -12.575734    1.948481   -0.122653
     13          6           0       11.795036    0.172673   -0.835230
     14          6           0      -11.428252    1.085472   -0.499086
     15          6           0       10.726483   -1.131967    2.441907
     16          6           0       10.342554   -2.615766    0.382199
     17          6           0      -11.981873   -1.298531    2.103493
     18          6           0      -12.772221   -2.286118   -0.036647
     19          6           0        9.661611    0.408534    0.160473
     20          6           0      -10.057734   -0.943149   -0.424225
     21          6           0       11.558483    1.242958   -1.822973
     22          6           0      -10.524412    1.679896   -1.499201
     23          6           0        9.352313    1.791154    0.066210
     24          6           0       -8.826167   -0.514473   -0.342305
     25          6           0        8.031361    2.261698    0.201095
     26          6           0       -7.560663   -1.171048   -0.588886
     27          6           0        7.860602    3.727587    0.502067
     28          6           0       -7.762220   -2.686785   -0.889061
     29          6           0        6.925363    1.530587    0.088649
     30          6           0       -6.357180   -0.648799   -0.528428
     31          6           0        5.557778    1.942069    0.116774
     32          6           0       -5.037735   -1.247336   -0.742102
     33          6           0        4.538748    1.155056    0.043753
     34          6           0       -3.925335   -0.574550   -0.486917
     35          6           0        3.199740    1.568585    0.027393
     36          6           0       -2.544060   -0.938209   -0.596259
     37          6           0        2.786880    3.045245    0.329874
     38          6           0       -2.258603   -2.368781   -0.900443
     39          6           0        2.144061    0.648579   -0.234515
     40          6           0       -1.569435    0.067928   -0.416653
     41          6           0        0.760638    0.814827   -0.213837
     42          6           0       -0.157183   -0.161821   -0.436995
     43          1           0       13.268730   -0.979592    1.727479
     44          1           0       12.933076   -2.659030    1.477568
     45          1           0      -14.124957   -0.350145    1.454042
     46          1           0      -14.176844   -0.132396   -0.268400
     47          1           0       12.854654   -2.611290   -0.743002
     48          1           0      -12.705635    1.573425    1.898289
     49          1           0       13.915859    0.213020   -0.348676
     50          1           0       13.559977   -0.628792   -1.890352
     51          1           0      -13.134024    2.193382   -0.988298
     52          1           0      -12.098287    2.885729    0.174342
     53          1           0       10.733332   -1.948880    3.183122
     54          1           0        9.605455   -0.712895    2.325758
     55          1           0       11.264846   -0.331573    3.039992
     56          1           0       10.726454   -2.953036   -0.374832
     57          1           0       10.484754   -3.434152    0.949745
     58          1           0        9.291402   -2.515361    0.341179
     59          1           0      -11.740020   -0.342762    2.707392
     60          1           0      -11.200990   -1.857809    1.882384
     61          1           0      -12.625550   -1.810137    2.801819
     62          1           0      -13.672863   -2.781255    0.396525
     63          1           0      -12.060538   -3.027388    0.036003
     64          1           0      -13.007507   -2.309769   -1.107932
     65          1           0        8.859009   -0.266816    0.668299
     66          1           0      -10.148294   -1.913360   -0.466954
     67          1           0       10.448594    1.216778   -2.077684
     68          1           0       11.878009    2.230802   -1.423535
     69          1           0       12.258047    1.114550   -2.598668
     70          1           0      -11.009709    2.179311   -2.410430
     71          1           0       -9.918217    0.902246   -1.984404
     72          1           0       -9.656094    2.437683   -0.998257
     73          1           0       14.815530   -3.309990   -0.091986
     74          1           0      -15.180512    1.772861    1.550355
     75          1           0       10.179338    2.427201    0.105522
     76          1           0       -8.712031    0.519427    0.091916
     77          1           0        8.725588    4.446223    0.692037
     78          1           0        7.342937    4.543096   -0.250258
     79          1           0        7.261076    3.954152    1.491305
     80          1           0       -7.811773   -3.599887   -0.059709
     81          1           0       -8.673208   -2.904730   -1.478189
     82          1           0       -6.890302   -3.015017   -1.461545
     83          1           0        7.202828    0.372484   -0.202992
     84          1           0       -6.313367    0.466304   -0.205473
     85          1           0        5.625999    3.121231    0.171841
     86          1           0       -4.995118   -2.325663   -1.255526
     87          1           0        4.613396    0.063643    0.029030
     88          1           0       -4.139344    0.607572   -0.210090
     89          1           0        2.949005    3.242480    1.361114
     90          1           0        1.807388    3.380911   -0.057273
     91          1           0        3.421662    3.709623   -0.559415
     92          1           0       -2.743800   -3.039411   -0.197596
     93          1           0       -2.462363   -2.676358   -1.949600
     94          1           0       -1.133396   -2.601449   -0.664217
     95          1           0        2.500286   -0.441334   -0.332922
     96          1           0       -1.877824    1.158158   -0.209195
     97          1           0        0.555324    1.944421    0.085033
     98          1           0        0.066193   -1.183110   -0.718132
 ---------------------------------------------------------------------

 SCF Done:  E(RCAM-B3LYP) =  -1706.89044453     A.U. after   15 cycles

 Excitation energies and oscillator strengths:

 Excited State   1:      Singlet-A      2.3733 eV  522.40 nm  f=3.5368  <S**2>=0.000
     155 ->158         0.17198
     156 ->157         0.67706
 This state for optimization and/or second-order correction.
 Total Energy, E(TD-HF/TD-DFT) =  -1706.80322559
 Copying the excited state density for this state as the 1-particle RhoCI density.

 The electronic state is 1-A.
 Alpha  occ. eigenvalues --  -19.22055 -19.21094 -10.30928 -10.29872 -10.28307
 Alpha  occ. eigenvalues --  -10.27893 -10.27803 -10.27609 -10.27521 -10.27351
 Alpha  occ. eigenvalues --  -10.27335 -10.27153 -10.27083 -10.27011 -10.26885
 Alpha  occ. eigenvalues --  -10.26782 -10.26777 -10.26768 -10.26555 -10.26545
 Alpha  occ. eigenvalues --  -10.26452 -10.26398 -10.26393 -10.26370 -10.26352
 Alpha  occ. eigenvalues --  -10.26088 -10.26023 -10.25979 -10.25678 -10.25643
 Alpha  occ. eigenvalues --  -10.25513 -10.25388 -10.25259 -10.25157 -10.24662
 Alpha  occ. eigenvalues --  -10.24163 -10.24146 -10.23739 -10.23646 -10.23512
 Alpha  occ. eigenvalues --  -10.22742 -10.22055  -1.14697  -1.04328  -0.94406
 Alpha  occ. eigenvalues --   -0.93660  -0.92354  -0.91645  -0.90697  -0.90043
 Alpha  occ. eigenvalues --   -0.87971  -0.87411  -0.87080  -0.85934  -0.85416
 Alpha  occ. eigenvalues --   -0.83380  -0.81999  -0.80322  -0.79919  -0.78267
 Alpha  occ. eigenvalues --   -0.77808  -0.77311  -0.77072  -0.76663  -0.75834
 Alpha  occ. eigenvalues --   -0.75643  -0.75226  -0.74589  -0.73368  -0.70901
 Alpha  occ. eigenvalues --   -0.69564  -0.68642  -0.66340  -0.64965  -0.64242
 Alpha  occ. eigenvalues --   -0.63743  -0.63434  -0.61283  -0.59810  -0.59056
 Alpha  occ. eigenvalues --   -0.58865  -0.58402  -0.58138  -0.57849  -0.56706
 Alpha  occ. eigenvalues --   -0.56341  -0.55750  -0.55091  -0.54516  -0.53762
 Alpha  occ. eigenvalues --   -0.53189  -0.52584  -0.52295  -0.51939  -0.51021
 Alpha  occ. eigenvalues --   -0.50468  -0.50319  -0.50043  -0.49796  -0.49580
 Alpha  occ. eigenvalues --   -0.49447  -0.49296  -0.48906  -0.48245  -0.48120
 Alpha  occ. eigenvalues --   -0.47608  -0.47456  -0.46790  -0.46297  -0.45901
 Alpha  occ. eigenvalues --   -0.45618  -0.45467  -0.45403  -0.45185  -0.45105
 Alpha  occ. eigenvalues --   -0.44924  -0.44168  -0.43960  -0.43577  -0.43295
 Alpha  occ. eigenvalues --   -0.42779  -0.42644  -0.42622  -0.42316  -0.42022
 Alpha  occ. eigenvalues --   -0.41895  -0.41516  -0.41220  -0.41162  -0.40586
 Alpha  occ. eigenvalues --   -0.40400  -0.39846  -0.39682  -0.39184  -0.38959
 Alpha  occ. eigenvalues --   -0.38739  -0.38548  -0.38354  -0.38258  -0.38122
 Alpha  occ. eigenvalues --   -0.37815  -0.37322  -0.37259  -0.36869  -0.36627
 Alpha  occ. eigenvalues --   -0.34949  -0.34742  -0.33690  -0.32439  -0.32084
 Alpha  occ. eigenvalues --   -0.31326  -0.30269  -0.28238  -0.25263  -0.23217
 Alpha  occ. eigenvalues --   -0.20081
 Alpha virt. eigenvalues --   -0.05345  -0.01257   0.01812   0.05426   0.06944
 Alpha virt. eigenvalues --    0.08204   0.09617   0.11441   0.11537   0.12606
 Alpha virt. eigenvalues --    0.13025   0.13381   0.13638   0.14025   0.14508

 Mulliken charges:
               1
     1  O   -0.579076
     2  O   -0.492100
     3  C   -0.030374
     4  C   -0.026752
     5  C   -0.144482
     6  C   -0.145373
     7  C    0.133636
     8  C    0.130309
     9  C    0.154572
    10  C    0.050882
    11  C   -0.201856
    12  C   -0.223425
    13  C    0.006396
    14  C    0.056796
    15  C   -0.297330
    16  C   -0.315789
    17  C   -0.291030
    18  C   -0.323655
    19  C   -0.161061
    20  C   -0.121298
    21  C   -0.362060
    22  C   -0.359601
    23  C   -0.113735
    24  C   -0.082029
    25  C    0.148291
    26  C    0.129993
    27  C   -0.411649
    28  C   -0.371858
    29  C   -0.128099
    30  C   -0.142968
    31  C   -0.078917
    32  C   -0.085335
    33  C   -0.093856
    34  C   -0.096986
    35  C    0.088621
    36  C    0.098055
    37  C   -0.361977
    38  C   -0.380619
    39  C   -0.130009
    40  C   -0.112760
    41  C   -0.071132
    42  C   -0.085745
    43  H    0.087363
    44  H    0.087345
    45  H    0.077500
    46  H    0.112199
    47  H    0.078528
    48  H    0.055025
    49  H    0.129293
    50  H    0.117217
    51  H    0.113201
    52  H    0.107168
    53  H    0.103076
    54  H    0.076770
    55  H    0.093722
    56  H    0.102237
    57  H    0.097100
    58  H    0.106616
    59  H    0.097340
    60  H    0.117079
    61  H    0.098643
    62  H    0.091969
    63  H    0.108544
    64  H    0.110597
    65  H    0.090640
    66  H    0.056033
    67  H    0.128905
    68  H    0.114422
    69  H    0.102745
    70  H    0.098749
    71  H    0.128924
    72  H    0.078839
    73  H    0.288716
    74  H    0.277627
    75  H    0.101777
    76  H    0.073286
    77  H    0.106764
    78  H    0.098837
    79  H    0.113639
    80  H    0.090500
    81  H    0.113178
    82  H    0.102630
    83  H    0.062943
    84  H    0.075256
    85  H    0.098450
    86  H    0.084581
    87  H    0.090707
    88  H    0.066633
    89  H    0.139209
    90  H    0.120587
    91  H    0.083715
    92  H    0.131327
    93  H    0.130194
    94  H    0.094554
    95  H    0.063392
    96  H    0.086057
    97  H    0.076232
    98  H    0.086800
 Sum of Mulliken charges =  -0.00000

 Dipole moment (field-independent basis, Debye):
    X=              0.2356    Y=             -2.3246    Z=              0.7944  Tot=              2.4679
 Quadrupole moment (field-independent basis, Debye-Ang):
   XX=           -257.8591   YY=           -239.5488   ZZ=           -262.0618
   XY=              9.2773   XZ=            -10.5763   YZ=              3.1143

 Normal termination of Gaussian 16 at Mon Jul 15 08:26:54 2019.
