 Gaussian 16, Revision A.03,
 Gaussian 16:  ES64L-G16RevA.03 25-Dec-2016

 -------------------------------------
 # td=(NStates=1) CAM-B3LYP/6-31G(d,p)
 -------------------------------------

 --
 TD
 --
 Symbolic Z-matrix:
 Charge =  0 Multiplicity = 1

                         Standard orientation:
 ---------------------------------------------------------------------
 Center     Atomic      Atomic             Coordinates (Angstroms)
 Number     Number       Type             X           Y           Z
 ---------------------------------------------------------------------
      1          8           0       14.807672   -2.317237   -0.234485
      2          8           0      -14.860639    1.818491    0.858304
      3          6           0       11.205167   -1.498143    0.961801
      4          6           0      -12.292248   -1.050026    0.621122
      5          6           0       12.682930   -1.936937    0.955445
      6          6           0      -13.622145   -0.275648    0.644009
      7          6           0       13.439030   -1.879633   -0.453262
      8          6           0      -13.570286    1.226803    0.920174
      9          6           0       10.967864   -0.287899    0.136470
     10          6           0      -11.210872   -0.225382   -0.161541
     11          6           0       13.204568   -0.422281   -0.840330
     12          6           0      -12.773225    1.882320   -0.173850
     13          6           0       11.876045    0.182519   -0.792029
     14          6           0      -11.502970    1.041787   -0.504505
     15          6           0       10.751839   -1.258398    2.383854
     16          6           0       10.345393   -2.616723    0.426574
     17          6           0      -11.774968   -1.275851    2.060054
     18          6           0      -12.589473   -2.488487   -0.115020
     19          6           0        9.638679    0.396402    0.318044
     20          6           0      -10.100462   -1.001556   -0.564413
     21          6           0       11.684578    1.179656   -1.836234
     22          6           0      -10.502645    1.828312   -1.386958
     23          6           0        9.304848    1.627324    0.149827
     24          6           0       -8.860545   -0.552986   -0.287172
     25          6           0        8.048723    2.314423    0.214716
     26          6           0       -7.629253   -1.365155   -0.645897
     27          6           0        8.005166    3.779873    0.349250
     28          6           0       -7.650987   -2.726581   -1.049294
     29          6           0        6.800711    1.591755    0.114215
     30          6           0       -6.472673   -0.588481   -0.419780
     31          6           0        5.611043    2.151367    0.166555
     32          6           0       -5.020123   -1.050007   -0.443654
     33          6           0        4.493502    1.269067   -0.035034
     34          6           0       -3.923738   -0.257804   -0.308564
     35          6           0        3.176940    1.606767    0.190761
     36          6           0       -2.617022   -0.650688   -0.506557
     37          6           0        2.899218    3.072841    0.644792
     38          6           0       -2.291002   -2.076159   -0.876500
     39          6           0        2.058730    0.816298   -0.228164
     40          6           0       -1.706639    0.238062   -0.236383
     41          6           0        0.712476    1.053685   -0.114945
     42          6           0       -0.237495    0.116686   -0.436186
     43          1           0       13.249191   -1.047731    1.456605
     44          1           0       12.895803   -2.861219    1.397243
     45          1           0      -14.188260   -0.724072    1.548084
     46          1           0      -14.236084   -0.427401   -0.211626
     47          1           0       13.053595   -2.341629   -1.152785
     48          1           0      -13.151985    1.406827    1.695941
     49          1           0       13.872534    0.074033   -0.214750
     50          1           0       13.507096   -0.223589   -1.905074
     51          1           0      -13.323043    1.897898   -0.943499
     52          1           0      -12.408498    2.858967    0.149113
     53          1           0       11.058537   -2.093636    3.036914
     54          1           0        9.602693   -1.328697    2.529484
     55          1           0       11.068009   -0.352068    2.798354
     56          1           0       10.558605   -3.086099   -0.641088
     57          1           0       10.303105   -3.450200    1.176180
     58          1           0        9.220931   -2.562734    0.153364
     59          1           0      -11.588993   -0.341788    2.366934
     60          1           0      -10.963243   -2.034815    2.141355
     61          1           0      -12.469386   -1.780874    2.830842
     62          1           0      -13.479365   -2.779385    0.307299
     63          1           0      -11.922135   -3.295976    0.238503
     64          1           0      -12.663403   -2.590754   -1.281437
     65          1           0        8.904612   -0.355749    0.408514
     66          1           0      -10.300383   -2.146065   -0.823668
     67          1           0       10.746871    1.640723   -1.814977
     68          1           0       12.553026    2.063296   -1.828038
     69          1           0       11.778552    0.815305   -2.944286
     70          1           0      -10.951347    2.285231   -2.213604
     71          1           0       -9.848415    1.234631   -1.854414
     72          1           0      -10.193638    2.494005   -0.797776
     73          1           0       14.764670   -3.418996   -0.227983
     74          1           0      -15.333098    1.420256    1.501084
     75          1           0       10.225577    2.326656   -0.080586
     76          1           0       -8.643173    0.600223   -0.042169
     77          1           0        9.129948    3.962491    0.364450
     78          1           0        7.588604    4.326693   -0.453123
     79          1           0        7.429680    4.044591    1.212027
     80          1           0       -8.118033   -3.232169   -0.187303
     81          1           0       -8.204749   -2.933872   -1.979969
     82          1           0       -6.722405   -3.171425   -1.239147
     83          1           0        6.996472    0.570828   -0.161047
     84          1           0       -6.608550    0.564947   -0.293828
     85          1           0        5.383681    3.223178    0.289150
     86          1           0       -4.904863   -2.165819   -0.894764
     87          1           0        4.754130    0.168468   -0.000765
     88          1           0       -3.969198    0.775930   -0.098021
     89          1           0        3.466211    3.169133    1.578349
     90          1           0        1.799226    3.152540    0.871622
     91          1           0        3.225633    3.759874   -0.049379
     92          1           0       -2.832573   -2.589546   -0.032181
     93          1           0       -2.528588   -2.503317   -1.995336
     94          1           0       -1.339745   -2.586123   -0.808268
     95          1           0        2.361002   -0.103812   -0.825217
     96          1           0       -2.146850    1.120624    0.203734
     97          1           0        0.494266    2.095640    0.260591
     98          1           0        0.119410   -0.880186   -0.558536
 ---------------------------------------------------------------------

 SCF Done:  E(RCAM-B3LYP) =  -1706.91439268     A.U. after   15 cycles

 Excitation energies and oscillator strengths:

 Excited State   1:      Singlet-A      2.1365 eV  580.31 nm  f=3.3305  <S**2>=0.000
     155 ->158        -0.13194
     156 ->157         0.69750
     156 <-157        -0.10559
 This state for optimization and/or second-order correction.
 Total Energy, E(TD-HF/TD-DFT) =  -1706.83587760
 Copying the excited state density for this state as the 1-particle RhoCI density.

 The electronic state is 1-A.
 Alpha  occ. eigenvalues --  -19.22463 -19.20425 -10.28920 -10.28100 -10.27877
 Alpha  occ. eigenvalues --  -10.27554 -10.27479 -10.27438 -10.27212 -10.27138
 Alpha  occ. eigenvalues --  -10.26929 -10.26817 -10.26575 -10.26541 -10.26442
 Alpha  occ. eigenvalues --  -10.26412 -10.26358 -10.26312 -10.26276 -10.26267
 Alpha  occ. eigenvalues --  -10.26215 -10.26135 -10.26074 -10.26022 -10.25853
 Alpha  occ. eigenvalues --  -10.25741 -10.25350 -10.25329 -10.25237 -10.25207
 Alpha  occ. eigenvalues --  -10.25202 -10.25144 -10.24941 -10.24897 -10.24871
 Alpha  occ. eigenvalues --  -10.24783 -10.24779 -10.24504 -10.24434 -10.24044
 Alpha  occ. eigenvalues --  -10.23607 -10.21247  -1.11175  -1.06639  -0.94340
 Alpha  occ. eigenvalues --   -0.93192  -0.92912  -0.92003  -0.90290  -0.89947
 Alpha  occ. eigenvalues --   -0.88145  -0.87480  -0.86387  -0.85971  -0.85247
 Alpha  occ. eigenvalues --   -0.83186  -0.81960  -0.80911  -0.80762  -0.77882
 Alpha  occ. eigenvalues --   -0.77120  -0.76495  -0.76343  -0.76158  -0.75907
 Alpha  occ. eigenvalues --   -0.75691  -0.75525  -0.74882  -0.73592  -0.70878
 Alpha  occ. eigenvalues --   -0.69594  -0.68382  -0.66920  -0.65473  -0.64486
 Alpha  occ. eigenvalues --   -0.64086  -0.62499  -0.61435  -0.60398  -0.60134
 Alpha  occ. eigenvalues --   -0.59895  -0.59631  -0.58912  -0.57911  -0.55942
 Alpha  occ. eigenvalues --   -0.55296  -0.55015  -0.54839  -0.54209  -0.53464
 Alpha  occ. eigenvalues --   -0.53066  -0.52657  -0.52272  -0.51814  -0.51302
 Alpha  occ. eigenvalues --   -0.50772  -0.50626  -0.50360  -0.50248  -0.49460
 Alpha  occ. eigenvalues --   -0.49341  -0.49209  -0.48810  -0.48415  -0.48196
 Alpha  occ. eigenvalues --   -0.47999  -0.47547  -0.47316  -0.47281  -0.47120
 Alpha  occ. eigenvalues --   -0.46089  -0.45852  -0.45577  -0.45426  -0.44851
 Alpha  occ. eigenvalues --   -0.44757  -0.44393  -0.44212  -0.43963  -0.43663
 Alpha  occ. eigenvalues --   -0.43457  -0.43316  -0.43121  -0.42328  -0.41634
 Alpha  occ. eigenvalues --   -0.41631  -0.41328  -0.41063  -0.40953  -0.40292
 Alpha  occ. eigenvalues --   -0.40240  -0.39755  -0.39400  -0.39157  -0.39028
 Alpha  occ. eigenvalues --   -0.38892  -0.38762  -0.38565  -0.38253  -0.38042
 Alpha  occ. eigenvalues --   -0.37856  -0.37278  -0.36947  -0.36632  -0.36140
 Alpha  occ. eigenvalues --   -0.35891  -0.35249  -0.33939  -0.32986  -0.32068
 Alpha  occ. eigenvalues --   -0.31620  -0.29552  -0.27845  -0.26346  -0.23046
 Alpha  occ. eigenvalues --   -0.18944
 Alpha virt. eigenvalues --   -0.05978  -0.00603   0.03114   0.05805   0.07901
 Alpha virt. eigenvalues --    0.09275   0.10315   0.11751   0.12111   0.12993
 Alpha virt. eigenvalues --    0.13096   0.13492   0.13719   0.13870   0.14299

 Mulliken charges:
               1
     1  O   -0.571123
     2  O   -0.547027
     3  C    0.006484
     4  C   -0.018338
     5  C   -0.186485
     6  C   -0.210247
     7  C    0.192718
     8  C    0.187294
     9  C    0.038882
    10  C    0.084715
    11  C   -0.260941
    12  C   -0.183312
    13  C    0.097254
    14  C   -0.031469
    15  C   -0.305625
    16  C   -0.307641
    17  C   -0.295714
    18  C   -0.331972
    19  C   -0.084705
    20  C   -0.149568
    21  C   -0.372666
    22  C   -0.348169
    23  C   -0.123853
    24  C   -0.091146
    25  C    0.059424
    26  C    0.120337
    27  C   -0.372553
    28  C   -0.378586
    29  C   -0.090111
    30  C   -0.144879
    31  C   -0.073475
    32  C   -0.131741
    33  C   -0.131380
    34  C   -0.099464
    35  C    0.060802
    36  C    0.189589
    37  C   -0.365995
    38  C   -0.380944
    39  C   -0.115927
    40  C   -0.160712
    41  C   -0.051340
    42  C   -0.114422
    43  H    0.094825
    44  H    0.079194
    45  H    0.061512
    46  H    0.111065
    47  H    0.084207
    48  H    0.073965
    49  H    0.129510
    50  H    0.085443
    51  H    0.129083
    52  H    0.102567
    53  H    0.097781
    54  H    0.095531
    55  H    0.118732
    56  H    0.083554
    57  H    0.096706
    58  H    0.097915
    59  H    0.116268
    60  H    0.106529
    61  H    0.081694
    62  H    0.111603
    63  H    0.095528
    64  H    0.099950
    65  H    0.079855
    66  H    0.095028
    67  H    0.123932
    68  H    0.088178
    69  H    0.106108
    70  H    0.101865
    71  H    0.121875
    72  H    0.120147
    73  H    0.311692
    74  H    0.290151
    75  H    0.074148
    76  H    0.093931
    77  H    0.099571
    78  H    0.128936
    79  H    0.129200
    80  H    0.124726
    81  H    0.124728
    82  H    0.119936
    83  H    0.082213
    84  H    0.074749
    85  H    0.095691
    86  H    0.080245
    87  H    0.085731
    88  H    0.083978
    89  H    0.117703
    90  H    0.097421
    91  H    0.135639
    92  H    0.120693
    93  H    0.096255
    94  H    0.117562
    95  H    0.074778
    96  H    0.074374
    97  H    0.079839
    98  H    0.089989
 Sum of Mulliken charges =  -0.00000

 Dipole moment (field-independent basis, Debye):
    X=             -0.9162    Y=             -2.5018    Z=              0.4519  Tot=              2.7023
 Quadrupole moment (field-independent basis, Debye-Ang):
   XX=           -288.5442   YY=           -238.0569   ZZ=           -259.2080
   XY=              5.1518   XZ=            -17.7472   YZ=              3.9059

 Normal termination of Gaussian 16 at Mon Jul 15 10:38:25 2019.
