 Gaussian 16, Revision A.03,
 Gaussian 16:  ES64L-G16RevA.03 25-Dec-2016

 -------------------------------------
 # td=(NStates=1) CAM-B3LYP/6-31G(d,p)
 -------------------------------------

 --
 TD
 --
 Symbolic Z-matrix:
 Charge =  0 Multiplicity = 1

                         Standard orientation:
 ---------------------------------------------------------------------
 Center     Atomic      Atomic             Coordinates (Angstroms)
 Number     Number       Type             X           Y           Z
 ---------------------------------------------------------------------
      1          8           0       14.720529   -2.241609   -0.157595
      2          8           0      -14.758105    1.884633    1.007772
      3          6           0       11.204680   -1.503698    0.850290
      4          6           0      -12.512683   -1.015389    0.517936
      5          6           0       12.685329   -1.916134    0.990423
      6          6           0      -13.797057   -0.265717    0.635375
      7          6           0       13.321637   -1.791221   -0.325164
      8          6           0      -13.489817    1.267115    0.936278
      9          6           0       11.015027   -0.284855   -0.031535
     10          6           0      -11.374461   -0.249058   -0.162927
     11          6           0       13.356380   -0.362873   -0.765732
     12          6           0      -12.771529    1.825478   -0.347677
     13          6           0       11.989918    0.232164   -0.780622
     14          6           0      -11.530356    1.115299   -0.606874
     15          6           0       10.586469   -1.322401    2.245081
     16          6           0       10.445672   -2.623418    0.150484
     17          6           0      -12.043526   -1.430832    1.949618
     18          6           0      -12.815540   -2.281780   -0.303746
     19          6           0        9.730980    0.374270    0.025395
     20          6           0      -10.113606   -0.932732   -0.293447
     21          6           0       11.777343    1.340100   -1.689090
     22          6           0      -10.461753    1.837811   -1.301456
     23          6           0        9.495975    1.812501    0.080795
     24          6           0       -8.840018   -0.435367   -0.205307
     25          6           0        8.128564    2.271774    0.345344
     26          6           0       -7.607911   -1.179741   -0.490809
     27          6           0        8.069330    3.723512    0.664538
     28          6           0       -7.624868   -2.612308   -0.864295
     29          6           0        6.999263    1.456966    0.101413
     30          6           0       -6.392961   -0.558111   -0.377301
     31          6           0        5.596603    1.958389    0.204209
     32          6           0       -5.101441   -1.055021   -0.497841
     33          6           0        4.510902    1.160505    0.170270
     34          6           0       -3.961040   -0.289009   -0.374457
     35          6           0        3.134720    1.543850    0.158646
     36          6           0       -2.593619   -0.753208   -0.523516
     37          6           0        2.774008    3.043383    0.336697
     38          6           0       -2.406013   -2.199753   -0.820475
     39          6           0        2.167982    0.698732   -0.215320
     40          6           0       -1.556977    0.150448   -0.231530
     41          6           0        0.785184    0.941751   -0.141984
     42          6           0       -0.184332   -0.023233   -0.484836
     43          1           0       13.183083   -1.117410    1.634225
     44          1           0       12.692953   -2.694714    1.453082
     45          1           0      -14.494747   -0.721831    1.320973
     46          1           0      -14.206581   -0.290158   -0.229368
     47          1           0       12.857595   -2.392484   -1.112273
     48          1           0      -12.983725    1.245776    1.889334
     49          1           0       14.073418    0.121235   -0.144822
     50          1           0       13.932814   -0.325706   -1.714483
     51          1           0      -13.414862    1.687444   -1.277423
     52          1           0      -12.557348    2.908096   -0.164732
     53          1           0       10.816605   -2.263792    2.845563
     54          1           0        9.425095   -1.628104    2.139458
     55          1           0       11.237954   -0.577059    2.902591
     56          1           0       10.823298   -2.817911   -0.936384
     57          1           0       10.646904   -3.718685    0.804880
     58          1           0        9.295072   -2.442185    0.015234
     59          1           0      -11.898762   -0.501215    2.576356
     60          1           0      -11.106227   -1.994502    2.002984
     61          1           0      -12.709267   -2.014642    2.352882
     62          1           0      -13.767035   -2.977900    0.144382
     63          1           0      -11.904864   -2.963818   -0.439110
     64          1           0      -13.015551   -2.077980   -1.334430
     65          1           0        8.926915   -0.352917    0.435216
     66          1           0      -10.354746   -1.959329   -0.614582
     67          1           0       10.648287    1.573087   -1.994744
     68          1           0       12.326455    2.120246   -1.208497
     69          1           0       12.362896    1.114784   -2.695701
     70          1           0      -11.061804    2.412698   -2.114832
     71          1           0       -9.719338    1.116121   -1.716552
     72          1           0       -9.801881    2.473399   -0.587547
     73          1           0       14.868706   -3.176270    0.046595
     74          1           0      -15.436771    1.143826    1.454007
     75          1           0       10.308945    2.510066    0.044080
     76          1           0       -8.792745    0.487397    0.285733
     77          1           0        9.054756    4.329766    0.726967
     78          1           0        7.599040    4.432247   -0.261237
     79          1           0        7.461251    3.916382    1.601582
     80          1           0       -8.069311   -3.053541   -0.110887
     81          1           0       -8.184342   -2.600133   -1.908006
     82          1           0       -6.731973   -3.035015   -1.079868
     83          1           0        7.256784    0.342676   -0.163544
     84          1           0       -6.256410    0.533750   -0.025848
     85          1           0        5.464696    3.163776    0.257856
     86          1           0       -4.896687   -2.102812   -0.671579
     87          1           0        4.638370    0.000330    0.062274
     88          1           0       -4.206528    0.716663    0.006633
     89          1           0        3.070071    3.637922    1.325934
     90          1           0        1.652876    2.917772    0.413961
     91          1           0        3.124331    3.619254   -0.487925
     92          1           0       -2.285065   -2.814513    0.339029
     93          1           0       -3.184140   -2.661799   -1.670218
     94          1           0       -1.342347   -2.261286   -1.050445
     95          1           0        2.335825   -0.324878   -0.592535
     96          1           0       -1.847863    1.131695   -0.068504
     97          1           0        0.596996    2.037821    0.205914
     98          1           0        0.270788   -0.984944   -0.874168
 ---------------------------------------------------------------------

 SCF Done:  E(RCAM-B3LYP) =  -1706.93170207     A.U. after   15 cycles

 Excitation energies and oscillator strengths:

 Excited State   1:      Singlet-A      2.2506 eV  550.90 nm  f=3.6940  <S**2>=0.000
     155 ->158         0.19557
     156 ->157         0.67372
 This state for optimization and/or second-order correction.
 Total Energy, E(TD-HF/TD-DFT) =  -1706.84899429
 Copying the excited state density for this state as the 1-particle RhoCI density.

 The electronic state is 1-A.
 Alpha  occ. eigenvalues --  -19.21449 -19.19892 -10.30547 -10.30180 -10.28719
 Alpha  occ. eigenvalues --  -10.28137 -10.27750 -10.27726 -10.27698 -10.27677
 Alpha  occ. eigenvalues --  -10.27319 -10.27298 -10.27286 -10.27198 -10.27195
 Alpha  occ. eigenvalues --  -10.27185 -10.27161 -10.27041 -10.27041 -10.27005
 Alpha  occ. eigenvalues --  -10.26751 -10.26398 -10.26283 -10.26216 -10.26196
 Alpha  occ. eigenvalues --  -10.25997 -10.25929 -10.25926 -10.25924 -10.25865
 Alpha  occ. eigenvalues --  -10.25810 -10.25801 -10.25752 -10.25736 -10.25579
 Alpha  occ. eigenvalues --  -10.25352 -10.25118 -10.24816 -10.24135 -10.23438
 Alpha  occ. eigenvalues --  -10.23433 -10.23412  -1.07489  -1.06914  -0.94950
 Alpha  occ. eigenvalues --   -0.93613  -0.92058  -0.91488  -0.90141  -0.89522
 Alpha  occ. eigenvalues --   -0.88162  -0.87781  -0.86729  -0.85659  -0.84902
 Alpha  occ. eigenvalues --   -0.83355  -0.81536  -0.79628  -0.79404  -0.77587
 Alpha  occ. eigenvalues --   -0.77088  -0.76839  -0.76663  -0.75726  -0.75546
 Alpha  occ. eigenvalues --   -0.75310  -0.74593  -0.74429  -0.72833  -0.69974
 Alpha  occ. eigenvalues --   -0.68676  -0.67692  -0.66157  -0.65625  -0.63691
 Alpha  occ. eigenvalues --   -0.63267  -0.63083  -0.61496  -0.60402  -0.60100
 Alpha  occ. eigenvalues --   -0.58929  -0.58326  -0.57567  -0.57476  -0.56321
 Alpha  occ. eigenvalues --   -0.56085  -0.55124  -0.54970  -0.54232  -0.53205
 Alpha  occ. eigenvalues --   -0.52926  -0.52148  -0.51977  -0.51619  -0.50991
 Alpha  occ. eigenvalues --   -0.50767  -0.50406  -0.50006  -0.49516  -0.49317
 Alpha  occ. eigenvalues --   -0.49258  -0.48512  -0.48300  -0.48171  -0.47787
 Alpha  occ. eigenvalues --   -0.47736  -0.47288  -0.46807  -0.46116  -0.45956
 Alpha  occ. eigenvalues --   -0.45768  -0.45244  -0.45159  -0.44841  -0.44716
 Alpha  occ. eigenvalues --   -0.44594  -0.44555  -0.44472  -0.43854  -0.43616
 Alpha  occ. eigenvalues --   -0.42820  -0.42527  -0.42208  -0.42171  -0.42062
 Alpha  occ. eigenvalues --   -0.41688  -0.41435  -0.41300  -0.41105  -0.40956
 Alpha  occ. eigenvalues --   -0.40339  -0.40081  -0.39801  -0.39506  -0.39420
 Alpha  occ. eigenvalues --   -0.38967  -0.38731  -0.38437  -0.38088  -0.37759
 Alpha  occ. eigenvalues --   -0.37495  -0.37142  -0.36820  -0.36350  -0.35678
 Alpha  occ. eigenvalues --   -0.35130  -0.34617  -0.33888  -0.32280  -0.31825
 Alpha  occ. eigenvalues --   -0.31258  -0.29604  -0.27830  -0.25200  -0.22617
 Alpha  occ. eigenvalues --   -0.19418
 Alpha virt. eigenvalues --   -0.05302  -0.01601   0.01561   0.05286   0.07667
 Alpha virt. eigenvalues --    0.09615   0.10000   0.10256   0.11259   0.11337
 Alpha virt. eigenvalues --    0.12016   0.12672   0.13005   0.13084   0.13631

 Mulliken charges:
               1
     1  O   -0.601145
     2  O   -0.572899
     3  C   -0.040198
     4  C   -0.020970
     5  C   -0.111330
     6  C   -0.198522
     7  C    0.163853
     8  C    0.189473
     9  C    0.108500
    10  C    0.047404
    11  C   -0.231619
    12  C   -0.234230
    13  C    0.062867
    14  C    0.064754
    15  C   -0.305604
    16  C   -0.287109
    17  C   -0.290855
    18  C   -0.309091
    19  C   -0.134174
    20  C   -0.115928
    21  C   -0.374365
    22  C   -0.364151
    23  C   -0.114253
    24  C   -0.113356
    25  C    0.106982
    26  C    0.069768
    27  C   -0.375868
    28  C   -0.339182
    29  C   -0.118364
    30  C   -0.120778
    31  C   -0.106853
    32  C   -0.071675
    33  C   -0.095273
    34  C   -0.120460
    35  C    0.079892
    36  C    0.108841
    37  C   -0.349306
    38  C   -0.354978
    39  C   -0.098579
    40  C   -0.112035
    41  C   -0.083153
    42  C   -0.116718
    43  H    0.090544
    44  H    0.071427
    45  H    0.077358
    46  H    0.108935
    47  H    0.087982
    48  H    0.089065
    49  H    0.125916
    50  H    0.106384
    51  H    0.122143
    52  H    0.115231
    53  H    0.088566
    54  H    0.100527
    55  H    0.112108
    56  H    0.102955
    57  H    0.058487
    58  H    0.096616
    59  H    0.091242
    60  H    0.102300
    61  H    0.105971
    62  H    0.067882
    63  H    0.094022
    64  H    0.114401
    65  H    0.079790
    66  H    0.075267
    67  H    0.124268
    68  H    0.122688
    69  H    0.086373
    70  H    0.093079
    71  H    0.130775
    72  H    0.111338
    73  H    0.302672
    74  H    0.304334
    75  H    0.108007
    76  H    0.096629
    77  H    0.106873
    78  H    0.089807
    79  H    0.124876
    80  H    0.133440
    81  H    0.101975
    82  H    0.115465
    83  H    0.084972
    84  H    0.063501
    85  H    0.088219
    86  H    0.074733
    87  H    0.072235
    88  H    0.073843
    89  H    0.098226
    90  H    0.089481
    91  H    0.136589
    92  H    0.092071
    93  H    0.112513
    94  H    0.115388
    95  H    0.077795
    96  H    0.089838
    97  H    0.086747
    98  H    0.086819
 Sum of Mulliken charges =  -0.00000

 Dipole moment (field-independent basis, Debye):
    X=              0.4016    Y=             -2.3563    Z=              0.5663  Tot=              2.4564
 Quadrupole moment (field-independent basis, Debye-Ang):
   XX=           -256.3167   YY=           -245.1698   ZZ=           -263.8642
   XY=             16.0262   XZ=              0.2377   YZ=              0.6062

 Normal termination of Gaussian 16 at Tue Jul  9 00:13:05 2019.
