 Gaussian 16, Revision A.03,
 Gaussian 16:  ES64L-G16RevA.03 25-Dec-2016

 -------------------------------------
 # td=(NStates=1) CAM-B3LYP/6-31G(d,p)
 -------------------------------------

 --
 TD
 --
 Symbolic Z-matrix:
 Charge =  0 Multiplicity = 1

                         Standard orientation:
 ---------------------------------------------------------------------
 Center     Atomic      Atomic             Coordinates (Angstroms)
 Number     Number       Type             X           Y           Z
 ---------------------------------------------------------------------
      1          8           0       14.739534   -2.272329    0.162376
      2          8           0      -14.583161    2.075524    1.139889
      3          6           0       11.147244   -1.326029    0.966078
      4          6           0      -12.319114   -0.997785    0.768780
      5          6           0       12.574486   -1.667510    1.196139
      6          6           0      -13.633962   -0.077250    0.705669
      7          6           0       13.341447   -1.901066   -0.078568
      8          6           0      -13.401658    1.330240    1.002532
      9          6           0       10.907124   -0.234709   -0.049073
     10          6           0      -11.209206   -0.208827   -0.070686
     11          6           0       13.301392   -0.537774   -0.844002
     12          6           0      -12.687209    1.959631   -0.071918
     13          6           0       11.917901    0.109465   -0.863490
     14          6           0      -11.497955    1.021261   -0.534620
     15          6           0       10.686727   -0.731936    2.359035
     16          6           0       10.298762   -2.603672    0.680062
     17          6           0      -11.874794   -1.361067    2.156225
     18          6           0      -12.733658   -2.224716   -0.064311
     19          6           0        9.629545    0.395822    0.012408
     20          6           0      -10.000236   -0.965499   -0.360765
     21          6           0       11.752853    1.213872   -1.862104
     22          6           0      -10.566581    1.782607   -1.337340
     23          6           0        9.343639    1.712244   -0.083253
     24          6           0       -8.737900   -0.492818   -0.402931
     25          6           0        8.011322    2.239847    0.081697
     26          6           0       -7.564506   -1.282020   -0.722557
     27          6           0        7.877044    3.832144    0.257603
     28          6           0       -7.705243   -2.652909   -1.166465
     29          6           0        6.839309    1.519971   -0.042426
     30          6           0       -6.352766   -0.579713   -0.476696
     31          6           0        5.539455    1.972729   -0.004439
     32          6           0       -5.045832   -1.171341   -0.825924
     33          6           0        4.437038    1.179492   -0.100731
     34          6           0       -3.893066   -0.494930   -0.521001
     35          6           0        3.099555    1.561972    0.039328
     36          6           0       -2.569476   -1.012866   -0.578256
     37          6           0        2.666935    3.009072    0.498788
     38          6           0       -2.304143   -2.365732   -1.014646
     39          6           0        2.077930    0.636592   -0.038334
     40          6           0       -1.536678   -0.047926   -0.337705
     41          6           0        0.727128    0.795079   -0.052209
     42          6           0       -0.250739   -0.277536   -0.315955
     43          1           0       13.163799   -0.981954    1.709049
     44          1           0       12.496421   -2.567060    1.846908
     45          1           0      -14.094508   -0.695165    1.334663
     46          1           0      -13.812622   -0.128897   -0.376173
     47          1           0       12.913536   -2.627991   -0.679132
     48          1           0      -12.996856    1.376408    1.857165
     49          1           0       14.111007    0.257047   -0.425052
     50          1           0       13.674128   -0.824205   -1.945798
     51          1           0      -13.254251    2.000436   -0.939278
     52          1           0      -12.478087    2.922458    0.372077
     53          1           0       10.580323   -1.323003    3.201579
     54          1           0        9.751558   -0.361053    2.403857
     55          1           0       11.312947    0.231627    2.802835
     56          1           0       10.672501   -3.224255   -0.095365
     57          1           0       10.349628   -3.378799    1.306839
     58          1           0        9.317166   -2.516357    0.353256
     59          1           0      -11.827469   -0.441964    2.787376
     60          1           0      -10.904891   -1.849709    2.119558
     61          1           0      -12.789308   -2.016406    2.557400
     62          1           0      -13.701020   -2.780709    0.202216
     63          1           0      -11.926268   -2.983744   -0.356725
     64          1           0      -12.793266   -2.084578   -1.314936
     65          1           0        8.830788   -0.261823    0.403660
     66          1           0      -10.235130   -1.840622   -0.611171
     67          1           0       10.815594    1.686588   -2.079301
     68          1           0       12.552280    2.139299   -1.557718
     69          1           0       12.362134    0.978838   -2.822696
     70          1           0      -10.914882    2.356922   -2.046287
     71          1           0       -9.874570    1.010224   -1.823043
     72          1           0       -9.810207    2.355075   -0.700375
     73          1           0       14.740897   -3.154637    0.658192
     74          1           0      -15.091869    1.836405    1.972037
     75          1           0       10.242818    2.345381   -0.209996
     76          1           0       -8.640301    0.553273   -0.078335
     77          1           0        8.866542    4.253600    0.359699
     78          1           0        7.121867    4.328642   -0.453577
     79          1           0        7.385009    4.161984    1.203612
     80          1           0       -8.227226   -3.305219   -0.473442
     81          1           0       -8.259740   -2.861085   -1.930524
     82          1           0       -6.905066   -3.304791   -1.378423
     83          1           0        7.313041    0.539233   -0.323127
     84          1           0       -6.407261    0.422287   -0.170663
     85          1           0        5.213998    3.057819    0.222968
     86          1           0       -4.802111   -2.034520   -1.156797
     87          1           0        4.629207    0.122742   -0.413546
     88          1           0       -3.940408    0.560815   -0.179409
     89          1           0        2.921893    3.389861    1.565322
     90          1           0        1.548197    3.168931    0.210655
     91          1           0        3.199742    3.875983   -0.283338
     92          1           0       -2.719274   -3.120470   -0.215135
     93          1           0       -2.656648   -2.530117   -2.102991
     94          1           0       -1.241835   -2.680567   -1.039011
     95          1           0        2.634354   -0.352185   -0.187302
     96          1           0       -1.721277    0.966051   -0.103905
     97          1           0        0.193089    1.838134   -0.230204
     98          1           0        0.108224   -1.268206   -0.589922
 ---------------------------------------------------------------------

 SCF Done:  E(RCAM-B3LYP) =  -1706.90457591     A.U. after   16 cycles

 Excitation energies and oscillator strengths:

 Excited State   1:      Singlet-A      1.8640 eV  665.13 nm  f=3.6813  <S**2>=0.000
     155 ->158        -0.12823
     156 ->157         0.70207
     156 <-157        -0.12375
 This state for optimization and/or second-order correction.
 Total Energy, E(TD-HF/TD-DFT) =  -1706.83607334
 Copying the excited state density for this state as the 1-particle RhoCI density.

 The electronic state is 1-A.
 Alpha  occ. eigenvalues --  -19.21263 -19.19914 -10.30019 -10.28539 -10.28123
 Alpha  occ. eigenvalues --  -10.27893 -10.27875 -10.27851 -10.27761 -10.27579
 Alpha  occ. eigenvalues --  -10.27561 -10.27530 -10.27380 -10.27192 -10.27006
 Alpha  occ. eigenvalues --  -10.26993 -10.26729 -10.26721 -10.26613 -10.26413
 Alpha  occ. eigenvalues --  -10.26405 -10.26210 -10.26037 -10.26023 -10.25961
 Alpha  occ. eigenvalues --  -10.25924 -10.25847 -10.25699 -10.25662 -10.25628
 Alpha  occ. eigenvalues --  -10.25622 -10.25319 -10.25214 -10.25189 -10.24144
 Alpha  occ. eigenvalues --  -10.23942 -10.23850 -10.23813 -10.23667 -10.23415
 Alpha  occ. eigenvalues --  -10.23111 -10.22621  -1.08649  -1.07108  -0.94560
 Alpha  occ. eigenvalues --   -0.93508  -0.92684  -0.91703  -0.90929  -0.90094
 Alpha  occ. eigenvalues --   -0.87874  -0.87123  -0.86933  -0.86047  -0.85421
 Alpha  occ. eigenvalues --   -0.83766  -0.82333  -0.81198  -0.80203  -0.78544
 Alpha  occ. eigenvalues --   -0.78254  -0.77796  -0.76293  -0.76083  -0.75680
 Alpha  occ. eigenvalues --   -0.75274  -0.75001  -0.74845  -0.73317  -0.71543
 Alpha  occ. eigenvalues --   -0.69262  -0.68283  -0.66388  -0.65769  -0.65401
 Alpha  occ. eigenvalues --   -0.64028  -0.63277  -0.62142  -0.61805  -0.60792
 Alpha  occ. eigenvalues --   -0.59713  -0.59183  -0.58573  -0.58036  -0.57405
 Alpha  occ. eigenvalues --   -0.56060  -0.55673  -0.55209  -0.55001  -0.54482
 Alpha  occ. eigenvalues --   -0.53369  -0.52667  -0.51920  -0.51728  -0.50997
 Alpha  occ. eigenvalues --   -0.50705  -0.50113  -0.49710  -0.49676  -0.49379
 Alpha  occ. eigenvalues --   -0.49078  -0.48791  -0.48467  -0.48314  -0.47911
 Alpha  occ. eigenvalues --   -0.47806  -0.47091  -0.46547  -0.46467  -0.46200
 Alpha  occ. eigenvalues --   -0.46042  -0.45830  -0.45750  -0.45151  -0.45089
 Alpha  occ. eigenvalues --   -0.44988  -0.44784  -0.44436  -0.43654  -0.43640
 Alpha  occ. eigenvalues --   -0.43279  -0.43025  -0.42782  -0.42032  -0.41793
 Alpha  occ. eigenvalues --   -0.41710  -0.41435  -0.41264  -0.41000  -0.40641
 Alpha  occ. eigenvalues --   -0.40121  -0.40037  -0.39782  -0.39477  -0.39295
 Alpha  occ. eigenvalues --   -0.39030  -0.38792  -0.38441  -0.38248  -0.37988
 Alpha  occ. eigenvalues --   -0.37607  -0.37040  -0.36803  -0.36465  -0.35970
 Alpha  occ. eigenvalues --   -0.35413  -0.34880  -0.33491  -0.32582  -0.32290
 Alpha  occ. eigenvalues --   -0.31343  -0.29941  -0.28735  -0.25974  -0.23601
 Alpha  occ. eigenvalues --   -0.18311
 Alpha virt. eigenvalues --   -0.07132  -0.00957   0.01828   0.05973   0.08037
 Alpha virt. eigenvalues --    0.09908   0.11251   0.11955   0.12236   0.12427
 Alpha virt. eigenvalues --    0.12760   0.12993   0.13247   0.13312   0.14086

 Mulliken charges:
               1
     1  O   -0.577909
     2  O   -0.583070
     3  C   -0.023796
     4  C   -0.039858
     5  C   -0.180302
     6  C   -0.170512
     7  C    0.167659
     8  C    0.221738
     9  C    0.100811
    10  C    0.047086
    11  C   -0.231107
    12  C   -0.208791
    13  C    0.067137
    14  C    0.017519
    15  C   -0.310693
    16  C   -0.331202
    17  C   -0.287188
    18  C   -0.310265
    19  C   -0.124254
    20  C   -0.083811
    21  C   -0.370022
    22  C   -0.363867
    23  C   -0.113464
    24  C   -0.113420
    25  C    0.065625
    26  C    0.134211
    27  C   -0.376660
    28  C   -0.396548
    29  C   -0.095224
    30  C   -0.134111
    31  C   -0.095136
    32  C   -0.059743
    33  C   -0.110695
    34  C   -0.106887
    35  C    0.116902
    36  C    0.109386
    37  C   -0.356263
    38  C   -0.393487
    39  C   -0.095747
    40  C   -0.094362
    41  C   -0.140076
    42  C   -0.068074
    43  H    0.116963
    44  H    0.075915
    45  H    0.072753
    46  H    0.104293
    47  H    0.092961
    48  H    0.065676
    49  H    0.110178
    50  H    0.096803
    51  H    0.126891
    52  H    0.115103
    53  H    0.102818
    54  H    0.112403
    55  H    0.072739
    56  H    0.098572
    57  H    0.111553
    58  H    0.113748
    59  H    0.104273
    60  H    0.120059
    61  H    0.081209
    62  H    0.103185
    63  H    0.093352
    64  H    0.072276
    65  H    0.096322
    66  H    0.052852
    67  H    0.136335
    68  H    0.074023
    69  H    0.100828
    70  H    0.108076
    71  H    0.104217
    72  H    0.102196
    73  H    0.305802
    74  H    0.296840
    75  H    0.108940
    76  H    0.090385
    77  H    0.106493
    78  H    0.114441
    79  H    0.112950
    80  H    0.118790
    81  H    0.135756
    82  H    0.118113
    83  H    0.077133
    84  H    0.092434
    85  H    0.087980
    86  H    0.062222
    87  H    0.078196
    88  H    0.073725
    89  H    0.127014
    90  H    0.106422
    91  H    0.066776
    92  H    0.116552
    93  H    0.125642
    94  H    0.115795
    95  H    0.077486
    96  H    0.076372
    97  H    0.089071
    98  H    0.078572
 Sum of Mulliken charges =  -0.00000

 Dipole moment (field-independent basis, Debye):
    X=             -0.4097    Y=             -2.9203    Z=              1.1377  Tot=              3.1607
 Quadrupole moment (field-independent basis, Debye-Ang):
   XX=           -298.6514   YY=           -240.6813   ZZ=           -259.0098
   XY=              6.1692   XZ=             -7.1012   YZ=              3.7324

 Normal termination of Gaussian 16 at Sat Jul 20 05:58:20 2019.
