 Gaussian 16, Revision A.03,
 Gaussian 16:  ES64L-G16RevA.03 25-Dec-2016

 -------------------------------------
 # td=(NStates=1) CAM-B3LYP/6-31G(d,p)
 -------------------------------------

 --
 TD
 --
 Symbolic Z-matrix:
 Charge =  0 Multiplicity = 1

                         Standard orientation:
 ---------------------------------------------------------------------
 Center     Atomic      Atomic             Coordinates (Angstroms)
 Number     Number       Type             X           Y           Z
 ---------------------------------------------------------------------
      1          8           0       14.679559   -2.389951   -0.082173
      2          8           0      -14.758065    1.808975    1.036893
      3          6           0       11.177663   -1.521968    0.961387
      4          6           0      -12.375294   -1.048321    0.656325
      5          6           0       12.620824   -1.966004    1.117192
      6          6           0      -13.657076   -0.283171    0.630899
      7          6           0       13.299019   -2.074306   -0.208844
      8          6           0      -13.516443    1.070160    0.967602
      9          6           0       10.974741   -0.256474    0.025004
     10          6           0      -11.190888   -0.242880   -0.093029
     11          6           0       13.265052   -0.603108   -0.825288
     12          6           0      -12.636310    1.835757   -0.052245
     13          6           0       11.971857    0.138858   -0.711335
     14          6           0      -11.451516    1.055161   -0.440084
     15          6           0       10.512100   -1.359191    2.395263
     16          6           0       10.288560   -2.711444    0.301250
     17          6           0      -11.945464   -1.300803    2.049405
     18          6           0      -12.607483   -2.474802   -0.080347
     19          6           0        9.634595    0.245595    0.156106
     20          6           0      -10.056122   -1.087249   -0.494872
     21          6           0       11.674404    1.276028   -1.665483
     22          6           0      -10.457264    1.887946   -1.276230
     23          6           0        9.414030    1.632502    0.113958
     24          6           0       -8.794878   -0.589366   -0.296940
     25          6           0        8.096197    2.242792    0.158997
     26          6           0       -7.623448   -1.268936   -0.504062
     27          6           0        8.159006    3.698562    0.561372
     28          6           0       -7.712582   -2.673098   -1.057543
     29          6           0        6.854694    1.629127   -0.033545
     30          6           0       -6.367885   -0.526834   -0.390749
     31          6           0        5.610696    2.070690    0.094664
     32          6           0       -5.072094   -1.043812   -0.454561
     33          6           0        4.417472    1.406282   -0.189642
     34          6           0       -3.959966   -0.270072   -0.419490
     35          6           0        3.140733    1.973184    0.018533
     36          6           0       -2.630201   -0.684436   -0.633244
     37          6           0        2.939348    3.382439    0.470687
     38          6           0       -2.412887   -2.123932   -1.029487
     39          6           0        2.132943    0.954529   -0.378992
     40          6           0       -1.563691    0.240827   -0.343264
     41          6           0        0.799496    1.170123   -0.199561
     42          6           0       -0.197589    0.054044   -0.357640
     43          1           0       13.135402   -1.046863    1.500897
     44          1           0       12.790296   -2.842969    1.675899
     45          1           0      -14.371642   -0.921095    1.251729
     46          1           0      -13.975549   -0.503418   -0.509345
     47          1           0       12.765683   -2.807883   -0.800421
     48          1           0      -12.935995    1.308432    2.026254
     49          1           0       14.159810   -0.116295   -0.387447
     50          1           0       13.524728   -0.796031   -1.907060
     51          1           0      -13.279408    1.803163   -0.880128
     52          1           0      -12.350355    2.789066    0.298739
     53          1           0       10.747921   -2.077901    3.221671
     54          1           0        9.626021   -1.132071    2.181232
     55          1           0       10.979417   -0.523593    2.669885
     56          1           0       10.795594   -2.983095   -0.637489
     57          1           0       10.052131   -3.479815    1.121492
     58          1           0        8.976502   -2.312372   -0.015400
     59          1           0      -11.651381   -0.252007    2.506634
     60          1           0      -10.842567   -1.700521    2.084515
     61          1           0      -12.584541   -1.967487    2.780482
     62          1           0      -13.423721   -3.165004    0.197334
     63          1           0      -11.693584   -3.371399    0.112118
     64          1           0      -12.785432   -2.244781   -1.244302
     65          1           0        8.733857   -0.328713    0.408477
     66          1           0      -10.329212   -2.131477   -1.085658
     67          1           0       10.612881    1.427054   -1.972892
     68          1           0       11.999677    2.227194   -1.147006
     69          1           0       12.291338    1.195116   -2.644684
     70          1           0      -11.097438    2.468369   -1.916333
     71          1           0       -9.986465    1.136309   -2.134078
     72          1           0       -9.810259    2.367768   -0.772920
     73          1           0       14.751752   -3.385672    0.038926
     74          1           0      -15.526922    1.215041    1.462345
     75          1           0       10.218857    2.219764    0.094268
     76          1           0       -8.622070    0.466193   -0.191068
     77          1           0        9.238012    4.121210    0.750085
     78          1           0        7.630715    4.310147   -0.205395
     79          1           0        7.823972    3.939494    1.747304
     80          1           0       -8.148041   -3.420542   -0.352504
     81          1           0       -8.372831   -2.580692   -2.041580
     82          1           0       -6.661357   -2.887559   -1.634426
     83          1           0        6.971914    0.703658   -0.454435
     84          1           0       -6.642999    0.524789   -0.065019
     85          1           0        5.547042    3.211493    0.379171
     86          1           0       -4.893535   -1.943037   -0.853089
     87          1           0        4.683619    0.416671   -0.679244
     88          1           0       -4.035757    0.622770    0.103787
     89          1           0        3.587825    3.679954    1.387394
     90          1           0        1.953139    3.486432    0.958840
     91          1           0        2.996211    3.949181   -0.384200
     92          1           0       -2.822238   -2.879635   -0.397361
     93          1           0       -3.236557   -2.418668   -1.786281
     94          1           0       -1.549552   -2.501618   -1.202169
     95          1           0        2.384584   -0.036069   -0.636117
     96          1           0       -1.918819    1.446690   -0.178950
     97          1           0        0.171365    2.044624   -0.041163
     98          1           0        0.499911   -0.800885   -0.692089
 ---------------------------------------------------------------------

 SCF Done:  E(RCAM-B3LYP) =  -1706.83302021     A.U. after   17 cycles

 Excitation energies and oscillator strengths:

 Excited State   1:      Singlet-A      1.6021 eV  773.90 nm  f=3.7190  <S**2>=0.000
     155 ->158        -0.11962
     156 ->157         0.71041
     156 <-157        -0.15425
 This state for optimization and/or second-order correction.
 Total Energy, E(TD-HF/TD-DFT) =  -1706.77414506
 Copying the excited state density for this state as the 1-particle RhoCI density.

 The electronic state is 1-A.
 Alpha  occ. eigenvalues --  -19.21934 -19.21144 -10.30762 -10.30324 -10.29129
 Alpha  occ. eigenvalues --  -10.28646 -10.28028 -10.27931 -10.27825 -10.27734
 Alpha  occ. eigenvalues --  -10.27613 -10.27572 -10.27455 -10.27446 -10.27279
 Alpha  occ. eigenvalues --  -10.26999 -10.26965 -10.26873 -10.26817 -10.26804
 Alpha  occ. eigenvalues --  -10.26798 -10.26653 -10.26583 -10.26558 -10.26301
 Alpha  occ. eigenvalues --  -10.26251 -10.26036 -10.25980 -10.25968 -10.25869
 Alpha  occ. eigenvalues --  -10.25805 -10.25673 -10.25621 -10.24833 -10.24818
 Alpha  occ. eigenvalues --  -10.24736 -10.24614 -10.24536 -10.24395 -10.24294
 Alpha  occ. eigenvalues --  -10.24195 -10.21873  -1.09200  -1.06785  -0.93938
 Alpha  occ. eigenvalues --   -0.93597  -0.92098  -0.91732  -0.90361  -0.89892
 Alpha  occ. eigenvalues --   -0.87492  -0.87058  -0.86688  -0.85613  -0.84619
 Alpha  occ. eigenvalues --   -0.83311  -0.82569  -0.79833  -0.79645  -0.79087
 Alpha  occ. eigenvalues --   -0.77076  -0.76350  -0.76275  -0.76091  -0.75653
 Alpha  occ. eigenvalues --   -0.74859  -0.74263  -0.73875  -0.72640  -0.70575
 Alpha  occ. eigenvalues --   -0.68990  -0.67346  -0.65724  -0.65209  -0.63613
 Alpha  occ. eigenvalues --   -0.62624  -0.62284  -0.61816  -0.61610  -0.60159
 Alpha  occ. eigenvalues --   -0.59629  -0.59157  -0.57780  -0.56849  -0.55931
 Alpha  occ. eigenvalues --   -0.55710  -0.55365  -0.54822  -0.54247  -0.53850
 Alpha  occ. eigenvalues --   -0.53237  -0.52766  -0.52154  -0.52014  -0.51949
 Alpha  occ. eigenvalues --   -0.50673  -0.50478  -0.50311  -0.50186  -0.49414
 Alpha  occ. eigenvalues --   -0.49111  -0.48729  -0.48177  -0.47973  -0.47783
 Alpha  occ. eigenvalues --   -0.47548  -0.47467  -0.47088  -0.46597  -0.46486
 Alpha  occ. eigenvalues --   -0.45926  -0.45491  -0.45247  -0.45142  -0.44898
 Alpha  occ. eigenvalues --   -0.44786  -0.44640  -0.43919  -0.43492  -0.43318
 Alpha  occ. eigenvalues --   -0.43031  -0.42646  -0.42287  -0.41884  -0.41776
 Alpha  occ. eigenvalues --   -0.41238  -0.41158  -0.40837  -0.40788  -0.40172
 Alpha  occ. eigenvalues --   -0.39863  -0.39626  -0.39564  -0.39063  -0.38774
 Alpha  occ. eigenvalues --   -0.38520  -0.38294  -0.37913  -0.37888  -0.37278
 Alpha  occ. eigenvalues --   -0.37007  -0.36979  -0.36568  -0.36020  -0.35669
 Alpha  occ. eigenvalues --   -0.35103  -0.34441  -0.33419  -0.32306  -0.31754
 Alpha  occ. eigenvalues --   -0.30989  -0.29767  -0.28592  -0.26076  -0.22844
 Alpha  occ. eigenvalues --   -0.17391
 Alpha virt. eigenvalues --   -0.07919  -0.01694   0.01728   0.06130   0.08062
 Alpha virt. eigenvalues --    0.09243   0.10230   0.11233   0.11463   0.11620
 Alpha virt. eigenvalues --    0.11946   0.11988   0.12373   0.13058   0.13216

 Mulliken charges:
               1
     1  O   -0.562524
     2  O   -0.587343
     3  C   -0.051567
     4  C    0.008324
     5  C   -0.164315
     6  C   -0.185688
     7  C    0.153061
     8  C    0.202894
     9  C    0.096528
    10  C    0.038112
    11  C   -0.253887
    12  C   -0.208796
    13  C    0.067019
    14  C    0.020631
    15  C   -0.283122
    16  C   -0.274864
    17  C   -0.289938
    18  C   -0.309349
    19  C   -0.119924
    20  C   -0.149456
    21  C   -0.381360
    22  C   -0.349791
    23  C   -0.098566
    24  C   -0.080707
    25  C    0.081097
    26  C    0.113152
    27  C   -0.372488
    28  C   -0.366239
    29  C   -0.103929
    30  C   -0.132480
    31  C   -0.082688
    32  C   -0.061543
    33  C   -0.101544
    34  C   -0.110901
    35  C    0.078022
    36  C    0.132856
    37  C   -0.371876
    38  C   -0.379367
    39  C   -0.124266
    40  C   -0.154375
    41  C   -0.069499
    42  C   -0.093096
    43  H    0.100336
    44  H    0.082432
    45  H    0.084671
    46  H    0.084230
    47  H    0.077633
    48  H    0.061141
    49  H    0.130506
    50  H    0.107839
    51  H    0.129606
    52  H    0.121588
    53  H    0.096803
    54  H    0.102898
    55  H    0.109412
    56  H    0.105070
    57  H    0.104279
    58  H    0.028639
    59  H    0.090873
    60  H    0.095350
    61  H    0.089245
    62  H    0.106820
    63  H    0.067086
    64  H    0.088028
    65  H    0.106661
    66  H    0.107863
    67  H    0.135703
    68  H    0.112237
    69  H    0.088947
    70  H    0.110628
    71  H    0.093772
    72  H    0.131623
    73  H    0.308531
    74  H    0.304112
    75  H    0.083262
    76  H    0.084251
    77  H    0.098737
    78  H    0.123640
    79  H    0.093117
    80  H    0.128714
    81  H    0.106513
    82  H    0.090602
    83  H    0.064935
    84  H    0.075472
    85  H    0.069132
    86  H    0.058462
    87  H    0.086240
    88  H    0.080273
    89  H    0.126297
    90  H    0.121678
    91  H    0.151862
    92  H    0.127881
    93  H    0.106795
    94  H    0.113524
    95  H    0.096390
    96  H    0.072939
    97  H    0.081320
    98  H    0.077196
 Sum of Mulliken charges =  -0.00000

 Dipole moment (field-independent basis, Debye):
    X=              1.1778    Y=             -1.7674    Z=              0.0190  Tot=              2.1240
 Quadrupole moment (field-independent basis, Debye-Ang):
   XX=           -263.9312   YY=           -241.2134   ZZ=           -264.3644
   XY=             10.7253   XZ=              0.1383   YZ=              2.2473

 Normal termination of Gaussian 16 at Mon Jul 15 21:08:23 2019.
