 Gaussian 16, Revision A.03,
 Gaussian 16:  ES64L-G16RevA.03 25-Dec-2016

 -------------------------------------
 # td=(NStates=1) CAM-B3LYP/6-31G(d,p)
 -------------------------------------

 --
 TD
 --
 Symbolic Z-matrix:
 Charge =  0 Multiplicity = 1

                         Standard orientation:
 ---------------------------------------------------------------------
 Center     Atomic      Atomic             Coordinates (Angstroms)
 Number     Number       Type             X           Y           Z
 ---------------------------------------------------------------------
      1          8           0       14.662432   -2.262251   -0.154087
      2          8           0      -14.569097    1.886865    1.263791
      3          6           0       11.028521   -1.523496    0.988418
      4          6           0      -12.354243   -1.019531    0.747101
      5          6           0       12.531434   -2.070622    1.042248
      6          6           0      -13.714320   -0.276483    0.902854
      7          6           0       13.297351   -2.017654   -0.347067
      8          6           0      -13.401671    1.196552    1.132870
      9          6           0       10.975736   -0.225401    0.125234
     10          6           0      -11.265989   -0.243834   -0.150293
     11          6           0       13.330532   -0.590796   -0.798755
     12          6           0      -12.702040    1.756406   -0.140633
     13          6           0       11.963312    0.165973   -0.735106
     14          6           0      -11.599187    1.008710   -0.590386
     15          6           0       10.604440   -1.354296    2.374295
     16          6           0       10.213911   -2.714465    0.467411
     17          6           0      -11.761784   -1.426046    2.167598
     18          6           0      -12.686387   -2.437857    0.108973
     19          6           0        9.666868    0.408434    0.194663
     20          6           0      -10.101410   -1.013680   -0.548573
     21          6           0       11.835172    1.376839   -1.719141
     22          6           0      -10.624572    1.766010   -1.565521
     23          6           0        9.377454    1.690344    0.160055
     24          6           0       -8.800074   -0.554171   -0.499389
     25          6           0        8.048363    2.248737    0.200905
     26          6           0       -7.579075   -1.251568   -0.701624
     27          6           0        8.029373    3.791368    0.590184
     28          6           0       -7.636320   -2.649293   -1.171470
     29          6           0        6.865275    1.545382    0.059946
     30          6           0       -6.459321   -0.442215   -0.570800
     31          6           0        5.580766    2.062321    0.141461
     32          6           0       -5.103227   -0.930284   -0.724520
     33          6           0        4.493981    1.263775    0.090071
     34          6           0       -3.923670   -0.275516   -0.538020
     35          6           0        3.167404    1.701543    0.090989
     36          6           0       -2.616346   -0.681745   -0.607280
     37          6           0        2.951735    3.133591    0.484889
     38          6           0       -2.225581   -2.055609   -1.000830
     39          6           0        2.105311    0.798491   -0.219659
     40          6           0       -1.609226    0.264340   -0.480066
     41          6           0        0.787821    1.062753   -0.211405
     42          6           0       -0.168542    0.133249   -0.511666
     43          1           0       13.055744   -1.322378    1.678120
     44          1           0       12.534561   -3.011032    1.353848
     45          1           0      -14.432608   -0.966680    1.352966
     46          1           0      -14.319812   -0.314716   -0.164975
     47          1           0       12.722649   -2.740286   -1.076613
     48          1           0      -12.964098    1.363181    1.983735
     49          1           0       13.967237    0.056530   -0.129982
     50          1           0       13.660684   -0.408791   -1.875705
     51          1           0      -13.401887    1.783380   -0.922002
     52          1           0      -12.219924    2.889798    0.030488
     53          1           0       10.720211   -2.236435    2.825258
     54          1           0        9.632903   -1.068702    2.216285
     55          1           0       11.178403   -0.522928    2.688748
     56          1           0       10.485507   -2.806637   -0.640852
     57          1           0       10.148887   -3.668259    0.997471
     58          1           0        9.226152   -2.313543    0.549089
     59          1           0      -12.034487   -0.665720    2.962716
     60          1           0      -10.401342   -1.435719    2.178196
     61          1           0      -12.359079   -2.358055    2.255345
     62          1           0      -13.627909   -3.023079    0.311518
     63          1           0      -11.754521   -3.079393   -0.104052
     64          1           0      -12.789770   -2.137466   -1.076247
     65          1           0        8.771984   -0.233462    0.213909
     66          1           0       -9.997108   -2.307238   -0.407386
     67          1           0       10.728845    1.473059   -2.014384
     68          1           0       12.083254    2.362567   -1.079857
     69          1           0       12.402141    1.254839   -2.661513
     70          1           0      -11.201337    2.312471   -2.272760
     71          1           0      -10.136083    1.024201   -2.135088
     72          1           0      -10.012793    2.470302   -1.090717
     73          1           0       14.711780   -3.298685    0.026376
     74          1           0      -14.635966    1.516765    2.266861
     75          1           0       10.055357    2.441432    0.081921
     76          1           0       -8.644322    0.538997   -0.352528
     77          1           0        8.988977    4.443455    0.381954
     78          1           0        7.286059    4.254217   -0.093391
     79          1           0        7.716677    3.833273    1.697156
     80          1           0       -8.126693   -3.298894   -0.430259
     81          1           0       -8.508487   -2.826411   -2.058339
     82          1           0       -6.625468   -3.063370   -1.510242
     83          1           0        6.878806    0.465195   -0.199206
     84          1           0       -6.616332    0.559060   -0.292370
     85          1           0        5.352760    3.210028    0.263136
     86          1           0       -4.981486   -1.913552   -0.922590
     87          1           0        4.696640    0.142024    0.141102
     88          1           0       -4.017586    0.723771   -0.167963
     89          1           0        3.313064    3.186081    1.602031
     90          1           0        1.758179    3.578502    0.559475
     91          1           0        3.307591    3.787697   -0.343480
     92          1           0       -2.717643   -2.785690   -0.420529
     93          1           0       -2.485041   -2.257777   -2.034172
     94          1           0       -1.023688   -2.288391   -0.865568
     95          1           0        2.292440   -0.228972   -0.525997
     96          1           0       -2.051712    1.122438   -0.384580
     97          1           0        0.428571    2.073560    0.096653
     98          1           0        0.103804   -1.003024   -0.766399
 ---------------------------------------------------------------------

 SCF Done:  E(RCAM-B3LYP) =  -1706.91701423     A.U. after   15 cycles

 Excitation energies and oscillator strengths:

 Excited State   1:      Singlet-A      2.1759 eV  569.81 nm  f=3.9398  <S**2>=0.000
     155 ->158        -0.15673
     156 ->157         0.68851
 This state for optimization and/or second-order correction.
 Total Energy, E(TD-HF/TD-DFT) =  -1706.83705170
 Copying the excited state density for this state as the 1-particle RhoCI density.

 The electronic state is 1-A.
 Alpha  occ. eigenvalues --  -19.22424 -19.21588 -10.31200 -10.29696 -10.28396
 Alpha  occ. eigenvalues --  -10.28275 -10.27786 -10.27730 -10.27623 -10.27536
 Alpha  occ. eigenvalues --  -10.27485 -10.27377 -10.27287 -10.27260 -10.27258
 Alpha  occ. eigenvalues --  -10.27016 -10.26568 -10.26510 -10.26390 -10.26389
 Alpha  occ. eigenvalues --  -10.26330 -10.26153 -10.26136 -10.26053 -10.26035
 Alpha  occ. eigenvalues --  -10.26021 -10.26001 -10.25897 -10.25848 -10.25830
 Alpha  occ. eigenvalues --  -10.25822 -10.25822 -10.25655 -10.25581 -10.25416
 Alpha  occ. eigenvalues --  -10.25342 -10.24978 -10.24549 -10.24481 -10.23624
 Alpha  occ. eigenvalues --  -10.23564 -10.21579  -1.11501  -1.09469  -0.93508
 Alpha  occ. eigenvalues --   -0.92853  -0.92539  -0.92094  -0.90852  -0.90232
 Alpha  occ. eigenvalues --   -0.88076  -0.87024  -0.86445  -0.85317  -0.84404
 Alpha  occ. eigenvalues --   -0.82734  -0.81724  -0.79556  -0.78985  -0.78410
 Alpha  occ. eigenvalues --   -0.77004  -0.76687  -0.76092  -0.75719  -0.75316
 Alpha  occ. eigenvalues --   -0.75119  -0.74904  -0.73549  -0.73234  -0.70564
 Alpha  occ. eigenvalues --   -0.68903  -0.68063  -0.66440  -0.64776  -0.63858
 Alpha  occ. eigenvalues --   -0.63283  -0.62244  -0.61429  -0.60813  -0.60043
 Alpha  occ. eigenvalues --   -0.59489  -0.59064  -0.58424  -0.58138  -0.56185
 Alpha  occ. eigenvalues --   -0.55847  -0.55191  -0.54540  -0.54509  -0.53371
 Alpha  occ. eigenvalues --   -0.53075  -0.52723  -0.51936  -0.51257  -0.50954
 Alpha  occ. eigenvalues --   -0.50899  -0.50709  -0.49885  -0.49499  -0.49034
 Alpha  occ. eigenvalues --   -0.48757  -0.48577  -0.48406  -0.48202  -0.47838
 Alpha  occ. eigenvalues --   -0.47632  -0.47508  -0.47271  -0.46908  -0.46657
 Alpha  occ. eigenvalues --   -0.46310  -0.45810  -0.45490  -0.45364  -0.44909
 Alpha  occ. eigenvalues --   -0.44843  -0.44576  -0.44053  -0.43621  -0.43288
 Alpha  occ. eigenvalues --   -0.43000  -0.42776  -0.42490  -0.42370  -0.42177
 Alpha  occ. eigenvalues --   -0.41832  -0.41456  -0.41356  -0.40653  -0.40258
 Alpha  occ. eigenvalues --   -0.40056  -0.39851  -0.39665  -0.39599  -0.39237
 Alpha  occ. eigenvalues --   -0.39081  -0.38475  -0.38303  -0.38173  -0.37726
 Alpha  occ. eigenvalues --   -0.37641  -0.36954  -0.36580  -0.36168  -0.35671
 Alpha  occ. eigenvalues --   -0.35103  -0.34611  -0.33961  -0.32713  -0.31256
 Alpha  occ. eigenvalues --   -0.31196  -0.30264  -0.28388  -0.26042  -0.23158
 Alpha  occ. eigenvalues --   -0.19261
 Alpha virt. eigenvalues --   -0.05890  -0.01252   0.02347   0.05837   0.07822
 Alpha virt. eigenvalues --    0.09262   0.09701   0.10698   0.10992   0.11503
 Alpha virt. eigenvalues --    0.11648   0.12631   0.12750   0.13208   0.13329

 Mulliken charges:
               1
     1  O   -0.540314
     2  O   -0.535742
     3  C   -0.069556
     4  C   -0.002615
     5  C   -0.166157
     6  C   -0.212187
     7  C    0.158906
     8  C    0.172671
     9  C    0.071427
    10  C    0.070318
    11  C   -0.198509
    12  C   -0.217981
    13  C    0.016294
    14  C    0.050150
    15  C   -0.250140
    16  C   -0.303292
    17  C   -0.271642
    18  C   -0.333005
    19  C   -0.119578
    20  C   -0.154871
    21  C   -0.357623
    22  C   -0.367047
    23  C   -0.060491
    24  C   -0.103690
    25  C    0.041510
    26  C    0.166146
    27  C   -0.367228
    28  C   -0.388457
    29  C   -0.123958
    30  C   -0.121365
    31  C   -0.072702
    32  C   -0.090943
    33  C   -0.112402
    34  C   -0.120086
    35  C    0.087791
    36  C    0.134817
    37  C   -0.370549
    38  C   -0.379140
    39  C   -0.115576
    40  C   -0.099228
    41  C   -0.046661
    42  C   -0.101703
    43  H    0.090044
    44  H    0.073692
    45  H    0.103762
    46  H    0.079162
    47  H    0.067605
    48  H    0.082466
    49  H    0.128921
    50  H    0.094954
    51  H    0.134591
    52  H    0.084152
    53  H    0.102286
    54  H    0.097233
    55  H    0.100298
    56  H    0.092725
    57  H    0.107292
    58  H    0.093443
    59  H    0.083106
    60  H    0.074132
    61  H    0.110242
    62  H    0.109146
    63  H    0.103422
    64  H    0.074405
    65  H    0.086438
    66  H    0.053818
    67  H    0.124154
    68  H    0.109075
    69  H    0.111822
    70  H    0.102876
    71  H    0.128726
    72  H    0.120767
    73  H    0.302611
    74  H    0.299361
    75  H    0.067138
    76  H    0.084528
    77  H    0.099912
    78  H    0.120486
    79  H    0.128101
    80  H    0.130607
    81  H    0.103527
    82  H    0.113338
    83  H    0.084584
    84  H    0.084780
    85  H    0.089668
    86  H    0.060914
    87  H    0.081224
    88  H    0.071764
    89  H    0.129411
    90  H    0.075574
    91  H    0.137446
    92  H    0.120031
    93  H    0.129693
    94  H    0.085755
    95  H    0.080401
    96  H    0.054630
    97  H    0.081723
    98  H    0.062448
 Sum of Mulliken charges =  -0.00000

 Dipole moment (field-independent basis, Debye):
    X=              1.6133    Y=             -1.2537    Z=              0.9700  Tot=              2.2618
 Quadrupole moment (field-independent basis, Debye-Ang):
   XX=           -288.0528   YY=           -240.1110   ZZ=           -262.0910
   XY=              3.1128   XZ=            -15.2588   YZ=              1.6456

 Normal termination of Gaussian 16 at Sun Jul 14 15:45:06 2019.
