 Gaussian 16, Revision A.03,
 Gaussian 16:  ES64L-G16RevA.03 25-Dec-2016

 -------------------------------------
 # td=(NStates=1) CAM-B3LYP/6-31G(d,p)
 -------------------------------------

 --
 TD
 --
 Symbolic Z-matrix:
 Charge =  0 Multiplicity = 1

                         Standard orientation:
 ---------------------------------------------------------------------
 Center     Atomic      Atomic             Coordinates (Angstroms)
 Number     Number       Type             X           Y           Z
 ---------------------------------------------------------------------
      1          8           0       14.607268   -2.344706   -0.418481
      2          8           0      -14.850421    1.933395    0.833096
      3          6           0       11.206466   -1.443565    0.971250
      4          6           0      -12.247964   -1.090358    0.640879
      5          6           0       12.650631   -1.946324    0.955100
      6          6           0      -13.648398   -0.269441    0.717918
      7          6           0       13.180164   -1.938506   -0.385615
      8          6           0      -13.541561    1.281696    0.829939
      9          6           0       10.886174   -0.342288   -0.051146
     10          6           0      -11.277208   -0.323947   -0.245040
     11          6           0       13.164303   -0.583876   -1.026592
     12          6           0      -12.795971    1.695963   -0.458175
     13          6           0       11.852203    0.028277   -0.957779
     14          6           0      -11.476692    0.903827   -0.693013
     15          6           0       10.729447   -0.981011    2.453952
     16          6           0       10.356495   -2.664547    0.489377
     17          6           0      -11.731512   -1.315866    2.090565
     18          6           0      -12.639757   -2.454859    0.048222
     19          6           0        9.580279    0.369122    0.163721
     20          6           0       -9.968586   -1.009002   -0.364556
     21          6           0       11.693759    1.165104   -1.967144
     22          6           0      -10.723113    1.658803   -1.669743
     23          6           0        9.323277    1.623261    0.074383
     24          6           0       -8.714735   -0.349661   -0.407699
     25          6           0        8.008794    2.254151    0.332484
     26          6           0       -7.512250   -1.219457   -0.566733
     27          6           0        8.026094    3.770421    0.684414
     28          6           0       -7.587516   -2.656934   -0.844844
     29          6           0        6.878719    1.517779    0.092210
     30          6           0       -6.242534   -0.555407   -0.464690
     31          6           0        5.617279    2.110077    0.219968
     32          6           0       -5.001754   -1.178048   -0.485120
     33          6           0        4.416899    1.344956    0.033849
     34          6           0       -3.846878   -0.319738   -0.317109
     35          6           0        3.141984    1.828239    0.206903
     36          6           0       -2.513535   -0.736997   -0.438787
     37          6           0        2.781346    3.213800    0.487027
     38          6           0       -2.258741   -2.141821   -0.814373
     39          6           0        2.154961    0.841616   -0.032335
     40          6           0       -1.504399    0.256046   -0.194845
     41          6           0        0.783891    1.026083    0.062049
     42          6           0       -0.149506    0.062049   -0.231313
     43          1           0       13.200117   -1.151341    1.531030
     44          1           0       12.608508   -3.009943    1.491454
     45          1           0      -14.310567   -0.755432    1.619929
     46          1           0      -14.161442   -0.440776   -0.197246
     47          1           0       12.656773   -2.773954   -0.922327
     48          1           0      -13.013231    1.438765    1.772799
     49          1           0       14.005586    0.042208   -0.699423
     50          1           0       13.564867   -0.697344   -1.905248
     51          1           0      -13.629877    1.519718   -1.218836
     52          1           0      -12.534324    2.755807   -0.375187
     53          1           0       11.121201   -1.908466    3.041498
     54          1           0        9.632931   -0.823017    2.412944
     55          1           0       10.880438    0.196309    2.898261
     56          1           0       10.592378   -2.955250   -0.474320
     57          1           0       10.573502   -3.405137    1.022321
     58          1           0        9.364920   -2.323643    0.480049
     59          1           0      -11.776268   -0.380415    2.757479
     60          1           0      -10.778774   -1.912206    2.267933
     61          1           0      -12.501930   -2.034573    2.668991
     62          1           0      -13.478986   -2.822803    0.627715
     63          1           0      -11.696781   -3.140044   -0.186340
     64          1           0      -12.793287   -2.348798   -1.181168
     65          1           0        8.739833   -0.311095    0.370231
     66          1           0      -10.061267   -1.989659   -0.342476
     67          1           0       10.641473    1.468807   -2.190803
     68          1           0       12.059069    2.247515   -1.766710
     69          1           0       11.971033    0.909526   -2.959624
     70          1           0      -11.409198    1.934951   -2.549864
     71          1           0       -9.977182    1.000092   -1.888768
     72          1           0      -10.157038    2.533363   -1.322996
     73          1           0       14.752598   -3.202172   -0.094484
     74          1           0      -15.437046    1.469653    1.437182
     75          1           0       10.173910    2.242216    0.004371
     76          1           0       -8.635802    0.803149   -0.217090
     77          1           0        9.075483    4.180737    0.641688
     78          1           0        7.660269    4.326113   -0.314790
     79          1           0        7.420331    4.148846    1.713918
     80          1           0       -8.116644   -3.142430   -0.036565
     81          1           0       -8.249374   -2.739230   -1.738885
     82          1           0       -6.710904   -3.193316   -0.951336
     83          1           0        6.952430    0.525671   -0.266520
     84          1           0       -6.487605    0.547215   -0.351122
     85          1           0        5.502425    3.148845    0.448062
     86          1           0       -4.599369   -2.031449   -0.902955
     87          1           0        4.593084    0.323913   -0.208751
     88          1           0       -4.060103    0.749998   -0.044129
     89          1           0        3.261099    3.525287    1.482674
     90          1           0        1.766908    3.366355    0.518358
     91          1           0        3.221202    4.065334   -0.054682
     92          1           0       -2.294202   -2.841792    0.134645
     93          1           0       -2.858532   -2.445918   -1.540801
     94          1           0       -1.227579   -2.284935   -0.976936
     95          1           0        2.328880   -0.229267    0.013821
     96          1           0       -2.078536    1.370186    0.085691
     97          1           0        0.194274    2.062170    0.373173
     98          1           0        0.162236   -0.895555   -0.878110
 ---------------------------------------------------------------------

 SCF Done:  E(RCAM-B3LYP) =  -1706.94905656     A.U. after   15 cycles

 Excitation energies and oscillator strengths:

 Excited State   1:      Singlet-A      1.9105 eV  648.95 nm  f=3.7980  <S**2>=0.000
     155 ->158        -0.13446
     156 ->157         0.69968
     156 <-157        -0.11326
 This state for optimization and/or second-order correction.
 Total Energy, E(TD-HF/TD-DFT) =  -1706.87884571
 Copying the excited state density for this state as the 1-particle RhoCI density.

 The electronic state is 1-A.
 Alpha  occ. eigenvalues --  -19.20765 -19.19502 -10.30246 -10.30185 -10.29038
 Alpha  occ. eigenvalues --  -10.28421 -10.28012 -10.27999 -10.27870 -10.27661
 Alpha  occ. eigenvalues --  -10.27634 -10.27408 -10.27405 -10.27384 -10.27289
 Alpha  occ. eigenvalues --  -10.27192 -10.26946 -10.26724 -10.26685 -10.26559
 Alpha  occ. eigenvalues --  -10.26366 -10.26281 -10.26278 -10.26156 -10.26015
 Alpha  occ. eigenvalues --  -10.25897 -10.25832 -10.25795 -10.25657 -10.25583
 Alpha  occ. eigenvalues --  -10.25551 -10.25538 -10.25471 -10.25464 -10.25348
 Alpha  occ. eigenvalues --  -10.25246 -10.25073 -10.25067 -10.24781 -10.23854
 Alpha  occ. eigenvalues --  -10.23570 -10.22040  -1.07734  -1.07580  -0.94054
 Alpha  occ. eigenvalues --   -0.93279  -0.92628  -0.91723  -0.90827  -0.89725
 Alpha  occ. eigenvalues --   -0.87575  -0.87256  -0.86982  -0.86070  -0.84651
 Alpha  occ. eigenvalues --   -0.82991  -0.82387  -0.80307  -0.79910  -0.79447
 Alpha  occ. eigenvalues --   -0.77300  -0.77094  -0.76778  -0.76267  -0.75939
 Alpha  occ. eigenvalues --   -0.75089  -0.74707  -0.73849  -0.73253  -0.70954
 Alpha  occ. eigenvalues --   -0.68682  -0.67423  -0.65667  -0.65126  -0.64517
 Alpha  occ. eigenvalues --   -0.63443  -0.62720  -0.61553  -0.60343  -0.60015
 Alpha  occ. eigenvalues --   -0.59777  -0.58712  -0.58365  -0.57522  -0.56414
 Alpha  occ. eigenvalues --   -0.55980  -0.55430  -0.55216  -0.54598  -0.54233
 Alpha  occ. eigenvalues --   -0.53674  -0.52773  -0.52024  -0.51454  -0.50786
 Alpha  occ. eigenvalues --   -0.50234  -0.49900  -0.49795  -0.49465  -0.49192
 Alpha  occ. eigenvalues --   -0.48787  -0.48679  -0.48393  -0.48159  -0.48089
 Alpha  occ. eigenvalues --   -0.47803  -0.47390  -0.47228  -0.47085  -0.46820
 Alpha  occ. eigenvalues --   -0.46144  -0.45922  -0.45707  -0.45678  -0.45531
 Alpha  occ. eigenvalues --   -0.45320  -0.44294  -0.44058  -0.43910  -0.43606
 Alpha  occ. eigenvalues --   -0.43388  -0.42602  -0.42170  -0.42069  -0.41770
 Alpha  occ. eigenvalues --   -0.41494  -0.41379  -0.40996  -0.40745  -0.40651
 Alpha  occ. eigenvalues --   -0.40191  -0.40036  -0.39875  -0.39343  -0.39130
 Alpha  occ. eigenvalues --   -0.39067  -0.38882  -0.38678  -0.38343  -0.37822
 Alpha  occ. eigenvalues --   -0.37655  -0.37291  -0.36540  -0.35878  -0.35654
 Alpha  occ. eigenvalues --   -0.35559  -0.34729  -0.33882  -0.32490  -0.31980
 Alpha  occ. eigenvalues --   -0.31914  -0.29945  -0.28049  -0.26517  -0.23093
 Alpha  occ. eigenvalues --   -0.18205
 Alpha virt. eigenvalues --   -0.06692  -0.01003   0.02637   0.05315   0.07812
 Alpha virt. eigenvalues --    0.09695   0.10677   0.11524   0.12119   0.12176
 Alpha virt. eigenvalues --    0.12558   0.12995   0.13252   0.13539   0.13730

 Mulliken charges:
               1
     1  O   -0.586890
     2  O   -0.568530
     3  C   -0.054732
     4  C   -0.008214
     5  C   -0.176550
     6  C   -0.207304
     7  C    0.166630
     8  C    0.163206
     9  C    0.067052
    10  C    0.105466
    11  C   -0.208186
    12  C   -0.217370
    13  C    0.049404
    14  C    0.014212
    15  C   -0.289043
    16  C   -0.284398
    17  C   -0.289292
    18  C   -0.293418
    19  C   -0.101255
    20  C   -0.112338
    21  C   -0.389320
    22  C   -0.363406
    23  C   -0.098153
    24  C   -0.117654
    25  C    0.068253
    26  C    0.090119
    27  C   -0.365415
    28  C   -0.370279
    29  C   -0.092681
    30  C   -0.117506
    31  C   -0.097047
    32  C   -0.087359
    33  C   -0.117117
    34  C   -0.127406
    35  C    0.147284
    36  C    0.108697
    37  C   -0.381565
    38  C   -0.372891
    39  C   -0.151343
    40  C   -0.107670
    41  C   -0.081820
    42  C   -0.110294
    43  H    0.105043
    44  H    0.067890
    45  H    0.050073
    46  H    0.108265
    47  H    0.078072
    48  H    0.081968
    49  H    0.125210
    50  H    0.121947
    51  H    0.117131
    52  H    0.108519
    53  H    0.094224
    54  H    0.108328
    55  H    0.088462
    56  H    0.112079
    57  H    0.096719
    58  H    0.099749
    59  H    0.101435
    60  H    0.107723
    61  H    0.072088
    62  H    0.117934
    63  H    0.090611
    64  H    0.080360
    65  H    0.081023
    66  H    0.065083
    67  H    0.112003
    68  H    0.103978
    69  H    0.112465
    70  H    0.109657
    71  H    0.117464
    72  H    0.110314
    73  H    0.292933
    74  H    0.304702
    75  H    0.085221
    76  H    0.105576
    77  H    0.114491
    78  H    0.111214
    79  H    0.108927
    80  H    0.121188
    81  H    0.119299
    82  H    0.118987
    83  H    0.090758
    84  H    0.080327
    85  H    0.082773
    86  H    0.081321
    87  H    0.079284
    88  H    0.074753
    89  H    0.112848
    90  H    0.122238
    91  H    0.125376
    92  H    0.114450
    93  H    0.134239
    94  H    0.111160
    95  H    0.098205
    96  H    0.065541
    97  H    0.077497
    98  H    0.086995
 Sum of Mulliken charges =  -0.00000

 Dipole moment (field-independent basis, Debye):
    X=              0.6333    Y=             -1.6963    Z=              0.6828  Tot=              1.9351
 Quadrupole moment (field-independent basis, Debye-Ang):
   XX=           -298.9162   YY=           -239.5684   ZZ=           -263.8456
   XY=             17.9362   XZ=             -6.7539   YZ=              1.6295

 Normal termination of Gaussian 16 at Sat Jul 13 00:54:50 2019.
