 Gaussian 16, Revision A.03,
 Gaussian 16:  ES64L-G16RevA.03 25-Dec-2016

 -------------------------------------
 # td=(NStates=1) CAM-B3LYP/6-31G(d,p)
 -------------------------------------

 --
 TD
 --
 Symbolic Z-matrix:
 Charge =  0 Multiplicity = 1

                         Standard orientation:
 ---------------------------------------------------------------------
 Center     Atomic      Atomic             Coordinates (Angstroms)
 Number     Number       Type             X           Y           Z
 ---------------------------------------------------------------------
      1          8           0       14.733394   -2.190274   -0.371848
      2          8           0      -14.832741    1.828954    0.964248
      3          6           0       11.263204   -1.575754    0.996891
      4          6           0      -12.423674   -0.985535    0.545366
      5          6           0       12.765275   -1.817353    1.063571
      6          6           0      -13.751276   -0.314054    0.575915
      7          6           0       13.361236   -1.840872   -0.402656
      8          6           0      -13.547333    1.172591    0.991896
      9          6           0       10.973739   -0.261717    0.090201
     10          6           0      -11.272956   -0.167215   -0.200510
     11          6           0       13.220315   -0.455362   -0.962562
     12          6           0      -12.713815    1.904209   -0.080380
     13          6           0       11.928587    0.210565   -0.840902
     14          6           0      -11.524388    1.056403   -0.522976
     15          6           0       10.771270   -1.130959    2.427207
     16          6           0       10.341180   -2.648556    0.431317
     17          6           0      -11.782863   -1.434249    1.953336
     18          6           0      -12.673487   -2.341381   -0.248569
     19          6           0        9.630104    0.306381    0.202195
     20          6           0      -10.092845   -0.966934   -0.542554
     21          6           0       11.700240    1.284963   -1.889740
     22          6           0      -10.600543    1.897804   -1.427892
     23          6           0        9.367154    1.606066    0.132887
     24          6           0       -8.836765   -0.413880   -0.433877
     25          6           0        8.065407    2.294955    0.198550
     26          6           0       -7.587920   -1.186262   -0.612083
     27          6           0        8.008415    3.750345    0.460492
     28          6           0       -7.632021   -2.581330   -1.061808
     29          6           0        6.894610    1.523723    0.046108
     30          6           0       -6.362404   -0.539300   -0.368636
     31          6           0        5.577324    1.916718    0.176481
     32          6           0       -5.070394   -1.112961   -0.457294
     33          6           0        4.484565    1.134686   -0.054711
     34          6           0       -3.968496   -0.339993   -0.134630
     35          6           0        3.159063    1.651820    0.059942
     36          6           0       -2.611140   -0.765829   -0.335505
     37          6           0        2.902766    3.024065    0.551814
     38          6           0       -2.514406   -2.100047   -0.756378
     39          6           0        2.147476    0.650193   -0.174858
     40          6           0       -1.526539    0.176550   -0.191786
     41          6           0        0.784154    0.916611   -0.051625
     42          6           0       -0.232051   -0.110118   -0.350033
     43          1           0       13.262563   -0.810141    1.575380
     44          1           0       12.956855   -2.820144    1.368094
     45          1           0      -14.429193   -0.653927    1.395963
     46          1           0      -14.060429   -0.481595   -0.513737
     47          1           0       12.840789   -2.572952   -0.848471
     48          1           0      -13.020321    1.040966    1.931945
     49          1           0       13.866645    0.352644   -0.213441
     50          1           0       13.577928   -0.400037   -2.111580
     51          1           0      -13.354635    2.020153   -1.186453
     52          1           0      -12.458508    2.801059    0.377862
     53          1           0       10.842368   -1.929759    3.157819
     54          1           0        9.813825   -0.926482    2.574255
     55          1           0       11.200887   -0.258270    2.722720
     56          1           0       10.692272   -2.894714   -0.569407
     57          1           0       10.410539   -3.473185    0.973817
     58          1           0        9.187904   -2.505426    0.446209
     59          1           0      -11.782778   -0.505512    2.438960
     60          1           0      -10.711619   -1.950689    1.819647
     61          1           0      -12.456166   -2.210230    2.656211
     62          1           0      -13.541054   -2.900245    0.286994
     63          1           0      -11.859461   -3.129237   -0.258071
     64          1           0      -12.933998   -2.189475   -1.334974
     65          1           0        8.787714   -0.418846    0.585656
     66          1           0      -10.178654   -2.062561   -0.828694
     67          1           0       10.751573    1.308444   -2.310315
     68          1           0       11.998185    2.468742   -1.510017
     69          1           0       12.412731    1.017736   -2.748053
     70          1           0      -11.151700    2.675371   -1.998481
     71          1           0      -10.192696    1.300768   -2.222850
     72          1           0       -9.914295    2.553931   -0.712866
     73          1           0       14.857154   -3.039117   -0.101971
     74          1           0      -15.406940    1.746105    1.853921
     75          1           0       10.129072    2.414045   -0.083166
     76          1           0       -8.717847    0.538948   -0.132805
     77          1           0        8.929871    4.321815    0.839294
     78          1           0        7.348397    4.123122   -0.477659
     79          1           0        7.170762    4.003365    1.345898
     80          1           0       -8.050519   -3.218090   -0.276339
     81          1           0       -8.209821   -2.626462   -2.107347
     82          1           0       -6.690838   -3.204168   -1.311238
     83          1           0        6.994183    0.415572   -0.025827
     84          1           0       -6.201891    0.508894    0.122833
     85          1           0        5.550909    3.017001    0.434821
     86          1           0       -4.887826   -2.158656   -0.717116
     87          1           0        4.424781    0.118007   -0.514982
     88          1           0       -4.030964    0.745976    0.146949
     89          1           0        3.451207    3.293669    1.527835
     90          1           0        2.036070    3.383602    0.442160
     91          1           0        3.554487    3.681807   -0.112955
     92          1           0       -3.113084   -2.956509   -0.082679
     93          1           0       -2.587505   -2.329427   -1.901119
     94          1           0       -1.392095   -2.602088   -0.332689
     95          1           0        2.572473   -0.373314   -0.521613
     96          1           0       -1.767625    1.205641    0.192968
     97          1           0        0.178622    2.021843   -0.096346
     98          1           0        0.371876   -0.921342   -0.607374
 ---------------------------------------------------------------------

 SCF Done:  E(RCAM-B3LYP) =  -1706.88702647     A.U. after   16 cycles

 Excitation energies and oscillator strengths:

 Excited State   1:      Singlet-A      1.8384 eV  674.42 nm  f=3.6426  <S**2>=0.000
     155 ->158        -0.13341
     156 ->157         0.69981
     156 <-157        -0.11781
 This state for optimization and/or second-order correction.
 Total Energy, E(TD-HF/TD-DFT) =  -1706.81946735
 Copying the excited state density for this state as the 1-particle RhoCI density.

 The electronic state is 1-A.
 Alpha  occ. eigenvalues --  -19.21521 -19.20539 -10.30359 -10.30022 -10.28744
 Alpha  occ. eigenvalues --  -10.28256 -10.28202 -10.28201 -10.27787 -10.27592
 Alpha  occ. eigenvalues --  -10.27572 -10.27559 -10.27418 -10.27375 -10.27130
 Alpha  occ. eigenvalues --  -10.26907 -10.26826 -10.26722 -10.26715 -10.26553
 Alpha  occ. eigenvalues --  -10.26488 -10.26432 -10.26365 -10.26337 -10.26265
 Alpha  occ. eigenvalues --  -10.26154 -10.26143 -10.26011 -10.25985 -10.25889
 Alpha  occ. eigenvalues --  -10.25806 -10.25676 -10.25549 -10.25295 -10.25247
 Alpha  occ. eigenvalues --  -10.25194 -10.25118 -10.25106 -10.25034 -10.24791
 Alpha  occ. eigenvalues --  -10.24660 -10.22258  -1.10865  -1.06654  -0.93092
 Alpha  occ. eigenvalues --   -0.92917  -0.92075  -0.91562  -0.90052  -0.89546
 Alpha  occ. eigenvalues --   -0.87251  -0.87096  -0.85928  -0.85368  -0.84263
 Alpha  occ. eigenvalues --   -0.82922  -0.81767  -0.80375  -0.79335  -0.78599
 Alpha  occ. eigenvalues --   -0.77934  -0.76355  -0.75431  -0.75339  -0.75102
 Alpha  occ. eigenvalues --   -0.74566  -0.74197  -0.74096  -0.72174  -0.70367
 Alpha  occ. eigenvalues --   -0.69086  -0.66972  -0.65427  -0.64480  -0.63820
 Alpha  occ. eigenvalues --   -0.63060  -0.61378  -0.60924  -0.60229  -0.60095
 Alpha  occ. eigenvalues --   -0.59675  -0.58996  -0.58373  -0.57353  -0.56193
 Alpha  occ. eigenvalues --   -0.55928  -0.54810  -0.54602  -0.53545  -0.53319
 Alpha  occ. eigenvalues --   -0.52656  -0.52285  -0.51939  -0.51138  -0.50943
 Alpha  occ. eigenvalues --   -0.50287  -0.49961  -0.49438  -0.49040  -0.48775
 Alpha  occ. eigenvalues --   -0.48545  -0.48487  -0.48225  -0.48023  -0.47629
 Alpha  occ. eigenvalues --   -0.47467  -0.46803  -0.46435  -0.46149  -0.46031
 Alpha  occ. eigenvalues --   -0.45648  -0.45422  -0.45107  -0.44833  -0.44672
 Alpha  occ. eigenvalues --   -0.44179  -0.43868  -0.43297  -0.43165  -0.42913
 Alpha  occ. eigenvalues --   -0.42780  -0.42486  -0.42001  -0.41938  -0.41609
 Alpha  occ. eigenvalues --   -0.41485  -0.40971  -0.40707  -0.40659  -0.40464
 Alpha  occ. eigenvalues --   -0.40128  -0.39744  -0.39516  -0.39468  -0.38956
 Alpha  occ. eigenvalues --   -0.38476  -0.38412  -0.38068  -0.37826  -0.37743
 Alpha  occ. eigenvalues --   -0.37340  -0.37033  -0.36270  -0.36213  -0.36090
 Alpha  occ. eigenvalues --   -0.34831  -0.34556  -0.34347  -0.32537  -0.31515
 Alpha  occ. eigenvalues --   -0.30590  -0.29507  -0.27817  -0.25390  -0.22907
 Alpha  occ. eigenvalues --   -0.17940
 Alpha virt. eigenvalues --   -0.06750  -0.00846   0.02278   0.05469   0.08014
 Alpha virt. eigenvalues --    0.09481   0.10500   0.10578   0.11598   0.11670
 Alpha virt. eigenvalues --    0.12386   0.12434   0.12499   0.13058   0.13130

 Mulliken charges:
               1
     1  O   -0.547744
     2  O   -0.576399
     3  C   -0.003481
     4  C   -0.029516
     5  C   -0.191605
     6  C   -0.159478
     7  C    0.185179
     8  C    0.154223
     9  C    0.030298
    10  C    0.102469
    11  C   -0.207557
    12  C   -0.184684
    13  C    0.061035
    14  C    0.008441
    15  C   -0.305258
    16  C   -0.308887
    17  C   -0.286829
    18  C   -0.308900
    19  C   -0.113938
    20  C   -0.150269
    21  C   -0.339303
    22  C   -0.355486
    23  C   -0.094193
    24  C   -0.057106
    25  C    0.093461
    26  C    0.093251
    27  C   -0.386639
    28  C   -0.381393
    29  C   -0.109169
    30  C   -0.132453
    31  C   -0.096787
    32  C   -0.069508
    33  C   -0.108333
    34  C   -0.123517
    35  C    0.128129
    36  C    0.154739
    37  C   -0.350816
    38  C   -0.398565
    39  C   -0.156260
    40  C   -0.136925
    41  C   -0.111184
    42  C   -0.042881
    43  H    0.098105
    44  H    0.079866
    45  H    0.081299
    46  H    0.101146
    47  H    0.087859
    48  H    0.088338
    49  H    0.094085
    50  H    0.090762
    51  H    0.094742
    52  H    0.117431
    53  H    0.086571
    54  H    0.107584
    55  H    0.110929
    56  H    0.105245
    57  H    0.109275
    58  H    0.100678
    59  H    0.103215
    60  H    0.102759
    61  H    0.064487
    62  H    0.089455
    63  H    0.089067
    64  H    0.095573
    65  H    0.089445
    66  H    0.096843
    67  H    0.140125
    68  H    0.081087
    69  H    0.093216
    70  H    0.098416
    71  H    0.126261
    72  H    0.099763
    73  H    0.292756
    74  H    0.303960
    75  H    0.078766
    76  H    0.080776
    77  H    0.123069
    78  H    0.123337
    79  H    0.098582
    80  H    0.127094
    81  H    0.106229
    82  H    0.107080
    83  H    0.068924
    84  H    0.079607
    85  H    0.068879
    86  H    0.089621
    87  H    0.085308
    88  H    0.073471
    89  H    0.123921
    90  H    0.111128
    91  H    0.109449
    92  H    0.104754
    93  H    0.128682
    94  H    0.062439
    95  H    0.090939
    96  H    0.087382
    97  H    0.076708
    98  H    0.087350
 Sum of Mulliken charges =  -0.00000

 Dipole moment (field-independent basis, Debye):
    X=              1.1078    Y=             -1.3619    Z=              1.3323  Tot=              2.2039
 Quadrupole moment (field-independent basis, Debye-Ang):
   XX=           -284.5374   YY=           -238.4610   ZZ=           -260.8916
   XY=             -6.1088   XZ=            -13.8810   YZ=              5.4595

 Normal termination of Gaussian 16 at Wed Jul 10 21:55:07 2019.
