 Gaussian 16, Revision A.03,
 Gaussian 16:  ES64L-G16RevA.03 25-Dec-2016

 -------------------------------------
 # td=(NStates=1) CAM-B3LYP/6-31G(d,p)
 -------------------------------------

 --
 TD
 --
 Symbolic Z-matrix:
 Charge =  0 Multiplicity = 1

                         Standard orientation:
 ---------------------------------------------------------------------
 Center     Atomic      Atomic             Coordinates (Angstroms)
 Number     Number       Type             X           Y           Z
 ---------------------------------------------------------------------
      1          8           0       14.599144   -2.202226   -0.039890
      2          8           0      -14.788090    1.941601    1.009383
      3          6           0       11.011481   -1.395924    1.059202
      4          6           0      -12.370511   -0.933088    0.726025
      5          6           0       12.535202   -1.844042    1.221187
      6          6           0      -13.608289   -0.182139    0.699764
      7          6           0       13.285663   -1.936030   -0.133782
      8          6           0      -13.557889    1.256179    1.055766
      9          6           0       10.949617   -0.239114    0.140265
     10          6           0      -11.244749   -0.147422   -0.016866
     11          6           0       13.171656   -0.576774   -0.774496
     12          6           0      -12.680865    1.862912   -0.060954
     13          6           0       11.848797    0.092627   -0.871092
     14          6           0      -11.417414    1.110169   -0.377761
     15          6           0       10.709913   -0.878923    2.460566
     16          6           0       10.137497   -2.614163    0.675022
     17          6           0      -11.872636   -1.237705    2.136740
     18          6           0      -12.613020   -2.345239    0.144301
     19          6           0        9.554573    0.330654    0.100983
     20          6           0      -10.038446   -1.006846   -0.240022
     21          6           0       11.630552    1.100887   -1.887550
     22          6           0      -10.579411    1.704757   -1.331779
     23          6           0        9.304457    1.688346    0.135432
     24          6           0       -8.729454   -0.577968   -0.285942
     25          6           0        8.022508    2.284777    0.207396
     26          6           0       -7.525518   -1.280811   -0.533644
     27          6           0        7.991423    3.742995    0.494365
     28          6           0       -7.644850   -2.807767   -0.974899
     29          6           0        6.881417    1.577952    0.038825
     30          6           0       -6.314005   -0.696030   -0.414220
     31          6           0        5.616156    2.067165    0.046262
     32          6           0       -4.966926   -1.052210   -0.886486
     33          6           0        4.504997    1.303541   -0.119601
     34          6           0       -3.860431   -0.330111   -0.518299
     35          6           0        3.224179    1.665919   -0.118484
     36          6           0       -2.563783   -0.810727   -0.678250
     37          6           0        2.863553    3.028238    0.389857
     38          6           0       -2.300526   -2.152163   -1.501119
     39          6           0        2.199950    0.688506   -0.429818
     40          6           0       -1.394214    0.061645   -0.511337
     41          6           0        0.776987    0.890346   -0.417965
     42          6           0       -0.054172   -0.220052   -0.580866
     43          1           0       12.977109   -1.128942    1.699302
     44          1           0       12.699254   -2.916794    1.682934
     45          1           0      -14.458625   -0.680590    1.232376
     46          1           0      -14.166603   -0.092804   -0.299746
     47          1           0       12.732123   -2.631344   -0.844147
     48          1           0      -13.142229    1.542603    1.881991
     49          1           0       13.964142    0.074496   -0.278576
     50          1           0       13.526032   -0.655129   -1.768260
     51          1           0      -13.339466    2.200931   -0.979259
     52          1           0      -12.153669    2.846848    0.519088
     53          1           0       10.499290   -1.632061    3.323003
     54          1           0        9.773572   -0.547802    2.725975
     55          1           0       11.467962   -0.139782    2.816150
     56          1           0       10.381044   -2.727430   -0.296251
     57          1           0       10.306941   -3.479792    1.500068
     58          1           0        9.134947   -2.384637    0.864164
     59          1           0      -11.409715   -0.448382    2.727364
     60          1           0      -11.126850   -1.987062    2.023961
     61          1           0      -12.621877   -1.721253    2.631787
     62          1           0      -13.481413   -2.840199    0.578736
     63          1           0      -11.816100   -3.089665    0.446788
     64          1           0      -12.605844   -2.137109   -1.134594
     65          1           0        8.742802   -0.242600    0.258149
     66          1           0      -10.309054   -2.111911   -0.610122
     67          1           0       10.555515    1.328265   -1.904043
     68          1           0       12.017183    2.167436   -1.643692
     69          1           0       12.101454    0.673972   -2.724679
     70          1           0      -11.069391    2.194999   -2.274637
     71          1           0       -9.699006    0.994490   -1.808143
     72          1           0      -10.067971    2.573432   -1.062835
     73          1           0       14.636050   -3.080570    0.551513
     74          1           0      -15.139194    1.461826    1.671998
     75          1           0       10.150354    2.377604   -0.047923
     76          1           0       -8.602789    0.570466    0.061259
     77          1           0        9.053254    4.222917    0.699460
     78          1           0        7.561007    4.393778   -0.260889
     79          1           0        7.198914    4.029077    1.444419
     80          1           0       -7.855268   -3.406594   -0.101421
     81          1           0       -8.618137   -2.924406   -1.760557
     82          1           0       -6.737808   -3.225822   -1.492038
     83          1           0        6.881212    0.582573   -0.226655
     84          1           0       -6.316201    0.306466    0.313756
     85          1           0        5.323095    3.164625    0.301649
     86          1           0       -4.861688   -1.997975   -1.375170
     87          1           0        4.772415    0.120472   -0.352540
     88          1           0       -4.146776    0.737654   -0.085719
     89          1           0        3.061772    3.335893    1.491549
     90          1           0        1.789693    3.450110    0.439803
     91          1           0        3.365384    3.896400   -0.167282
     92          1           0       -3.007887   -3.165681   -1.166702
     93          1           0       -2.324318   -1.885538   -2.708962
     94          1           0       -1.177667   -2.555617   -1.060466
     95          1           0        2.571091   -0.305606   -0.462607
     96          1           0       -1.603663    1.141324   -0.186262
     97          1           0        0.476593    1.827778   -0.011879
     98          1           0        0.349740   -1.142527   -0.947493
 ---------------------------------------------------------------------

 SCF Done:  E(RCAM-B3LYP) =  -1706.88917385     A.U. after   16 cycles

 Excitation energies and oscillator strengths:

 Excited State   1:      Singlet-A      1.8845 eV  657.92 nm  f=3.6673  <S**2>=0.000
     155 ->158        -0.13505
     156 ->157         0.69872
     156 <-157        -0.11133
 This state for optimization and/or second-order correction.
 Total Energy, E(TD-HF/TD-DFT) =  -1706.81992028
 Copying the excited state density for this state as the 1-particle RhoCI density.

 The electronic state is 1-A.
 Alpha  occ. eigenvalues --  -19.22782 -19.20712 -10.30784 -10.29897 -10.28528
 Alpha  occ. eigenvalues --  -10.28451 -10.27968 -10.27641 -10.27611 -10.27593
 Alpha  occ. eigenvalues --  -10.27445 -10.27388 -10.27304 -10.27283 -10.27106
 Alpha  occ. eigenvalues --  -10.27105 -10.26984 -10.26943 -10.26935 -10.26922
 Alpha  occ. eigenvalues --  -10.26890 -10.26828 -10.26825 -10.26768 -10.26717
 Alpha  occ. eigenvalues --  -10.26489 -10.26268 -10.26158 -10.26064 -10.26014
 Alpha  occ. eigenvalues --  -10.25608 -10.25553 -10.25493 -10.25010 -10.24982
 Alpha  occ. eigenvalues --  -10.24955 -10.24555 -10.24535 -10.24477 -10.24200
 Alpha  occ. eigenvalues --  -10.24177 -10.23026  -1.12687  -1.11579  -0.94485
 Alpha  occ. eigenvalues --   -0.94036  -0.93050  -0.91488  -0.90658  -0.89644
 Alpha  occ. eigenvalues --   -0.88230  -0.87814  -0.87568  -0.85457  -0.84660
 Alpha  occ. eigenvalues --   -0.83187  -0.81748  -0.80285  -0.79514  -0.77478
 Alpha  occ. eigenvalues --   -0.77377  -0.76294  -0.76226  -0.76129  -0.75634
 Alpha  occ. eigenvalues --   -0.75344  -0.74624  -0.74251  -0.72358  -0.70914
 Alpha  occ. eigenvalues --   -0.69012  -0.67815  -0.65822  -0.65215  -0.64846
 Alpha  occ. eigenvalues --   -0.64413  -0.63672  -0.62678  -0.60516  -0.60042
 Alpha  occ. eigenvalues --   -0.59437  -0.59171  -0.58691  -0.57765  -0.56222
 Alpha  occ. eigenvalues --   -0.55876  -0.55555  -0.54651  -0.54434  -0.53243
 Alpha  occ. eigenvalues --   -0.52769  -0.52332  -0.52174  -0.51700  -0.51477
 Alpha  occ. eigenvalues --   -0.50991  -0.50469  -0.49988  -0.49508  -0.49229
 Alpha  occ. eigenvalues --   -0.49055  -0.48586  -0.48041  -0.47916  -0.47508
 Alpha  occ. eigenvalues --   -0.47396  -0.47239  -0.47160  -0.46974  -0.46504
 Alpha  occ. eigenvalues --   -0.46052  -0.45933  -0.45428  -0.44941  -0.44560
 Alpha  occ. eigenvalues --   -0.44341  -0.43796  -0.43651  -0.43533  -0.43319
 Alpha  occ. eigenvalues --   -0.42944  -0.42458  -0.42306  -0.42174  -0.42073
 Alpha  occ. eigenvalues --   -0.41941  -0.41401  -0.41236  -0.41105  -0.40525
 Alpha  occ. eigenvalues --   -0.40197  -0.39992  -0.39694  -0.39509  -0.39231
 Alpha  occ. eigenvalues --   -0.38944  -0.38631  -0.38577  -0.38471  -0.38416
 Alpha  occ. eigenvalues --   -0.37753  -0.37030  -0.36307  -0.36179  -0.35630
 Alpha  occ. eigenvalues --   -0.35345  -0.34983  -0.34159  -0.33144  -0.31993
 Alpha  occ. eigenvalues --   -0.31758  -0.30043  -0.28105  -0.26181  -0.23311
 Alpha  occ. eigenvalues --   -0.18661
 Alpha virt. eigenvalues --   -0.07140  -0.01308   0.02109   0.05170   0.07195
 Alpha virt. eigenvalues --    0.08824   0.10206   0.11218   0.11442   0.11494
 Alpha virt. eigenvalues --    0.11916   0.12637   0.12868   0.13178   0.13390

 Mulliken charges:
               1
     1  O   -0.536123
     2  O   -0.526320
     3  C   -0.039795
     4  C    0.002495
     5  C   -0.162874
     6  C   -0.204233
     7  C    0.174231
     8  C    0.165898
     9  C    0.047046
    10  C    0.054732
    11  C   -0.228925
    12  C   -0.235417
    13  C    0.073049
    14  C    0.112488
    15  C   -0.303777
    16  C   -0.287086
    17  C   -0.295425
    18  C   -0.299684
    19  C   -0.105638
    20  C   -0.127222
    21  C   -0.358806
    22  C   -0.390037
    23  C   -0.121068
    24  C   -0.118692
    25  C    0.133936
    26  C    0.113886
    27  C   -0.378959
    28  C   -0.357670
    29  C   -0.110697
    30  C   -0.140659
    31  C   -0.065966
    32  C   -0.080237
    33  C   -0.120917
    34  C   -0.083635
    35  C    0.143528
    36  C    0.047424
    37  C   -0.405955
    38  C   -0.328841
    39  C   -0.144448
    40  C   -0.109578
    41  C   -0.079153
    42  C   -0.057855
    43  H    0.105083
    44  H    0.053674
    45  H    0.063998
    46  H    0.101256
    47  H    0.052483
    48  H    0.088087
    49  H    0.110105
    50  H    0.096250
    51  H    0.117578
    52  H    0.067484
    53  H    0.070578
    54  H    0.106813
    55  H    0.104257
    56  H    0.118340
    57  H    0.089398
    58  H    0.110202
    59  H    0.103398
    60  H    0.110084
    61  H    0.098776
    62  H    0.106392
    63  H    0.100040
    64  H    0.078518
    65  H    0.079388
    66  H    0.086524
    67  H    0.126641
    68  H    0.108936
    69  H    0.113580
    70  H    0.093745
    71  H    0.108299
    72  H    0.116118
    73  H    0.308283
    74  H    0.291477
    75  H    0.081382
    76  H    0.083675
    77  H    0.099785
    78  H    0.131829
    79  H    0.089963
    80  H    0.133716
    81  H    0.083809
    82  H    0.109076
    83  H    0.076081
    84  H    0.060836
    85  H    0.077093
    86  H    0.083673
    87  H    0.057833
    88  H    0.086310
    89  H    0.121214
    90  H    0.105279
    91  H    0.113265
    92  H    0.088088
    93  H    0.123996
    94  H    0.084180
    95  H    0.084123
    96  H    0.082124
    97  H    0.094850
    98  H    0.099014
 Sum of Mulliken charges =  -0.00000

 Dipole moment (field-independent basis, Debye):
    X=              1.6006    Y=             -1.6304    Z=              1.8244  Tot=              2.9238
 Quadrupole moment (field-independent basis, Debye-Ang):
   XX=           -291.3449   YY=           -244.4634   ZZ=           -261.5078
   XY=             15.7988   XZ=             -8.4781   YZ=             -0.0765

 Normal termination of Gaussian 16 at Tue Jul  9 20:01:22 2019.
