 Gaussian 16, Revision A.03,
 Gaussian 16:  ES64L-G16RevA.03 25-Dec-2016

 -------------------------------------
 # td=(NStates=1) CAM-B3LYP/6-31G(d,p)
 -------------------------------------

 --
 TD
 --
 Symbolic Z-matrix:
 Charge =  0 Multiplicity = 1

                         Standard orientation:
 ---------------------------------------------------------------------
 Center     Atomic      Atomic             Coordinates (Angstroms)
 Number     Number       Type             X           Y           Z
 ---------------------------------------------------------------------
      1          8           0       14.671886   -2.230130   -0.429112
      2          8           0      -14.934012    1.694592    0.771312
      3          6           0       11.220829   -1.466125    1.074476
      4          6           0      -12.285308   -1.121704    0.600275
      5          6           0       12.739311   -1.887175    0.960462
      6          6           0      -13.656983   -0.442063    0.636652
      7          6           0       13.326680   -1.916447   -0.444244
      8          6           0      -13.628170    1.131857    0.831016
      9          6           0       11.000867   -0.337600   -0.002131
     10          6           0      -11.290319   -0.263746   -0.233914
     11          6           0       13.167731   -0.569290   -1.203537
     12          6           0      -12.892906    1.660775   -0.392889
     13          6           0       11.821339   -0.061082   -1.060527
     14          6           0      -11.588009    1.019424   -0.587650
     15          6           0       11.018594   -1.032778    2.442922
     16          6           0       10.352043   -2.639241    0.613939
     17          6           0      -11.823729   -1.202078    2.038765
     18          6           0      -12.485862   -2.414562   -0.045919
     19          6           0        9.629559    0.264150    0.203389
     20          6           0       -9.934908   -0.917981   -0.445525
     21          6           0       11.451962    1.102272   -2.045268
     22          6           0      -10.655469    1.771113   -1.526582
     23          6           0        9.294758    1.602251    0.125553
     24          6           0       -8.730789   -0.510337   -0.230512
     25          6           0        8.124458    2.196551    0.217568
     26          6           0       -7.498871   -1.261503   -0.555753
     27          6           0        8.031277    3.689140    0.582609
     28          6           0       -7.680632   -2.728304   -0.948147
     29          6           0        6.995687    1.511758    0.080479
     30          6           0       -6.317679   -0.526575   -0.446532
     31          6           0        5.628873    2.137425    0.328871
     32          6           0       -5.035324   -1.037617   -0.490381
     33          6           0        4.514581    1.335614    0.030109
     34          6           0       -3.983813   -0.172252   -0.471592
     35          6           0        3.180950    1.746461    0.135098
     36          6           0       -2.624004   -0.661367   -0.405674
     37          6           0        2.879145    3.191154    0.523487
     38          6           0       -2.411815   -2.068210   -0.690981
     39          6           0        2.138208    0.856394   -0.031698
     40          6           0       -1.626589    0.274026   -0.125467
     41          6           0        0.754989    1.066766    0.072709
     42          6           0       -0.167547    0.102781   -0.122573
     43          1           0       13.173718   -1.015135    1.424475
     44          1           0       12.856224   -2.892016    1.391578
     45          1           0      -14.354603   -0.882129    1.421028
     46          1           0      -13.907598   -0.515339   -0.462286
     47          1           0       12.842250   -2.678146   -1.059703
     48          1           0      -13.034661    1.403259    1.639378
     49          1           0       13.859309    0.065574   -0.750361
     50          1           0       13.272423   -0.630591   -2.236673
     51          1           0      -13.577979    1.600224   -1.190424
     52          1           0      -12.881838    2.847016   -0.077142
     53          1           0       11.115141   -1.737666    3.133228
     54          1           0        9.985264   -0.470924    2.511994
     55          1           0       11.789424   -0.102477    2.829545
     56          1           0       10.661347   -3.264235   -0.505616
     57          1           0       10.419771   -3.260438    1.483452
     58          1           0        9.227976   -2.199820    0.632962
     59          1           0      -12.020611   -0.132189    2.523545
     60          1           0      -10.715426   -1.513812    2.184134
     61          1           0      -12.490805   -1.952356    2.600017
     62          1           0      -13.285890   -3.072744    0.448815
     63          1           0      -11.665627   -3.058349    0.023326
     64          1           0      -12.837056   -2.369021   -1.139923
     65          1           0        8.730875   -0.451242    0.487214
     66          1           0       -9.910037   -2.042770   -0.685362
     67          1           0       10.456642    1.192865   -2.167609
     68          1           0       12.107647    2.073246   -1.839310
     69          1           0       11.971776    1.109915   -2.991873
     70          1           0      -11.489774    2.132194   -2.113715
     71          1           0      -10.065094    1.078500   -2.339566
     72          1           0      -10.105527    2.659291   -1.022643
     73          1           0       14.791349   -3.253960   -0.270458
     74          1           0      -15.356682    1.691469    1.822717
     75          1           0       10.293316    2.229923   -0.108732
     76          1           0       -8.378404    0.606947    0.012394
     77          1           0        8.947861    4.136731    0.992149
     78          1           0        7.715031    4.393010   -0.125463
     79          1           0        7.237718    3.572102    1.400546
     80          1           0       -8.533556   -3.046722   -0.292304
     81          1           0       -8.047753   -2.826255   -2.071460
     82          1           0       -6.645932   -3.227772   -0.872932
     83          1           0        7.020141    0.522838   -0.130300
     84          1           0       -6.405126    0.607278   -0.576017
     85          1           0        5.257798    3.057606    0.632420
     86          1           0       -4.928216   -2.062184   -0.677648
     87          1           0        4.734689    0.297710   -0.106256
     88          1           0       -4.173781    0.958280   -0.110507
     89          1           0        2.642963    3.442749    1.777898
     90          1           0        1.850696    3.565544   -0.222149
     91          1           0        3.842463    3.669022   -0.002106
     92          1           0       -2.282911   -2.698701    0.180842
     93          1           0       -3.012272   -2.345799   -1.412868
     94          1           0       -1.245967   -1.926241   -0.867991
     95          1           0        2.363274   -0.174314   -0.121853
     96          1           0       -1.805607    1.303558    0.390406
     97          1           0        0.405903    2.120810    0.290291
     98          1           0       -0.035936   -0.781243   -0.366010
 ---------------------------------------------------------------------

 SCF Done:  E(RCAM-B3LYP) =  -1706.85173376     A.U. after   14 cycles

 Excitation energies and oscillator strengths:

 Excited State   1:      Singlet-A      2.3597 eV  525.43 nm  f=3.5885  <S**2>=0.000
     155 ->158        -0.17197
     156 ->157         0.68251
 This state for optimization and/or second-order correction.
 Total Energy, E(TD-HF/TD-DFT) =  -1706.76501696
 Copying the excited state density for this state as the 1-particle RhoCI density.

 The electronic state is 1-A.
 Alpha  occ. eigenvalues --  -19.22952 -19.21313 -10.30020 -10.29690 -10.29632
 Alpha  occ. eigenvalues --  -10.27954 -10.27573 -10.27562 -10.27327 -10.26963
 Alpha  occ. eigenvalues --  -10.26958 -10.26859 -10.26765 -10.26701 -10.26699
 Alpha  occ. eigenvalues --  -10.26577 -10.26553 -10.26514 -10.26434 -10.26267
 Alpha  occ. eigenvalues --  -10.26224 -10.26148 -10.26096 -10.26084 -10.26077
 Alpha  occ. eigenvalues --  -10.25972 -10.25646 -10.25615 -10.25594 -10.25466
 Alpha  occ. eigenvalues --  -10.25460 -10.25457 -10.25452 -10.25365 -10.25194
 Alpha  occ. eigenvalues --  -10.25064 -10.24934 -10.24914 -10.24799 -10.24510
 Alpha  occ. eigenvalues --  -10.24312 -10.23654  -1.09262  -1.07428  -0.93728
 Alpha  occ. eigenvalues --   -0.93383  -0.92693  -0.92178  -0.91200  -0.90349
 Alpha  occ. eigenvalues --   -0.87893  -0.87764  -0.87615  -0.85801  -0.83829
 Alpha  occ. eigenvalues --   -0.82637  -0.81692  -0.79656  -0.79386  -0.77962
 Alpha  occ. eigenvalues --   -0.76471  -0.76320  -0.76007  -0.76001  -0.75307
 Alpha  occ. eigenvalues --   -0.74990  -0.74195  -0.73951  -0.73554  -0.70895
 Alpha  occ. eigenvalues --   -0.68925  -0.67272  -0.65890  -0.65260  -0.63827
 Alpha  occ. eigenvalues --   -0.63389  -0.63193  -0.61541  -0.60589  -0.60143
 Alpha  occ. eigenvalues --   -0.59166  -0.59049  -0.57796  -0.56721  -0.56235
 Alpha  occ. eigenvalues --   -0.55602  -0.55357  -0.54108  -0.54103  -0.53733
 Alpha  occ. eigenvalues --   -0.53067  -0.52661  -0.52259  -0.51989  -0.51200
 Alpha  occ. eigenvalues --   -0.50457  -0.50388  -0.50133  -0.49998  -0.49439
 Alpha  occ. eigenvalues --   -0.49298  -0.48855  -0.48691  -0.48506  -0.47958
 Alpha  occ. eigenvalues --   -0.47369  -0.47140  -0.46747  -0.46414  -0.46076
 Alpha  occ. eigenvalues --   -0.45236  -0.45186  -0.44853  -0.44742  -0.44340
 Alpha  occ. eigenvalues --   -0.44316  -0.43988  -0.43873  -0.43638  -0.42931
 Alpha  occ. eigenvalues --   -0.42815  -0.42607  -0.42359  -0.42227  -0.41583
 Alpha  occ. eigenvalues --   -0.41440  -0.41367  -0.40852  -0.40771  -0.40606
 Alpha  occ. eigenvalues --   -0.40458  -0.40201  -0.39689  -0.39570  -0.39033
 Alpha  occ. eigenvalues --   -0.38832  -0.38338  -0.37992  -0.37781  -0.37276
 Alpha  occ. eigenvalues --   -0.37089  -0.36758  -0.36101  -0.35969  -0.35443
 Alpha  occ. eigenvalues --   -0.34953  -0.34665  -0.34061  -0.31690  -0.31432
 Alpha  occ. eigenvalues --   -0.31266  -0.29501  -0.28360  -0.26347  -0.23299
 Alpha  occ. eigenvalues --   -0.19899
 Alpha virt. eigenvalues --   -0.05282  -0.01038   0.02449   0.05632   0.07566
 Alpha virt. eigenvalues --    0.08422   0.09041   0.10501   0.11004   0.11392
 Alpha virt. eigenvalues --    0.11535   0.11666   0.12381   0.13020   0.13407

 Mulliken charges:
               1
     1  O   -0.559865
     2  O   -0.563218
     3  C   -0.016079
     4  C    0.007167
     5  C   -0.168734
     6  C   -0.178118
     7  C    0.164167
     8  C    0.163073
     9  C    0.043688
    10  C    0.061245
    11  C   -0.212676
    12  C   -0.243048
    13  C    0.047533
    14  C    0.045914
    15  C   -0.287621
    16  C   -0.268717
    17  C   -0.284255
    18  C   -0.299695
    19  C   -0.137181
    20  C   -0.156477
    21  C   -0.356840
    22  C   -0.346517
    23  C   -0.135688
    24  C   -0.046613
    25  C    0.131024
    26  C    0.088394
    27  C   -0.363322
    28  C   -0.361532
    29  C   -0.114725
    30  C   -0.144139
    31  C   -0.113694
    32  C   -0.057098
    33  C   -0.096628
    34  C   -0.122567
    35  C    0.096505
    36  C    0.086834
    37  C   -0.340829
    38  C   -0.350483
    39  C   -0.108871
    40  C   -0.144743
    41  C   -0.084720
    42  C   -0.029493
    43  H    0.103524
    44  H    0.073012
    45  H    0.076773
    46  H    0.091916
    47  H    0.061230
    48  H    0.091095
    49  H    0.129441
    50  H    0.110579
    51  H    0.136662
    52  H    0.084422
    53  H    0.115101
    54  H    0.097869
    55  H    0.077994
    56  H    0.083091
    57  H    0.101083
    58  H    0.082879
    59  H    0.082452
    60  H    0.099089
    61  H    0.088998
    62  H    0.086639
    63  H    0.102722
    64  H    0.098836
    65  H    0.074038
    66  H    0.069750
    67  H    0.137042
    68  H    0.091867
    69  H    0.098226
    70  H    0.114629
    71  H    0.105320
    72  H    0.110100
    73  H    0.307684
    74  H    0.304486
    75  H    0.083472
    76  H    0.069403
    77  H    0.105701
    78  H    0.128148
    79  H    0.118095
    80  H    0.122732
    81  H    0.121574
    82  H    0.104417
    83  H    0.080433
    84  H    0.090555
    85  H    0.089636
    86  H    0.082498
    87  H    0.077549
    88  H    0.083675
    89  H    0.106937
    90  H    0.079706
    91  H    0.104843
    92  H    0.140828
    93  H    0.126197
    94  H    0.092532
    95  H    0.075107
    96  H    0.070700
    97  H    0.078094
    98  H    0.037267
 Sum of Mulliken charges =  -0.00000

 Dipole moment (field-independent basis, Debye):
    X=             -0.6759    Y=             -2.1990    Z=              1.4071  Tot=              2.6968
 Quadrupole moment (field-independent basis, Debye-Ang):
   XX=           -272.3596   YY=           -242.7152   ZZ=           -259.4896
   XY=             -5.3552   XZ=            -16.5323   YZ=              4.1165

 Normal termination of Gaussian 16 at Tue Jul  9 09:02:08 2019.
