 Gaussian 16, Revision A.03,
 Gaussian 16:  ES64L-G16RevA.03 25-Dec-2016

 -------------------------------------
 # td=(NStates=1) CAM-B3LYP/6-31G(d,p)
 -------------------------------------

 --
 TD
 --
 Symbolic Z-matrix:
 Charge =  0 Multiplicity = 1

                         Standard orientation:
 ---------------------------------------------------------------------
 Center     Atomic      Atomic             Coordinates (Angstroms)
 Number     Number       Type             X           Y           Z
 ---------------------------------------------------------------------
      1          8           0       14.655079   -2.341146   -0.380518
      2          8           0      -14.776571    1.874102    0.569527
      3          6           0       11.193891   -1.354583    1.031710
      4          6           0      -12.321191   -1.016769    0.571061
      5          6           0       12.710532   -1.880878    1.050263
      6          6           0      -13.722441   -0.221758    0.527010
      7          6           0       13.335923   -1.932579   -0.437518
      8          6           0      -13.520500    1.267020    0.754133
      9          6           0       10.954667   -0.272999   -0.066911
     10          6           0      -11.355266   -0.232759   -0.218784
     11          6           0       13.353897   -0.544666   -0.980568
     12          6           0      -12.756086    1.819585   -0.294014
     13          6           0       11.895325    0.217810   -0.981940
     14          6           0      -11.457691    1.108389   -0.593937
     15          6           0       10.725428   -0.800838    2.411570
     16          6           0       10.224299   -2.534368    0.643637
     17          6           0      -11.906872   -1.171691    2.058183
     18          6           0      -12.608232   -2.397852    0.013526
     19          6           0        9.634518    0.413138    0.102638
     20          6           0      -10.027725   -0.909236   -0.443023
     21          6           0       11.676919    1.153316   -2.037092
     22          6           0      -10.584379    1.816739   -1.466264
     23          6           0        9.396091    1.748600    0.044406
     24          6           0       -8.708186   -0.404244   -0.352524
     25          6           0        8.028843    2.348469    0.099937
     26          6           0       -7.531124   -1.241592   -0.454989
     27          6           0        7.972555    3.804868    0.479100
     28          6           0       -7.677398   -2.690203   -0.920855
     29          6           0        6.844289    1.600428    0.048497
     30          6           0       -6.363480   -0.563269   -0.136919
     31          6           0        5.589719    2.071135    0.137839
     32          6           0       -5.058912   -1.122446   -0.439267
     33          6           0        4.449132    1.284522    0.050804
     34          6           0       -3.933452   -0.425046   -0.256761
     35          6           0        3.042596    1.625582    0.176400
     36          6           0       -2.596532   -0.865463   -0.393449
     37          6           0        2.722690    3.023062    0.714517
     38          6           0       -2.289084   -2.321741   -0.943281
     39          6           0        2.190410    0.643684   -0.049139
     40          6           0       -1.561475   -0.021516   -0.054005
     41          6           0        0.749284    0.716867    0.182085
     42          6           0       -0.184731   -0.206480   -0.338370
     43          1           0       13.312583   -0.940328    1.428439
     44          1           0       12.596482   -2.860038    1.514610
     45          1           0      -14.296626   -0.805894    1.180198
     46          1           0      -14.255873   -0.221127   -0.324078
     47          1           0       12.833330   -2.699228   -1.050422
     48          1           0      -13.024809    1.616059    1.677359
     49          1           0       14.012216   -0.038166   -0.207712
     50          1           0       13.849615   -0.699654   -2.177418
     51          1           0      -13.470005    1.876790   -1.161959
     52          1           0      -12.499496    2.782000   -0.036188
     53          1           0       11.032589   -1.616302    3.147109
     54          1           0        9.650400   -0.594811    2.806958
     55          1           0       11.377745    0.080426    2.442483
     56          1           0       10.632043   -3.046180   -0.328705
     57          1           0       10.310651   -3.395490    1.374613
     58          1           0        9.188019   -2.309372    0.669651
     59          1           0      -11.700745   -0.286574    2.459175
     60          1           0      -10.829982   -1.554299    2.188095
     61          1           0      -12.654317   -1.792165    2.596236
     62          1           0      -13.179984   -2.850240    0.655116
     63          1           0      -11.686135   -3.115155   -0.036803
     64          1           0      -12.880391   -2.404929   -1.110566
     65          1           0        8.970866   -0.254298    0.387445
     66          1           0      -10.016224   -1.922246   -0.793386
     67          1           0       10.710799    1.245740   -2.286293
     68          1           0       12.025854    2.194158   -1.985707
     69          1           0       12.156516    0.756909   -2.989570
     70          1           0      -11.066587    2.296163   -2.335972
     71          1           0       -9.814829    1.232469   -2.039093
     72          1           0       -9.859904    2.503628   -0.749778
     73          1           0       14.576242   -3.332210    0.048138
     74          1           0      -15.549387    1.355540    1.089090
     75          1           0       10.201530    2.477725   -0.495788
     76          1           0       -8.694499    0.786715   -0.114355
     77          1           0        8.949682    4.302396    0.820096
     78          1           0        7.561435    4.344900   -0.485098
     79          1           0        7.301330    3.968054    1.398871
     80          1           0       -7.884333   -3.254149   -0.198779
     81          1           0       -8.285331   -2.889628   -1.799556
     82          1           0       -6.833798   -3.013165   -1.092695
     83          1           0        6.925800    0.641667   -0.378352
     84          1           0       -6.435466    0.428727    0.218809
     85          1           0        5.547051    3.146382    0.399216
     86          1           0       -4.948826   -2.066336   -0.883371
     87          1           0        4.609889    0.323592   -0.100818
     88          1           0       -3.890108    0.600528    0.204877
     89          1           0        2.979916    3.043942    1.803294
     90          1           0        1.731260    3.258632    0.255941
     91          1           0        3.439246    3.896173    0.260794
     92          1           0       -2.963472   -2.936237   -0.390003
     93          1           0       -2.359488   -2.310032   -2.124243
     94          1           0       -1.229551   -2.571382   -0.196134
     95          1           0        2.734807   -0.359438   -0.441543
     96          1           0       -1.901266    0.890773    0.625907
     97          1           0        0.483355    1.731279    0.672199
     98          1           0        0.324623   -1.087398   -0.948628
 ---------------------------------------------------------------------

 SCF Done:  E(RCAM-B3LYP) =  -1706.88585444     A.U. after   15 cycles

 Excitation energies and oscillator strengths:

 Excited State   1:      Singlet-A      2.4033 eV  515.90 nm  f=3.7076  <S**2>=0.000
     155 ->158        -0.18195
     156 ->157         0.67794
 This state for optimization and/or second-order correction.
 Total Energy, E(TD-HF/TD-DFT) =  -1706.79753648
 Copying the excited state density for this state as the 1-particle RhoCI density.

 The electronic state is 1-A.
 Alpha  occ. eigenvalues --  -19.22188 -19.21200 -10.30519 -10.28952 -10.28573
 Alpha  occ. eigenvalues --  -10.28236 -10.27842 -10.27664 -10.27585 -10.27574
 Alpha  occ. eigenvalues --  -10.27526 -10.27452 -10.27293 -10.27250 -10.27181
 Alpha  occ. eigenvalues --  -10.26989 -10.26940 -10.26839 -10.26784 -10.26715
 Alpha  occ. eigenvalues --  -10.26665 -10.26564 -10.26457 -10.26197 -10.25924
 Alpha  occ. eigenvalues --  -10.25821 -10.25796 -10.25746 -10.25594 -10.25497
 Alpha  occ. eigenvalues --  -10.25492 -10.25391 -10.25296 -10.25114 -10.24856
 Alpha  occ. eigenvalues --  -10.24486 -10.24357 -10.24252 -10.24118 -10.23520
 Alpha  occ. eigenvalues --  -10.23023 -10.22854  -1.09676  -1.08534  -0.93428
 Alpha  occ. eigenvalues --   -0.92285  -0.91782  -0.91433  -0.90041  -0.89450
 Alpha  occ. eigenvalues --   -0.87775  -0.86510  -0.86137  -0.85028  -0.84295
 Alpha  occ. eigenvalues --   -0.82842  -0.81699  -0.80716  -0.80127  -0.78176
 Alpha  occ. eigenvalues --   -0.76876  -0.76739  -0.76532  -0.75681  -0.75529
 Alpha  occ. eigenvalues --   -0.75474  -0.75059  -0.74021  -0.73208  -0.69985
 Alpha  occ. eigenvalues --   -0.68289  -0.66754  -0.65266  -0.64223  -0.63822
 Alpha  occ. eigenvalues --   -0.63554  -0.62617  -0.61094  -0.60275  -0.59604
 Alpha  occ. eigenvalues --   -0.58813  -0.58511  -0.58401  -0.57040  -0.56117
 Alpha  occ. eigenvalues --   -0.55354  -0.55050  -0.54460  -0.53796  -0.53175
 Alpha  occ. eigenvalues --   -0.52991  -0.52487  -0.51942  -0.51641  -0.51009
 Alpha  occ. eigenvalues --   -0.50670  -0.50276  -0.49874  -0.49582  -0.49370
 Alpha  occ. eigenvalues --   -0.49110  -0.49021  -0.48903  -0.48590  -0.48235
 Alpha  occ. eigenvalues --   -0.47959  -0.47309  -0.47178  -0.46801  -0.46603
 Alpha  occ. eigenvalues --   -0.46054  -0.45824  -0.45577  -0.44873  -0.44769
 Alpha  occ. eigenvalues --   -0.44142  -0.44052  -0.43682  -0.43479  -0.42960
 Alpha  occ. eigenvalues --   -0.42708  -0.42418  -0.42339  -0.42219  -0.41558
 Alpha  occ. eigenvalues --   -0.41233  -0.41055  -0.41009  -0.40848  -0.40518
 Alpha  occ. eigenvalues --   -0.39977  -0.39705  -0.39189  -0.39111  -0.38984
 Alpha  occ. eigenvalues --   -0.38695  -0.38594  -0.38156  -0.37877  -0.37707
 Alpha  occ. eigenvalues --   -0.37247  -0.37206  -0.37058  -0.36620  -0.35477
 Alpha  occ. eigenvalues --   -0.35321  -0.35010  -0.33750  -0.32142  -0.31544
 Alpha  occ. eigenvalues --   -0.31369  -0.29356  -0.27694  -0.25830  -0.22778
 Alpha  occ. eigenvalues --   -0.19658
 Alpha virt. eigenvalues --   -0.04817  -0.01028   0.02373   0.05367   0.07363
 Alpha virt. eigenvalues --    0.09480   0.09969   0.11014   0.11213   0.11311
 Alpha virt. eigenvalues --    0.11550   0.12676   0.12777   0.13056   0.13507

 Mulliken charges:
               1
     1  O   -0.542079
     2  O   -0.578507
     3  C   -0.021211
     4  C   -0.036120
     5  C   -0.201914
     6  C   -0.184457
     7  C    0.176627
     8  C    0.174892
     9  C    0.042561
    10  C    0.071784
    11  C   -0.213841
    12  C   -0.202172
    13  C    0.057061
    14  C    0.056958
    15  C   -0.296680
    16  C   -0.311970
    17  C   -0.294605
    18  C   -0.285515
    19  C   -0.069926
    20  C   -0.150461
    21  C   -0.384619
    22  C   -0.375909
    23  C   -0.113415
    24  C   -0.103673
    25  C    0.057800
    26  C    0.069592
    27  C   -0.370227
    28  C   -0.335060
    29  C   -0.095224
    30  C   -0.113747
    31  C   -0.075950
    32  C   -0.102858
    33  C   -0.116740
    34  C   -0.086733
    35  C    0.135877
    36  C    0.078671
    37  C   -0.368143
    38  C   -0.354454
    39  C   -0.132386
    40  C   -0.130689
    41  C   -0.108350
    42  C   -0.095065
    43  H    0.098820
    44  H    0.091810
    45  H    0.073856
    46  H    0.107281
    47  H    0.074051
    48  H    0.075900
    49  H    0.116399
    50  H    0.076520
    51  H    0.116187
    52  H    0.111175
    53  H    0.087897
    54  H    0.110158
    55  H    0.112085
    56  H    0.091785
    57  H    0.083796
    58  H    0.117347
    59  H    0.115947
    60  H    0.099623
    61  H    0.096347
    62  H    0.103974
    63  H    0.081031
    64  H    0.098305
    65  H    0.073199
    66  H    0.076420
    67  H    0.135381
    68  H    0.118062
    69  H    0.101104
    70  H    0.115720
    71  H    0.125066
    72  H    0.090487
    73  H    0.304901
    74  H    0.303602
    75  H    0.081282
    76  H    0.068114
    77  H    0.108100
    78  H    0.113026
    79  H    0.119367
    80  H    0.137184
    81  H    0.122251
    82  H    0.104116
    83  H    0.078087
    84  H    0.089580
    85  H    0.071451
    86  H    0.084049
    87  H    0.058967
    88  H    0.067442
    89  H    0.137393
    90  H    0.118186
    91  H    0.097436
    92  H    0.130563
    93  H    0.127822
    94  H    0.085467
    95  H    0.074501
    96  H    0.080940
    97  H    0.087707
    98  H    0.103606
 Sum of Mulliken charges =  -0.00000

 Dipole moment (field-independent basis, Debye):
    X=             -1.3031    Y=             -2.4688    Z=              1.0402  Tot=              2.9791
 Quadrupole moment (field-independent basis, Debye-Ang):
   XX=           -275.0197   YY=           -243.2024   ZZ=           -259.8978
   XY=             12.1522   XZ=             -3.2803   YZ=              1.6470

 Normal termination of Gaussian 16 at Tue Jul 16 13:54:50 2019.
