 Gaussian 16, Revision A.03,
 Gaussian 16:  ES64L-G16RevA.03 25-Dec-2016

 -------------------------------------
 # td=(NStates=1) CAM-B3LYP/6-31G(d,p)
 -------------------------------------

 --
 TD
 --
 Symbolic Z-matrix:
 Charge =  0 Multiplicity = 1

                         Standard orientation:
 ---------------------------------------------------------------------
 Center     Atomic      Atomic             Coordinates (Angstroms)
 Number     Number       Type             X           Y           Z
 ---------------------------------------------------------------------
      1          8           0       14.657697   -2.361715   -0.382971
      2          8           0      -14.771914    1.915283    1.021389
      3          6           0       11.162570   -1.469540    1.048190
      4          6           0      -12.278913   -0.947365    0.667801
      5          6           0       12.703483   -1.930908    0.960013
      6          6           0      -13.639261   -0.285708    0.712920
      7          6           0       13.367209   -1.833948   -0.446685
      8          6           0      -13.568843    1.215941    0.911570
      9          6           0       10.960993   -0.153085    0.210630
     10          6           0      -11.195172   -0.253960   -0.173907
     11          6           0       13.211995   -0.420766   -0.970000
     12          6           0      -12.675561    1.795106   -0.179127
     13          6           0       11.858243    0.204682   -0.767565
     14          6           0      -11.473168    0.983103   -0.567520
     15          6           0       10.738018   -1.269076    2.512236
     16          6           0       10.202552   -2.652946    0.260254
     17          6           0      -11.697700   -1.123179    2.053916
     18          6           0      -12.623116   -2.445316    0.090741
     19          6           0        9.633292    0.434694    0.318041
     20          6           0       -9.988918   -0.929767   -0.386023
     21          6           0       11.649312    1.315890   -1.814167
     22          6           0      -10.585354    1.772136   -1.551296
     23          6           0        9.352472    1.801367    0.186803
     24          6           0       -8.757587   -0.425684   -0.531216
     25          6           0        8.022868    2.391909    0.310939
     26          6           0       -7.584497   -1.191653   -0.817387
     27          6           0        7.899009    3.750192    0.669769
     28          6           0       -7.710769   -2.724330   -0.925181
     29          6           0        6.835478    1.576280    0.032924
     30          6           0       -6.372160   -0.540529   -0.677146
     31          6           0        5.542355    2.064585    0.133191
     32          6           0       -5.069431   -1.035886   -0.689722
     33          6           0        4.442305    1.255713   -0.187224
     34          6           0       -3.912057   -0.299485   -0.359273
     35          6           0        3.095171    1.623142    0.047073
     36          6           0       -2.560945   -0.880231   -0.537246
     37          6           0        2.817736    3.099807    0.321966
     38          6           0       -2.329537   -2.242731   -0.802117
     39          6           0        2.153078    0.619242   -0.126537
     40          6           0       -1.467607    0.018788   -0.327926
     41          6           0        0.805255    0.869623   -0.051457
     42          6           0       -0.174992   -0.172263   -0.308214
     43          1           0       13.448599   -1.210965    1.676846
     44          1           0       12.590226   -2.802083    1.680094
     45          1           0      -13.990352   -0.698551    1.586772
     46          1           0      -14.073255   -0.300934   -0.120135
     47          1           0       12.824713   -2.527949   -1.050712
     48          1           0      -12.985853    1.398221    1.908306
     49          1           0       14.073561    0.083958   -0.482558
     50          1           0       13.388269   -0.474979   -2.111804
     51          1           0      -13.340022    2.104519   -1.120649
     52          1           0      -12.212820    2.824718    0.212148
     53          1           0       10.759595   -2.133715    3.239131
     54          1           0        9.581893   -0.866472    2.520765
     55          1           0       11.383221   -0.476645    2.881765
     56          1           0       10.330586   -2.790752   -0.951839
     57          1           0       10.718357   -3.626349    0.890459
     58          1           0        9.133873   -2.543008    0.651714
     59          1           0      -11.611367   -0.261469    2.657028
     60          1           0      -10.659779   -1.553469    2.153832
     61          1           0      -12.323925   -1.866059    2.564581
     62          1           0      -13.619121   -2.775493    0.683539
     63          1           0      -11.724231   -3.069072    0.436147
     64          1           0      -12.691536   -2.538128   -0.975717
     65          1           0        8.906263   -0.194473    0.736855
     66          1           0      -10.361293   -2.035655   -0.336510
     67          1           0       10.656366    1.422008   -2.037426
     68          1           0       12.112112    2.452624   -1.386757
     69          1           0       12.224296    1.249069   -2.769626
     70          1           0      -11.112587    2.481109   -2.356658
     71          1           0       -9.975895    0.971109   -1.996230
     72          1           0       -9.960826    2.424672   -0.940167
     73          1           0       14.597581   -3.241153    0.173990
     74          1           0      -15.279208    1.334043    1.611573
     75          1           0       10.153516    2.544377    0.181484
     76          1           0       -8.592266    0.583676   -0.352929
     77          1           0        8.734469    4.424920    0.447596
     78          1           0        6.988092    4.306240    0.070982
     79          1           0        7.515137    3.811689    1.879562
     80          1           0       -8.285172   -3.203230   -0.187799
     81          1           0       -8.581477   -2.998561   -1.764745
     82          1           0       -6.568597   -3.100069   -1.204438
     83          1           0        6.954715    0.489770   -0.173150
     84          1           0       -6.636944    0.563545   -0.390128
     85          1           0        5.311108    3.064847    0.405342
     86          1           0       -5.095640   -2.152607   -0.741369
     87          1           0        4.449763    0.263037   -0.560350
     88          1           0       -4.015696    0.662775    0.186655
     89          1           0        2.850764    3.236008    1.404440
     90          1           0        1.708609    3.563734   -0.037135
     91          1           0        3.709112    3.551824   -0.072273
     92          1           0       -2.710872   -2.875101   -0.123098
     93          1           0       -2.904077   -2.380576   -1.784707
     94          1           0       -1.093518   -2.440671   -0.554797
     95          1           0        2.453150   -0.327264   -0.302566
     96          1           0       -1.671243    1.174771   -0.202285
     97          1           0        0.479522    1.739447    0.277527
     98          1           0        0.227021   -1.072859   -0.650164
 ---------------------------------------------------------------------

 SCF Done:  E(RCAM-B3LYP) =  -1706.89304737     A.U. after   16 cycles

 Excitation energies and oscillator strengths:

 Excited State   1:      Singlet-A      1.7312 eV  716.16 nm  f=3.7020  <S**2>=0.000
     155 ->158        -0.14218
     156 ->157         0.69854
     156 <-157        -0.11948
 This state for optimization and/or second-order correction.
 Total Energy, E(TD-HF/TD-DFT) =  -1706.82942571
 Copying the excited state density for this state as the 1-particle RhoCI density.

 The electronic state is 1-A.
 Alpha  occ. eigenvalues --  -19.21743 -19.21529 -10.30462 -10.30165 -10.29593
 Alpha  occ. eigenvalues --  -10.29234 -10.27933 -10.27793 -10.27718 -10.27699
 Alpha  occ. eigenvalues --  -10.27558 -10.27549 -10.27418 -10.27304 -10.27233
 Alpha  occ. eigenvalues --  -10.27115 -10.27059 -10.26951 -10.26857 -10.26784
 Alpha  occ. eigenvalues --  -10.26693 -10.26615 -10.26546 -10.26506 -10.26386
 Alpha  occ. eigenvalues --  -10.26384 -10.26361 -10.26315 -10.26182 -10.26105
 Alpha  occ. eigenvalues --  -10.26082 -10.26004 -10.25894 -10.25856 -10.25504
 Alpha  occ. eigenvalues --  -10.25315 -10.25302 -10.25263 -10.24974 -10.24640
 Alpha  occ. eigenvalues --  -10.24388 -10.23066  -1.10715  -1.09074  -0.94470
 Alpha  occ. eigenvalues --   -0.92752  -0.92335  -0.91767  -0.90862  -0.90033
 Alpha  occ. eigenvalues --   -0.87829  -0.86995  -0.85744  -0.85657  -0.84745
 Alpha  occ. eigenvalues --   -0.83487  -0.82455  -0.79848  -0.79378  -0.79214
 Alpha  occ. eigenvalues --   -0.76386  -0.76275  -0.76165  -0.75703  -0.75507
 Alpha  occ. eigenvalues --   -0.75153  -0.74664  -0.73335  -0.72608  -0.70747
 Alpha  occ. eigenvalues --   -0.69028  -0.67623  -0.65462  -0.64952  -0.64287
 Alpha  occ. eigenvalues --   -0.63929  -0.62907  -0.62563  -0.60828  -0.60074
 Alpha  occ. eigenvalues --   -0.59203  -0.58837  -0.58195  -0.57958  -0.57188
 Alpha  occ. eigenvalues --   -0.56293  -0.55638  -0.54890  -0.54721  -0.54415
 Alpha  occ. eigenvalues --   -0.53110  -0.52952  -0.52056  -0.51499  -0.51097
 Alpha  occ. eigenvalues --   -0.50474  -0.50160  -0.49958  -0.49433  -0.49114
 Alpha  occ. eigenvalues --   -0.48828  -0.48445  -0.48215  -0.47870  -0.47477
 Alpha  occ. eigenvalues --   -0.47166  -0.47001  -0.46554  -0.46309  -0.46219
 Alpha  occ. eigenvalues --   -0.46088  -0.45761  -0.45594  -0.45201  -0.44886
 Alpha  occ. eigenvalues --   -0.44816  -0.44612  -0.44072  -0.43581  -0.43244
 Alpha  occ. eigenvalues --   -0.43208  -0.43074  -0.42959  -0.42905  -0.42017
 Alpha  occ. eigenvalues --   -0.41894  -0.41689  -0.41540  -0.40794  -0.40493
 Alpha  occ. eigenvalues --   -0.40292  -0.40167  -0.39820  -0.39723  -0.39601
 Alpha  occ. eigenvalues --   -0.39124  -0.39073  -0.38952  -0.38908  -0.37771
 Alpha  occ. eigenvalues --   -0.37601  -0.37470  -0.36622  -0.36553  -0.35969
 Alpha  occ. eigenvalues --   -0.35518  -0.34203  -0.33799  -0.32726  -0.31299
 Alpha  occ. eigenvalues --   -0.31230  -0.29538  -0.28137  -0.25435  -0.22680
 Alpha  occ. eigenvalues --   -0.17866
 Alpha virt. eigenvalues --   -0.07187  -0.01862   0.01651   0.05253   0.07248
 Alpha virt. eigenvalues --    0.09772   0.10670   0.10719   0.11153   0.11481
 Alpha virt. eigenvalues --    0.11803   0.12030   0.12703   0.13080   0.13232

 Mulliken charges:
               1
     1  O   -0.570177
     2  O   -0.544345
     3  C   -0.027682
     4  C   -0.058162
     5  C   -0.214229
     6  C   -0.148297
     7  C    0.201034
     8  C    0.160147
     9  C    0.088025
    10  C    0.117880
    11  C   -0.223110
    12  C   -0.227731
    13  C    0.045405
    14  C    0.018648
    15  C   -0.304764
    16  C   -0.289457
    17  C   -0.313379
    18  C   -0.314552
    19  C   -0.115977
    20  C   -0.105457
    21  C   -0.340961
    22  C   -0.365008
    23  C   -0.116970
    24  C   -0.121104
    25  C    0.105913
    26  C    0.123126
    27  C   -0.377902
    28  C   -0.351026
    29  C   -0.110309
    30  C   -0.109401
    31  C   -0.092558
    32  C   -0.122848
    33  C   -0.110757
    34  C   -0.106224
    35  C    0.105520
    36  C    0.091456
    37  C   -0.367296
    38  C   -0.365437
    39  C   -0.110291
    40  C   -0.104951
    41  C   -0.072748
    42  C   -0.085828
    43  H    0.059299
    44  H    0.085186
    45  H    0.086967
    46  H    0.106357
    47  H    0.079343
    48  H    0.047464
    49  H    0.125178
    50  H    0.103678
    51  H    0.099384
    52  H    0.097374
    53  H    0.103158
    54  H    0.082787
    55  H    0.125705
    56  H    0.109330
    57  H    0.065414
    58  H    0.107694
    59  H    0.116595
    60  H    0.106279
    61  H    0.091433
    62  H    0.089207
    63  H    0.096461
    64  H    0.122390
    65  H    0.088267
    66  H    0.058966
    67  H    0.134717
    68  H    0.067151
    69  H    0.106597
    70  H    0.093909
    71  H    0.124171
    72  H    0.115992
    73  H    0.318319
    74  H    0.306453
    75  H    0.094523
    76  H    0.094351
    77  H    0.119231
    78  H    0.094639
    79  H    0.100671
    80  H    0.139019
    81  H    0.084297
    82  H    0.089523
    83  H    0.085411
    84  H    0.067639
    85  H    0.086715
    86  H    0.083434
    87  H    0.079386
    88  H    0.102396
    89  H    0.132024
    90  H    0.097830
    91  H    0.121522
    92  H    0.141697
    93  H    0.125616
    94  H    0.084996
    95  H    0.075529
    96  H    0.066800
    97  H    0.068005
    98  H    0.075307
 Sum of Mulliken charges =  -0.00000

 Dipole moment (field-independent basis, Debye):
    X=             -0.2479    Y=             -1.9064    Z=              2.3029  Tot=              2.9999
 Quadrupole moment (field-independent basis, Debye-Ang):
   XX=           -285.5268   YY=           -248.1262   ZZ=           -262.9931
   XY=             18.8061   XZ=             -3.1521   YZ=             -1.8668

 Normal termination of Gaussian 16 at Wed Jul 17 04:01:37 2019.
