 Gaussian 16, Revision A.03,
 Gaussian 16:  ES64L-G16RevA.03 25-Dec-2016

 -------------------------------------
 # td=(NStates=1) CAM-B3LYP/6-31G(d,p)
 -------------------------------------

 --
 TD
 --
 Symbolic Z-matrix:
 Charge =  0 Multiplicity = 1

                         Standard orientation:
 ---------------------------------------------------------------------
 Center     Atomic      Atomic             Coordinates (Angstroms)
 Number     Number       Type             X           Y           Z
 ---------------------------------------------------------------------
      1          8           0       14.409218   -2.606025   -0.058474
      2          8           0      -14.815757    1.565125    1.197618
      3          6           0       10.986598   -1.578931    1.047404
      4          6           0      -12.309631   -1.253253    0.637796
      5          6           0       12.411835   -2.201098    1.086587
      6          6           0      -13.714005   -0.454786    0.729598
      7          6           0       12.990804   -2.154791   -0.233347
      8          6           0      -13.491044    1.002058    1.082613
      9          6           0       10.832069   -0.397743    0.062890
     10          6           0      -11.259782   -0.274384   -0.123737
     11          6           0       13.209005   -0.851263   -0.771334
     12          6           0      -12.747073    1.730182    0.023464
     13          6           0       11.846535    0.046869   -0.802246
     14          6           0      -11.436600    1.003937   -0.472114
     15          6           0       10.581786   -1.069770    2.497132
     16          6           0       10.059331   -2.697834    0.651518
     17          6           0      -11.693859   -1.602162    2.078166
     18          6           0      -12.460119   -2.550385   -0.116213
     19          6           0        9.618073    0.301418    0.109652
     20          6           0       -9.957621   -0.916815   -0.605891
     21          6           0       11.679344    1.040137   -1.891290
     22          6           0      -10.536757    1.882205   -1.155645
     23          6           0        9.379567    1.693712    0.061061
     24          6           0       -8.758328   -0.433088   -0.423794
     25          6           0        8.148515    2.352615    0.153244
     26          6           0       -7.548994   -1.076506   -0.759163
     27          6           0        8.171741    3.875682    0.500392
     28          6           0       -7.601512   -2.450218   -1.466037
     29          6           0        6.881327    1.717858    0.038280
     30          6           0       -6.278754   -0.530405   -0.470406
     31          6           0        5.632435    2.306965    0.016856
     32          6           0       -4.975266   -1.020015   -0.603438
     33          6           0        4.486371    1.531637   -0.020553
     34          6           0       -3.908214   -0.250015   -0.313102
     35          6           0        3.089167    2.038140   -0.075783
     36          6           0       -2.501031   -0.534149   -0.629722
     37          6           0        2.754627    3.419025    0.516555
     38          6           0       -2.190626   -1.932858   -1.281864
     39          6           0        2.170631    0.988145   -0.260838
     40          6           0       -1.487527    0.306978   -0.262345
     41          6           0        0.818044    1.158791   -0.156004
     42          6           0       -0.099304    0.217142   -0.406725
     43          1           0       13.032418   -1.518835    1.711880
     44          1           0       12.368190   -3.106330    1.512186
     45          1           0      -14.286731   -0.908909    1.627146
     46          1           0      -14.369646   -0.613488   -0.301002
     47          1           0       12.539026   -2.682463   -1.076750
     48          1           0      -12.859420    1.005501    2.044850
     49          1           0       14.220833   -0.288456   -0.355641
     50          1           0       13.464336   -1.021033   -1.952553
     51          1           0      -13.452304    1.842257   -1.002948
     52          1           0      -12.571936    2.600694    0.395265
     53          1           0       10.869090   -1.999041    3.033616
     54          1           0        9.649023   -0.672226    2.518558
     55          1           0       11.305607   -0.284913    2.937356
     56          1           0       10.255566   -3.135356   -0.350618
     57          1           0       10.180682   -3.337521    1.498990
     58          1           0        9.020538   -2.483956    0.759876
     59          1           0      -11.527761   -0.775446    2.825484
     60          1           0      -10.436514   -1.722774    1.833846
     61          1           0      -12.115923   -2.470701    2.651847
     62          1           0      -13.118538   -3.214072    0.419185
     63          1           0      -11.427623   -2.990269   -0.268493
     64          1           0      -12.752136   -2.337363   -1.095976
     65          1           0        8.867456   -0.364243    0.108104
     66          1           0       -9.954596   -1.960035   -1.083960
     67          1           0       10.679190    1.345339   -2.072739
     68          1           0       12.441998    1.998720   -1.754108
     69          1           0       12.059609    0.568401   -2.902519
     70          1           0      -11.090926    2.641068   -1.704268
     71          1           0       -9.815667    1.295266   -1.583245
     72          1           0       -9.863017    2.553605   -0.332886
     73          1           0       14.554693   -3.536913    0.278348
     74          1           0      -15.267404    0.955050    1.794373
     75          1           0       10.318101    2.418903   -0.043894
     76          1           0       -8.641737    0.547279    0.072548
     77          1           0        9.234480    4.236304    0.581750
     78          1           0        7.667526    4.322924   -0.335961
     79          1           0        7.564653    4.070412    1.292920
     80          1           0       -8.030945   -3.121350   -0.672069
     81          1           0       -8.213166   -2.575137   -2.374371
     82          1           0       -6.472764   -2.547464   -1.757850
     83          1           0        6.950823    0.751303   -0.261916
     84          1           0       -6.505830    0.528585   -0.086271
     85          1           0        5.434583    3.343192    0.356552
     86          1           0       -4.804972   -2.005111   -1.082009
     87          1           0        4.619436    0.709350   -0.285443
     88          1           0       -4.216139    0.696482    0.334116
     89          1           0        3.234297    3.609188    1.459921
     90          1           0        1.760096    3.532271    0.345939
     91          1           0        3.272430    4.062026    0.003073
     92          1           0       -2.728766   -2.664373   -0.694387
     93          1           0       -2.656894   -1.967837   -2.304086
     94          1           0       -1.276287   -1.895613   -1.207747
     95          1           0        2.463713   -0.073510   -0.430151
     96          1           0       -1.769200    1.280492    0.269714
     97          1           0        0.324721    2.034586    0.224929
     98          1           0        0.375519   -0.645410   -0.581360
 ---------------------------------------------------------------------

 SCF Done:  E(RCAM-B3LYP) =  -1706.91410234     A.U. after   15 cycles

 Excitation energies and oscillator strengths:

 Excited State   1:      Singlet-A      2.2337 eV  555.05 nm  f=3.5931  <S**2>=0.000
     155 ->158        -0.17536
     156 ->157         0.68234
 This state for optimization and/or second-order correction.
 Total Energy, E(TD-HF/TD-DFT) =  -1706.83201381
 Copying the excited state density for this state as the 1-particle RhoCI density.

 The electronic state is 1-A.
 Alpha  occ. eigenvalues --  -19.20867 -19.19882 -10.30505 -10.29765 -10.29222
 Alpha  occ. eigenvalues --  -10.28310 -10.27925 -10.27638 -10.27616 -10.27435
 Alpha  occ. eigenvalues --  -10.27344 -10.27285 -10.27217 -10.27171 -10.27108
 Alpha  occ. eigenvalues --  -10.26995 -10.26693 -10.26677 -10.26631 -10.26592
 Alpha  occ. eigenvalues --  -10.26587 -10.26505 -10.26400 -10.26305 -10.26183
 Alpha  occ. eigenvalues --  -10.26106 -10.25891 -10.25428 -10.25285 -10.25248
 Alpha  occ. eigenvalues --  -10.25214 -10.25006 -10.24954 -10.24935 -10.24878
 Alpha  occ. eigenvalues --  -10.24702 -10.24596 -10.24496 -10.24272 -10.24252
 Alpha  occ. eigenvalues --  -10.24198 -10.24142  -1.08912  -1.06120  -0.93859
 Alpha  occ. eigenvalues --   -0.92935  -0.92628  -0.91488  -0.90782  -0.89783
 Alpha  occ. eigenvalues --   -0.88227  -0.87036  -0.86809  -0.86154  -0.85447
 Alpha  occ. eigenvalues --   -0.83841  -0.83093  -0.80394  -0.80349  -0.79665
 Alpha  occ. eigenvalues --   -0.77397  -0.76747  -0.76652  -0.76103  -0.75959
 Alpha  occ. eigenvalues --   -0.75865  -0.75623  -0.74562  -0.73843  -0.70663
 Alpha  occ. eigenvalues --   -0.69341  -0.66962  -0.65154  -0.64320  -0.63738
 Alpha  occ. eigenvalues --   -0.63502  -0.63464  -0.62958  -0.61454  -0.60089
 Alpha  occ. eigenvalues --   -0.59323  -0.58641  -0.58295  -0.57441  -0.56685
 Alpha  occ. eigenvalues --   -0.56396  -0.55781  -0.54734  -0.54319  -0.54159
 Alpha  occ. eigenvalues --   -0.53453  -0.52929  -0.52405  -0.52220  -0.51324
 Alpha  occ. eigenvalues --   -0.51059  -0.50693  -0.50383  -0.49560  -0.49460
 Alpha  occ. eigenvalues --   -0.49254  -0.48962  -0.48621  -0.48196  -0.48184
 Alpha  occ. eigenvalues --   -0.47804  -0.47628  -0.47439  -0.46856  -0.46543
 Alpha  occ. eigenvalues --   -0.46448  -0.46233  -0.46108  -0.45401  -0.45365
 Alpha  occ. eigenvalues --   -0.45079  -0.44820  -0.44137  -0.44025  -0.43990
 Alpha  occ. eigenvalues --   -0.43425  -0.43174  -0.42643  -0.42411  -0.42087
 Alpha  occ. eigenvalues --   -0.41593  -0.41454  -0.41209  -0.40761  -0.40455
 Alpha  occ. eigenvalues --   -0.40382  -0.40339  -0.40009  -0.39469  -0.39074
 Alpha  occ. eigenvalues --   -0.39016  -0.38706  -0.38303  -0.38196  -0.37745
 Alpha  occ. eigenvalues --   -0.37556  -0.37321  -0.36735  -0.36625  -0.36163
 Alpha  occ. eigenvalues --   -0.35608  -0.35146  -0.34598  -0.32756  -0.32071
 Alpha  occ. eigenvalues --   -0.31774  -0.29605  -0.28557  -0.26304  -0.22953
 Alpha  occ. eigenvalues --   -0.19616
 Alpha virt. eigenvalues --   -0.05628  -0.01737   0.02202   0.06110   0.07570
 Alpha virt. eigenvalues --    0.09392   0.11170   0.11769   0.12196   0.12391
 Alpha virt. eigenvalues --    0.12582   0.12926   0.13300   0.13319   0.13672

 Mulliken charges:
               1
     1  O   -0.594309
     2  O   -0.557110
     3  C   -0.067734
     4  C    0.012417
     5  C   -0.158452
     6  C   -0.188641
     7  C    0.178577
     8  C    0.165204
     9  C    0.074059
    10  C    0.033920
    11  C   -0.207643
    12  C   -0.186527
    13  C    0.047981
    14  C    0.070914
    15  C   -0.293459
    16  C   -0.296455
    17  C   -0.311508
    18  C   -0.295668
    19  C   -0.119303
    20  C   -0.177783
    21  C   -0.356903
    22  C   -0.351048
    23  C   -0.126231
    24  C   -0.063581
    25  C    0.070911
    26  C    0.080505
    27  C   -0.367333
    28  C   -0.363749
    29  C   -0.107019
    30  C   -0.129060
    31  C   -0.085810
    32  C   -0.083414
    33  C   -0.046161
    34  C   -0.099933
    35  C    0.043802
    36  C    0.049220
    37  C   -0.353942
    38  C   -0.327868
    39  C   -0.124157
    40  C   -0.128292
    41  C   -0.062699
    42  C   -0.074079
    43  H    0.110336
    44  H    0.090928
    45  H    0.065800
    46  H    0.087627
    47  H    0.097356
    48  H    0.079027
    49  H    0.108087
    50  H    0.077171
    51  H    0.085703
    52  H    0.115545
    53  H    0.092727
    54  H    0.121735
    55  H    0.099131
    56  H    0.109634
    57  H    0.099766
    58  H    0.105058
    59  H    0.103764
    60  H    0.076180
    61  H    0.104291
    62  H    0.105920
    63  H    0.095869
    64  H    0.112430
    65  H    0.081599
    66  H    0.079571
    67  H    0.133101
    68  H    0.090891
    69  H    0.095154
    70  H    0.115983
    71  H    0.133569
    72  H    0.079878
    73  H    0.295487
    74  H    0.302103
    75  H    0.086932
    76  H    0.083844
    77  H    0.104387
    78  H    0.127554
    79  H    0.134547
    80  H    0.120479
    81  H    0.121164
    82  H    0.093315
    83  H    0.073803
    84  H    0.070120
    85  H    0.066321
    86  H    0.089868
    87  H    0.032748
    88  H    0.080090
    89  H    0.132594
    90  H    0.119668
    91  H    0.132985
    92  H    0.123576
    93  H    0.118940
    94  H    0.108455
    95  H    0.092262
    96  H    0.074821
    97  H    0.073694
    98  H    0.064768
 Sum of Mulliken charges =  -0.00000

 Dipole moment (field-independent basis, Debye):
    X=              0.5979    Y=             -1.9939    Z=              1.1331  Tot=              2.3700
 Quadrupole moment (field-independent basis, Debye-Ang):
   XX=           -298.5466   YY=           -243.4135   ZZ=           -260.1378
   XY=             10.1127   XZ=             -2.2947   YZ=              1.3859

 Normal termination of Gaussian 16 at Fri Jul 19 09:15:15 2019.
