 Gaussian 16, Revision A.03,
 Gaussian 16:  ES64L-G16RevA.03 25-Dec-2016

 -------------------------------------
 # td=(NStates=1) CAM-B3LYP/6-31G(d,p)
 -------------------------------------

 --
 TD
 --
 Symbolic Z-matrix:
 Charge =  0 Multiplicity = 1

                         Standard orientation:
 ---------------------------------------------------------------------
 Center     Atomic      Atomic             Coordinates (Angstroms)
 Number     Number       Type             X           Y           Z
 ---------------------------------------------------------------------
      1          8           0       14.657376   -2.286750   -0.549893
      2          8           0      -14.816026    1.864123    0.809926
      3          6           0       11.141759   -1.486356    0.891937
      4          6           0      -12.259782   -1.046599    0.501875
      5          6           0       12.775319   -1.842771    0.888214
      6          6           0      -13.693950   -0.396192    0.467331
      7          6           0       13.320806   -1.921429   -0.468593
      8          6           0      -13.574757    1.176534    0.778910
      9          6           0       10.894824   -0.326711   -0.086399
     10          6           0      -11.268719   -0.216934   -0.297022
     11          6           0       13.204090   -0.534708   -1.101688
     12          6           0      -12.698737    1.746132   -0.228890
     13          6           0       11.874835    0.183943   -0.971355
     14          6           0      -11.520945    1.052744   -0.699262
     15          6           0       10.753230   -1.316635    2.454525
     16          6           0       10.403108   -2.715269    0.420174
     17          6           0      -11.781886   -1.157510    2.017279
     18          6           0      -12.446018   -2.494429    0.033861
     19          6           0        9.663120    0.387318    0.215032
     20          6           0      -10.041909   -0.940479   -0.531153
     21          6           0       11.696636    1.313854   -1.861920
     22          6           0      -10.529286    1.786945   -1.521602
     23          6           0        9.378018    1.737921    0.182805
     24          6           0       -8.777216   -0.522661   -0.447620
     25          6           0        8.069945    2.373666    0.236221
     26          6           0       -7.560392   -1.177216   -0.570608
     27          6           0        7.951808    3.813516    0.468896
     28          6           0       -7.614466   -2.700186   -0.814603
     29          6           0        6.894169    1.602494    0.167970
     30          6           0       -6.452750   -0.460416   -0.401794
     31          6           0        5.565451    2.113929    0.353339
     32          6           0       -5.063992   -1.030879   -0.505664
     33          6           0        4.423502    1.325965    0.155373
     34          6           0       -3.934882   -0.331333   -0.326615
     35          6           0        3.099337    1.659147    0.262964
     36          6           0       -2.590139   -0.787567   -0.312347
     37          6           0        2.779019    3.068479    0.602250
     38          6           0       -2.415519   -2.243485   -0.647379
     39          6           0        2.117990    0.783937   -0.039727
     40          6           0       -1.606608    0.211837   -0.130402
     41          6           0        0.737449    0.976894   -0.070291
     42          6           0       -0.230173    0.017929   -0.216222
     43          1           0       13.189705   -1.013315    1.507658
     44          1           0       12.783338   -2.785172    1.602457
     45          1           0      -14.109770   -1.002087    1.155120
     46          1           0      -14.053707   -0.480572   -0.403218
     47          1           0       12.676217   -2.568919   -1.050551
     48          1           0      -13.030917    1.172007    1.729050
     49          1           0       13.787792    0.055408   -0.374897
     50          1           0       13.603864   -0.493272   -2.184496
     51          1           0      -13.342553    2.128254   -1.185666
     52          1           0      -12.360875    2.742466    0.200463
     53          1           0       11.109255   -2.094328    3.091677
     54          1           0        9.804241   -1.272298    2.517380
     55          1           0       11.213024   -0.389938    2.881449
     56          1           0       10.695276   -2.859913   -0.644003
     57          1           0       10.845453   -3.712411    0.935499
     58          1           0        9.274675   -2.660077    0.772256
     59          1           0      -11.626584   -0.098599    2.494285
     60          1           0      -10.798714   -1.662745    1.918508
     61          1           0      -12.465009   -1.813485    2.648766
     62          1           0      -13.197609   -2.861782    0.822023
     63          1           0      -11.620193   -3.179956    0.331013
     64          1           0      -12.926304   -2.293037   -1.085889
     65          1           0        8.615474   -0.129161    0.532030
     66          1           0      -10.188638   -2.135219   -0.859326
     67          1           0       10.644038    1.427270   -2.311041
     68          1           0       11.783187    2.231572   -1.222604
     69          1           0       12.268732    1.137737   -2.808962
     70          1           0      -10.875609    2.225353   -2.486923
     71          1           0       -9.630012    1.104602   -1.814535
     72          1           0      -10.002260    2.594114   -1.056963
     73          1           0       14.869419   -3.275682   -0.393263
     74          1           0      -15.424345    1.356932    1.482759
     75          1           0       10.203681    2.601586    0.248805
     76          1           0       -8.737331    0.586831   -0.050361
     77          1           0        9.011716    4.174978    0.578006
     78          1           0        7.422142    4.233785   -0.480520
     79          1           0        7.370388    3.901940    1.337248
     80          1           0       -8.091304   -3.279537   -0.197573
     81          1           0       -8.090583   -2.808282   -1.839652
     82          1           0       -6.608374   -3.200416   -0.965742
     83          1           0        7.094722    0.433454    0.096521
     84          1           0       -6.534399    0.695850   -0.533427
     85          1           0        5.386509    3.203772    0.531112
     86          1           0       -5.210945   -2.003408   -0.632404
     87          1           0        4.428731    0.382437   -0.130480
     88          1           0       -4.135944    0.612253   -0.011651
     89          1           0        3.358947    3.292532    1.670224
     90          1           0        1.709575    3.201128    1.011988
     91          1           0        3.204441    3.880164   -0.027677
     92          1           0       -2.717479   -2.968783    0.317174
     93          1           0       -2.944653   -2.482219   -1.421703
     94          1           0       -1.428155   -2.487202   -0.885754
     95          1           0        2.510615   -0.128061   -0.670064
     96          1           0       -2.183127    1.166202    0.242526
     97          1           0        0.311188    1.971686    0.232886
     98          1           0        0.334507   -1.093918   -0.326590
 ---------------------------------------------------------------------

 SCF Done:  E(RCAM-B3LYP) =  -1706.93922685     A.U. after   15 cycles

 Excitation energies and oscillator strengths:

 Excited State   1:      Singlet-A      2.1982 eV  564.03 nm  f=3.4873  <S**2>=0.000
     155 ->158         0.16603
     156 ->157         0.68381
 This state for optimization and/or second-order correction.
 Total Energy, E(TD-HF/TD-DFT) =  -1706.85844499
 Copying the excited state density for this state as the 1-particle RhoCI density.

 The electronic state is 1-A.
 Alpha  occ. eigenvalues --  -19.22136 -19.21607 -10.30306 -10.30272 -10.27942
 Alpha  occ. eigenvalues --  -10.27937 -10.27744 -10.27555 -10.27496 -10.27303
 Alpha  occ. eigenvalues --  -10.27086 -10.27046 -10.27007 -10.26911 -10.26835
 Alpha  occ. eigenvalues --  -10.26765 -10.26721 -10.26713 -10.26500 -10.26484
 Alpha  occ. eigenvalues --  -10.26397 -10.26368 -10.26274 -10.26260 -10.26187
 Alpha  occ. eigenvalues --  -10.26132 -10.26132 -10.26046 -10.25948 -10.25798
 Alpha  occ. eigenvalues --  -10.25685 -10.25667 -10.25667 -10.25580 -10.25434
 Alpha  occ. eigenvalues --  -10.25066 -10.25043 -10.24792 -10.24698 -10.24330
 Alpha  occ. eigenvalues --  -10.23388 -10.22439  -1.09418  -1.08443  -0.94034
 Alpha  occ. eigenvalues --   -0.92887  -0.92629  -0.92058  -0.90813  -0.90268
 Alpha  occ. eigenvalues --   -0.87532  -0.87300  -0.86840  -0.85395  -0.84870
 Alpha  occ. eigenvalues --   -0.83227  -0.81920  -0.80688  -0.79718  -0.78530
 Alpha  occ. eigenvalues --   -0.77624  -0.76673  -0.76425  -0.75940  -0.75700
 Alpha  occ. eigenvalues --   -0.75517  -0.74467  -0.74418  -0.73723  -0.70765
 Alpha  occ. eigenvalues --   -0.68997  -0.67815  -0.66247  -0.64645  -0.63453
 Alpha  occ. eigenvalues --   -0.63274  -0.62545  -0.61750  -0.59778  -0.59543
 Alpha  occ. eigenvalues --   -0.59258  -0.58676  -0.58104  -0.57187  -0.55924
 Alpha  occ. eigenvalues --   -0.55720  -0.55213  -0.54648  -0.54491  -0.53883
 Alpha  occ. eigenvalues --   -0.53302  -0.52825  -0.52179  -0.51596  -0.51003
 Alpha  occ. eigenvalues --   -0.50829  -0.50137  -0.49913  -0.49680  -0.49541
 Alpha  occ. eigenvalues --   -0.49297  -0.49102  -0.48195  -0.48139  -0.48011
 Alpha  occ. eigenvalues --   -0.47584  -0.47358  -0.47052  -0.46784  -0.46439
 Alpha  occ. eigenvalues --   -0.46107  -0.45940  -0.45499  -0.45210  -0.44701
 Alpha  occ. eigenvalues --   -0.44576  -0.43987  -0.43869  -0.43684  -0.43303
 Alpha  occ. eigenvalues --   -0.43165  -0.43138  -0.42685  -0.42383  -0.42346
 Alpha  occ. eigenvalues --   -0.41584  -0.41427  -0.40979  -0.40824  -0.40493
 Alpha  occ. eigenvalues --   -0.40109  -0.39660  -0.39387  -0.39367  -0.38923
 Alpha  occ. eigenvalues --   -0.38435  -0.38206  -0.37965  -0.37807  -0.37736
 Alpha  occ. eigenvalues --   -0.37392  -0.37129  -0.36954  -0.36654  -0.36145
 Alpha  occ. eigenvalues --   -0.35219  -0.34898  -0.34019  -0.32395  -0.31930
 Alpha  occ. eigenvalues --   -0.31290  -0.29863  -0.27974  -0.25729  -0.23165
 Alpha  occ. eigenvalues --   -0.19403
 Alpha virt. eigenvalues --   -0.05664  -0.01164   0.01950   0.05031   0.07766
 Alpha virt. eigenvalues --    0.09096   0.11132   0.11268   0.11352   0.11502
 Alpha virt. eigenvalues --    0.11626   0.12222   0.12732   0.13416   0.13469

 Mulliken charges:
               1
     1  O   -0.571363
     2  O   -0.566298
     3  C   -0.043065
     4  C   -0.069575
     5  C   -0.194301
     6  C   -0.164016
     7  C    0.202752
     8  C    0.179881
     9  C    0.069026
    10  C    0.074255
    11  C   -0.226007
    12  C   -0.238527
    13  C    0.057666
    14  C    0.114400
    15  C   -0.296703
    16  C   -0.272676
    17  C   -0.302291
    18  C   -0.285077
    19  C   -0.119178
    20  C   -0.145619
    21  C   -0.369435
    22  C   -0.392501
    23  C   -0.105775
    24  C   -0.111342
    25  C    0.075556
    26  C    0.141978
    27  C   -0.360842
    28  C   -0.372458
    29  C   -0.107553
    30  C   -0.165408
    31  C   -0.117202
    32  C   -0.067777
    33  C   -0.078247
    34  C   -0.104350
    35  C    0.166557
    36  C    0.119000
    37  C   -0.387040
    38  C   -0.351480
    39  C   -0.159696
    40  C   -0.135742
    41  C   -0.075869
    42  C   -0.089355
    43  H    0.095170
    44  H    0.070868
    45  H    0.077832
    46  H    0.097279
    47  H    0.074233
    48  H    0.075732
    49  H    0.129493
    50  H    0.103038
    51  H    0.096786
    52  H    0.109531
    53  H    0.104608
    54  H    0.109274
    55  H    0.097072
    56  H    0.104981
    57  H    0.071187
    58  H    0.093418
    59  H    0.095936
    60  H    0.108937
    61  H    0.091676
    62  H    0.086130
    63  H    0.107937
    64  H    0.097794
    65  H    0.074722
    66  H    0.067808
    67  H    0.127676
    68  H    0.132892
    69  H    0.107486
    70  H    0.105205
    71  H    0.116525
    72  H    0.117247
    73  H    0.313993
    74  H    0.314097
    75  H    0.057063
    76  H    0.084957
    77  H    0.097400
    78  H    0.120409
    79  H    0.141501
    80  H    0.135200
    81  H    0.120220
    82  H    0.104174
    83  H    0.072489
    84  H    0.079333
    85  H    0.086986
    86  H    0.055854
    87  H    0.055229
    88  H    0.070495
    89  H    0.079957
    90  H    0.107355
    91  H    0.132397
    92  H    0.094353
    93  H    0.134175
    94  H    0.113240
    95  H    0.078475
    96  H    0.092015
    97  H    0.079120
    98  H    0.076740
 Sum of Mulliken charges =  -0.00000

 Dipole moment (field-independent basis, Debye):
    X=              0.6713    Y=             -2.2259    Z=              0.9722  Tot=              2.5200
 Quadrupole moment (field-independent basis, Debye-Ang):
   XX=           -257.9151   YY=           -243.2846   ZZ=           -261.2073
   XY=              9.4802   XZ=            -13.4710   YZ=              0.9023

 Normal termination of Gaussian 16 at Wed Jul 17 10:39:28 2019.
