 Gaussian 16, Revision A.03,
 Gaussian 16:  ES64L-G16RevA.03 25-Dec-2016

 -------------------------------------
 # td=(NStates=1) CAM-B3LYP/6-31G(d,p)
 -------------------------------------

 --
 TD
 --
 Symbolic Z-matrix:
 Charge =  0 Multiplicity = 1

                         Standard orientation:
 ---------------------------------------------------------------------
 Center     Atomic      Atomic             Coordinates (Angstroms)
 Number     Number       Type             X           Y           Z
 ---------------------------------------------------------------------
      1          8           0       14.707342   -2.162296   -0.102691
      2          8           0      -14.668790    1.970212    1.129094
      3          6           0       11.151372   -1.461337    0.933114
      4          6           0      -12.363454   -1.103645    0.705082
      5          6           0       12.594047   -1.872609    1.085640
      6          6           0      -13.624416   -0.211987    0.780937
      7          6           0       13.300104   -1.895776   -0.219879
      8          6           0      -13.425230    1.230305    1.032293
      9          6           0       10.866461   -0.353542   -0.031761
     10          6           0      -11.247295   -0.244890   -0.111813
     11          6           0       13.203742   -0.547723   -0.865166
     12          6           0      -12.633387    1.789025   -0.113907
     13          6           0       11.898112    0.211185   -0.877122
     14          6           0      -11.442883    0.966776   -0.520095
     15          6           0       10.609959   -1.047971    2.421529
     16          6           0       10.313880   -2.752579    0.593851
     17          6           0      -11.716904   -1.357246    2.099255
     18          6           0      -12.718531   -2.416622   -0.018578
     19          6           0        9.553223    0.301335    0.145174
     20          6           0      -10.021188   -0.903284   -0.488255
     21          6           0       11.704601    1.267121   -1.827601
     22          6           0      -10.507640    1.733406   -1.381775
     23          6           0        9.288936    1.737140    0.274352
     24          6           0       -8.757424   -0.441674   -0.354504
     25          6           0        8.040382    2.242405    0.255890
     26          6           0       -7.635285   -1.221026   -0.685667
     27          6           0        7.988624    3.717122    0.559078
     28          6           0       -7.783277   -2.569993   -1.175858
     29          6           0        6.849551    1.492867   -0.044178
     30          6           0       -6.338461   -0.600935   -0.611512
     31          6           0        5.609278    2.101193    0.206167
     32          6           0       -5.035350   -1.067005   -0.715749
     33          6           0        4.537874    1.226778   -0.071956
     34          6           0       -3.943554   -0.230622   -0.431460
     35          6           0        3.138438    1.725295   -0.010749
     36          6           0       -2.620200   -0.761553   -0.588216
     37          6           0        2.852224    3.217936    0.251842
     38          6           0       -2.321824   -2.193751   -1.040134
     39          6           0        2.148213    0.743042   -0.181308
     40          6           0       -1.481749    0.062290   -0.322053
     41          6           0        0.724890    0.924818   -0.078661
     42          6           0       -0.116402   -0.263336   -0.379335
     43          1           0       13.167088   -1.227656    1.690943
     44          1           0       12.664787   -2.762958    1.773308
     45          1           0      -14.055397   -0.724024    1.553280
     46          1           0      -14.387946   -0.391565   -0.021382
     47          1           0       12.862542   -2.675315   -0.940661
     48          1           0      -12.829179    1.384100    2.050145
     49          1           0       14.087768    0.079111   -0.479077
     50          1           0       13.371069   -0.528594   -2.026739
     51          1           0      -13.407060    1.921023   -0.934171
     52          1           0      -12.435061    2.878439    0.195160
     53          1           0       10.796788   -1.793468    3.220109
     54          1           0        9.565446   -0.899225    2.444173
     55          1           0       11.103317   -0.165221    2.898922
     56          1           0       10.888679   -3.234914   -0.154603
     57          1           0       10.345864   -3.398301    1.406615
     58          1           0        9.376943   -2.568441    0.346140
     59          1           0      -11.455852   -0.301029    2.419811
     60          1           0      -10.814065   -1.925166    2.180244
     61          1           0      -12.423281   -1.745499    2.899643
     62          1           0      -13.578277   -2.834700    0.334883
     63          1           0      -11.786331   -3.074357   -0.084322
     64          1           0      -12.974077   -2.140435   -1.034416
     65          1           0        8.797474   -0.228782    0.357289
     66          1           0      -10.037434   -2.073758   -0.844636
     67          1           0       10.619014    1.268717   -1.956973
     68          1           0       12.056536    2.342569   -1.595106
     69          1           0       12.374674    0.931815   -2.805824
     70          1           0      -11.203800    2.210440   -2.182811
     71          1           0       -9.764561    0.942444   -1.877801
     72          1           0       -9.953825    2.377336   -0.867638
     73          1           0       14.792747   -3.145031    0.022919
     74          1           0      -15.168681    1.508867    1.856160
     75          1           0       10.031483    2.568734    0.098139
     76          1           0       -8.782954    0.677362    0.054475
     77          1           0        8.978296    3.968770    0.812964
     78          1           0        7.378518    4.308141   -0.362565
     79          1           0        7.379416    3.861604    1.464920
     80          1           0       -8.259289   -3.135823   -0.264599
     81          1           0       -8.334454   -2.462942   -2.030779
     82          1           0       -6.733012   -3.039997   -1.472028
     83          1           0        6.828922    0.538743   -0.427827
     84          1           0       -6.643418    0.340715   -0.234777
     85          1           0        5.237179    3.107112    0.456393
     86          1           0       -4.875774   -2.059280   -1.045271
     87          1           0        4.859709    0.180858   -0.136142
     88          1           0       -4.013365    0.857755   -0.180727
     89          1           0        3.449049    3.509559    1.224568
     90          1           0        1.701865    3.410061    0.164126
     91          1           0        3.146379    3.791353   -0.693655
     92          1           0       -2.964415   -2.741857   -0.459764
     93          1           0       -2.958646   -2.325630   -1.904849
     94          1           0       -1.325034   -2.290767   -0.927415
     95          1           0        2.353334   -0.254982   -0.537367
     96          1           0       -1.729810    1.209572   -0.222513
     97          1           0        0.233408    1.861442   -0.025429
     98          1           0        0.301527   -1.375861   -0.586157
 ---------------------------------------------------------------------

 SCF Done:  E(RCAM-B3LYP) =  -1706.95874875     A.U. after   16 cycles

 Excitation energies and oscillator strengths:

 Excited State   1:      Singlet-A      1.7876 eV  693.59 nm  f=3.6278  <S**2>=0.000
     155 ->158        -0.16145
     156 ->157         0.69070
     156 <-157        -0.10212
 This state for optimization and/or second-order correction.
 Total Energy, E(TD-HF/TD-DFT) =  -1706.89305699
 Copying the excited state density for this state as the 1-particle RhoCI density.

 The electronic state is 1-A.
 Alpha  occ. eigenvalues --  -19.21586 -19.21415 -10.30879 -10.30808 -10.28803
 Alpha  occ. eigenvalues --  -10.28652 -10.28464 -10.28246 -10.27713 -10.27423
 Alpha  occ. eigenvalues --  -10.27347 -10.27225 -10.27063 -10.26940 -10.26814
 Alpha  occ. eigenvalues --  -10.26518 -10.26449 -10.26447 -10.26398 -10.26338
 Alpha  occ. eigenvalues --  -10.26295 -10.26266 -10.26146 -10.26118 -10.26047
 Alpha  occ. eigenvalues --  -10.26027 -10.25957 -10.25950 -10.25696 -10.25530
 Alpha  occ. eigenvalues --  -10.25513 -10.25454 -10.25256 -10.25124 -10.25094
 Alpha  occ. eigenvalues --  -10.24479 -10.24389 -10.24388 -10.24325 -10.24248
 Alpha  occ. eigenvalues --  -10.24135 -10.22666  -1.08781  -1.08408  -0.93991
 Alpha  occ. eigenvalues --   -0.93294  -0.91895  -0.91579  -0.90728  -0.89549
 Alpha  occ. eigenvalues --   -0.87751  -0.87091  -0.86831  -0.85370  -0.84508
 Alpha  occ. eigenvalues --   -0.83711  -0.82405  -0.80017  -0.79924  -0.78269
 Alpha  occ. eigenvalues --   -0.77025  -0.76804  -0.76548  -0.76171  -0.75875
 Alpha  occ. eigenvalues --   -0.75698  -0.75135  -0.74740  -0.72705  -0.70253
 Alpha  occ. eigenvalues --   -0.69193  -0.66727  -0.65536  -0.64570  -0.63698
 Alpha  occ. eigenvalues --   -0.63570  -0.62682  -0.61832  -0.61476  -0.59556
 Alpha  occ. eigenvalues --   -0.59352  -0.58677  -0.57841  -0.56747  -0.56459
 Alpha  occ. eigenvalues --   -0.55519  -0.55311  -0.54480  -0.53984  -0.53839
 Alpha  occ. eigenvalues --   -0.53555  -0.52438  -0.52077  -0.51413  -0.51071
 Alpha  occ. eigenvalues --   -0.50254  -0.49912  -0.49651  -0.49506  -0.49431
 Alpha  occ. eigenvalues --   -0.49097  -0.48897  -0.48820  -0.48656  -0.48374
 Alpha  occ. eigenvalues --   -0.47801  -0.47351  -0.47093  -0.46993  -0.46749
 Alpha  occ. eigenvalues --   -0.46529  -0.45839  -0.45604  -0.45490  -0.44977
 Alpha  occ. eigenvalues --   -0.44816  -0.44606  -0.44503  -0.44272  -0.43735
 Alpha  occ. eigenvalues --   -0.43241  -0.42924  -0.42733  -0.42237  -0.42202
 Alpha  occ. eigenvalues --   -0.41934  -0.41309  -0.41104  -0.40984  -0.40737
 Alpha  occ. eigenvalues --   -0.40295  -0.39966  -0.39478  -0.39191  -0.39184
 Alpha  occ. eigenvalues --   -0.38765  -0.38654  -0.38406  -0.38186  -0.37903
 Alpha  occ. eigenvalues --   -0.37592  -0.37449  -0.37272  -0.37120  -0.36562
 Alpha  occ. eigenvalues --   -0.35624  -0.34283  -0.33642  -0.32454  -0.32330
 Alpha  occ. eigenvalues --   -0.31721  -0.29745  -0.27538  -0.25631  -0.21907
 Alpha  occ. eigenvalues --   -0.17898
 Alpha virt. eigenvalues --   -0.06554  -0.02288   0.01895   0.05785   0.07600
 Alpha virt. eigenvalues --    0.09448   0.11012   0.11540   0.11723   0.12153
 Alpha virt. eigenvalues --    0.12355   0.12653   0.13045   0.13434   0.13502

 Mulliken charges:
               1
     1  O   -0.563487
     2  O   -0.565861
     3  C   -0.030840
     4  C   -0.009443
     5  C   -0.180185
     6  C   -0.197331
     7  C    0.155930
     8  C    0.164131
     9  C    0.060711
    10  C    0.069577
    11  C   -0.219826
    12  C   -0.225542
    13  C    0.089276
    14  C    0.059144
    15  C   -0.313883
    16  C   -0.292616
    17  C   -0.305474
    18  C   -0.304547
    19  C   -0.122375
    20  C   -0.178350
    21  C   -0.364067
    22  C   -0.357200
    23  C   -0.126665
    24  C   -0.081044
    25  C    0.092086
    26  C    0.070160
    27  C   -0.354852
    28  C   -0.364346
    29  C   -0.116511
    30  C   -0.099190
    31  C   -0.067382
    32  C   -0.104067
    33  C   -0.116780
    34  C   -0.085613
    35  C    0.071056
    36  C    0.062885
    37  C   -0.371797
    38  C   -0.340915
    39  C   -0.114777
    40  C   -0.132050
    41  C   -0.095335
    42  C   -0.101520
    43  H    0.111642
    44  H    0.080714
    45  H    0.089153
    46  H    0.100746
    47  H    0.073516
    48  H    0.064374
    49  H    0.119886
    50  H    0.085226
    51  H    0.114608
    52  H    0.104450
    53  H    0.087381
    54  H    0.106327
    55  H    0.099383
    56  H    0.097367
    57  H    0.105241
    58  H    0.106653
    59  H    0.098626
    60  H    0.118409
    61  H    0.087531
    62  H    0.109772
    63  H    0.096770
    64  H    0.108846
    65  H    0.069563
    66  H    0.066592
    67  H    0.135420
    68  H    0.115857
    69  H    0.077405
    70  H    0.095141
    71  H    0.110326
    72  H    0.129905
    73  H    0.307522
    74  H    0.307377
    75  H    0.083486
    76  H    0.093660
    77  H    0.108945
    78  H    0.098916
    79  H    0.121686
    80  H    0.113466
    81  H    0.141884
    82  H    0.090071
    83  H    0.088587
    84  H    0.065468
    85  H    0.091414
    86  H    0.074363
    87  H    0.085595
    88  H    0.094529
    89  H    0.124320
    90  H    0.108249
    91  H    0.130422
    92  H    0.130841
    93  H    0.127793
    94  H    0.099423
    95  H    0.086044
    96  H    0.071423
    97  H    0.092383
    98  H    0.104216
 Sum of Mulliken charges =  -0.00000

 Dipole moment (field-independent basis, Debye):
    X=             -0.4160    Y=             -2.1440    Z=              0.8941  Tot=              2.3599
 Quadrupole moment (field-independent basis, Debye-Ang):
   XX=           -279.7386   YY=           -243.5540   ZZ=           -262.9902
   XY=              8.8631   XZ=             -8.7603   YZ=              1.5605

 Normal termination of Gaussian 16 at Thu Jul 11 15:59:30 2019.
