 Gaussian 16, Revision A.03,
 Gaussian 16:  ES64L-G16RevA.03 25-Dec-2016

 -------------------------------------
 # td=(NStates=1) CAM-B3LYP/6-31G(d,p)
 -------------------------------------

 --
 TD
 --
 Symbolic Z-matrix:
 Charge =  0 Multiplicity = 1

                         Standard orientation:
 ---------------------------------------------------------------------
 Center     Atomic      Atomic             Coordinates (Angstroms)
 Number     Number       Type             X           Y           Z
 ---------------------------------------------------------------------
      1          8           0       14.672621   -2.267914   -0.333791
      2          8           0      -14.746933    1.864781    1.108824
      3          6           0       11.322098   -1.375901    1.077896
      4          6           0      -12.320251   -1.069501    0.637948
      5          6           0       12.807329   -1.627686    0.989959
      6          6           0      -13.722205   -0.278492    0.713772
      7          6           0       13.290897   -1.954335   -0.328845
      8          6           0      -13.509347    1.277143    0.926205
      9          6           0       11.023967   -0.237390    0.047757
     10          6           0      -11.281846   -0.269695   -0.207075
     11          6           0       13.180704   -0.580541   -1.176042
     12          6           0      -12.757029    1.830546   -0.179346
     13          6           0       11.897761    0.094939   -0.970515
     14          6           0      -11.638462    1.002980   -0.591767
     15          6           0       10.922637   -0.854187    2.495621
     16          6           0       10.415698   -2.716722    0.790037
     17          6           0      -11.852491   -1.357213    2.033149
     18          6           0      -12.509623   -2.452832    0.033492
     19          6           0        9.672968    0.342058    0.155057
     20          6           0      -10.050892   -0.992284   -0.535404
     21          6           0       11.564249    1.164863   -1.953137
     22          6           0      -10.588306    1.793254   -1.504319
     23          6           0        9.279638    1.651092   -0.025392
     24          6           0       -8.822373   -0.449333   -0.402623
     25          6           0        8.071714    2.272479    0.212245
     26          6           0       -7.586692   -1.144847   -0.603703
     27          6           0        7.982929    3.760252    0.388430
     28          6           0       -7.581130   -2.602402   -0.948769
     29          6           0        6.872935    1.575546    0.190435
     30          6           0       -6.373759   -0.463166   -0.515075
     31          6           0        5.609424    1.955167    0.266846
     32          6           0       -5.098026   -1.027574   -0.712405
     33          6           0        4.470513    1.197274    0.165744
     34          6           0       -3.942100   -0.307009   -0.566481
     35          6           0        3.132466    1.643827    0.261839
     36          6           0       -2.604701   -0.792593   -0.640765
     37          6           0        2.747977    3.061531    0.456084
     38          6           0       -2.342413   -2.274883   -0.933167
     39          6           0        2.095670    0.738183   -0.065912
     40          6           0       -1.608673    0.161727   -0.422899
     41          6           0        0.675278    0.949020   -0.229699
     42          6           0       -0.209545   -0.072969   -0.477305
     43          1           0       13.397208   -0.770488    1.267959
     44          1           0       13.123234   -2.503767    1.909717
     45          1           0      -14.523395   -0.941666    1.418874
     46          1           0      -14.273867   -0.347971   -0.385889
     47          1           0       12.662048   -2.829560   -0.865811
     48          1           0      -12.953072    1.330889    1.945432
     49          1           0       14.033398    0.106742   -0.815662
     50          1           0       13.326881   -0.813906   -2.255991
     51          1           0      -13.368993    2.021872   -0.914075
     52          1           0      -12.303336    2.731667    0.119327
     53          1           0       11.156619   -1.711456    3.171472
     54          1           0        9.928544   -0.563121    2.657182
     55          1           0       11.523443    0.059959    2.885776
     56          1           0       10.681981   -3.275901   -0.075265
     57          1           0       10.413047   -3.354847    1.760882
     58          1           0        9.392841   -2.419150    0.776084
     59          1           0      -11.312657   -0.360769    2.590030
     60          1           0      -11.025729   -2.103608    1.765744
     61          1           0      -12.395441   -2.068437    2.642637
     62          1           0      -13.657490   -2.823806    0.392710
     63          1           0      -11.675760   -3.075007    0.363104
     64          1           0      -12.831073   -2.314354   -1.041151
     65          1           0        8.857806   -0.377560    1.045126
     66          1           0      -10.142042   -2.054268   -0.701620
     67          1           0       10.585228    1.225498   -2.360215
     68          1           0       11.919550    2.071902   -1.450994
     69          1           0       12.283212    1.005336   -2.874357
     70          1           0      -11.250873    2.525471   -2.048530
     71          1           0      -10.135270    1.126896   -2.129504
     72          1           0      -10.050926    2.325682   -0.587849
     73          1           0       14.627460   -3.177913    0.152500
     74          1           0      -14.921628    1.701463    2.014705
     75          1           0       10.095116    2.286579   -0.146788
     76          1           0       -8.735435    0.614205   -0.009391
     77          1           0        8.942743    4.375425    0.553060
     78          1           0        7.191732    4.074525   -0.403239
     79          1           0        7.563455    3.813666    1.355297
     80          1           0       -8.212424   -3.170591   -0.137878
     81          1           0       -7.988633   -2.749974   -1.911246
     82          1           0       -6.797883   -2.932317   -0.929563
     83          1           0        7.161070    0.529394   -0.053630
     84          1           0       -6.313496    0.634004   -0.217715
     85          1           0        5.158176    3.096182    0.609377
     86          1           0       -5.152711   -2.046071   -0.678306
     87          1           0        4.597354    0.062005    0.026758
     88          1           0       -4.015303    0.813156   -0.079945
     89          1           0        3.145277    3.421718    1.574060
     90          1           0        1.639753    3.198677    0.502779
     91          1           0        3.209869    3.676893   -0.127793
     92          1           0       -2.461067   -2.882724   -0.071506
     93          1           0       -2.957945   -2.573753   -1.606493
     94          1           0       -1.322492   -2.299518   -1.227015
     95          1           0        2.403967   -0.395638   -0.074746
     96          1           0       -1.901539    1.169905    0.088904
     97          1           0        0.312878    1.898547   -0.124517
     98          1           0        0.119175   -1.157006   -0.594299
 ---------------------------------------------------------------------

 SCF Done:  E(RCAM-B3LYP) =  -1706.88085425     A.U. after   15 cycles

 Excitation energies and oscillator strengths:

 Excited State   1:      Singlet-A      2.0348 eV  609.33 nm  f=3.7210  <S**2>=0.000
     155 ->158         0.16563
     156 ->157         0.68655
 This state for optimization and/or second-order correction.
 Total Energy, E(TD-HF/TD-DFT) =  -1706.80607777
 Copying the excited state density for this state as the 1-particle RhoCI density.

 The electronic state is 1-A.
 Alpha  occ. eigenvalues --  -19.22282 -19.20965 -10.31667 -10.30894 -10.28821
 Alpha  occ. eigenvalues --  -10.28677 -10.27601 -10.27558 -10.27294 -10.27258
 Alpha  occ. eigenvalues --  -10.27163 -10.27092 -10.27070 -10.27010 -10.26999
 Alpha  occ. eigenvalues --  -10.26904 -10.26840 -10.26698 -10.26647 -10.26577
 Alpha  occ. eigenvalues --  -10.26473 -10.26461 -10.26376 -10.26286 -10.26146
 Alpha  occ. eigenvalues --  -10.26032 -10.26029 -10.25886 -10.25758 -10.25695
 Alpha  occ. eigenvalues --  -10.25670 -10.25628 -10.25602 -10.25542 -10.25490
 Alpha  occ. eigenvalues --  -10.25316 -10.25253 -10.25052 -10.24678 -10.24212
 Alpha  occ. eigenvalues --  -10.23664 -10.23634  -1.11694  -1.09510  -0.93645
 Alpha  occ. eigenvalues --   -0.93351  -0.92279  -0.91979  -0.90995  -0.90215
 Alpha  occ. eigenvalues --   -0.88175  -0.87438  -0.87068  -0.85707  -0.84919
 Alpha  occ. eigenvalues --   -0.83345  -0.82682  -0.80210  -0.80169  -0.78903
 Alpha  occ. eigenvalues --   -0.77508  -0.76606  -0.76235  -0.75852  -0.75809
 Alpha  occ. eigenvalues --   -0.75533  -0.74709  -0.74005  -0.73245  -0.70855
 Alpha  occ. eigenvalues --   -0.68999  -0.67270  -0.65543  -0.64589  -0.63823
 Alpha  occ. eigenvalues --   -0.62927  -0.62332  -0.61426  -0.60596  -0.60054
 Alpha  occ. eigenvalues --   -0.59821  -0.58900  -0.58283  -0.57660  -0.56416
 Alpha  occ. eigenvalues --   -0.55762  -0.54729  -0.54386  -0.54154  -0.53607
 Alpha  occ. eigenvalues --   -0.53311  -0.52739  -0.52370  -0.51959  -0.50988
 Alpha  occ. eigenvalues --   -0.50714  -0.50484  -0.50355  -0.50283  -0.50008
 Alpha  occ. eigenvalues --   -0.49494  -0.49103  -0.48998  -0.48666  -0.48309
 Alpha  occ. eigenvalues --   -0.47980  -0.47546  -0.47422  -0.46761  -0.46680
 Alpha  occ. eigenvalues --   -0.46299  -0.45750  -0.45728  -0.45222  -0.44875
 Alpha  occ. eigenvalues --   -0.44607  -0.44224  -0.44015  -0.43751  -0.43568
 Alpha  occ. eigenvalues --   -0.43335  -0.43162  -0.42604  -0.42372  -0.42135
 Alpha  occ. eigenvalues --   -0.41946  -0.41790  -0.41588  -0.41270  -0.40960
 Alpha  occ. eigenvalues --   -0.40488  -0.40092  -0.39742  -0.39661  -0.39380
 Alpha  occ. eigenvalues --   -0.39121  -0.38898  -0.38583  -0.37991  -0.37893
 Alpha  occ. eigenvalues --   -0.37763  -0.37240  -0.36476  -0.35919  -0.35090
 Alpha  occ. eigenvalues --   -0.35071  -0.34461  -0.34059  -0.33028  -0.32436
 Alpha  occ. eigenvalues --   -0.30849  -0.30017  -0.28123  -0.26052  -0.22509
 Alpha  occ. eigenvalues --   -0.18924
 Alpha virt. eigenvalues --   -0.06119  -0.01879   0.02257   0.05662   0.08134
 Alpha virt. eigenvalues --    0.09702   0.10190   0.10912   0.11171   0.11348
 Alpha virt. eigenvalues --    0.11974   0.12158   0.12499   0.12721   0.13188

 Mulliken charges:
               1
     1  O   -0.546500
     2  O   -0.536920
     3  C   -0.005467
     4  C   -0.019050
     5  C   -0.158326
     6  C   -0.180837
     7  C    0.158532
     8  C    0.152684
     9  C    0.073958
    10  C    0.097730
    11  C   -0.239529
    12  C   -0.182652
    13  C    0.057467
    14  C   -0.027586
    15  C   -0.304142
    16  C   -0.310487
    17  C   -0.272743
    18  C   -0.300262
    19  C   -0.116005
    20  C   -0.151934
    21  C   -0.362934
    22  C   -0.335748
    23  C   -0.123759
    24  C   -0.074398
    25  C    0.094082
    26  C    0.062068
    27  C   -0.370534
    28  C   -0.301224
    29  C   -0.124318
    30  C   -0.118513
    31  C   -0.081688
    32  C   -0.094416
    33  C   -0.101288
    34  C   -0.113030
    35  C    0.117696
    36  C    0.080139
    37  C   -0.368318
    38  C   -0.348316
    39  C   -0.140248
    40  C   -0.131133
    41  C   -0.075396
    42  C   -0.081668
    43  H    0.115403
    44  H    0.028743
    45  H    0.061445
    46  H    0.060372
    47  H    0.062462
    48  H    0.060018
    49  H    0.120700
    50  H    0.115460
    51  H    0.133990
    52  H    0.117941
    53  H    0.094354
    54  H    0.114479
    55  H    0.093037
    56  H    0.112550
    57  H    0.088752
    58  H    0.115712
    59  H    0.075655
    60  H    0.076727
    61  H    0.110944
    62  H    0.068559
    63  H    0.104269
    64  H    0.110849
    65  H    0.046673
    66  H    0.090233
    67  H    0.140652
    68  H    0.128500
    69  H    0.083040
    70  H    0.094752
    71  H    0.136874
    72  H    0.108210
    73  H    0.306637
    74  H    0.308203
    75  H    0.087539
    76  H    0.084944
    77  H    0.099094
    78  H    0.123636
    79  H    0.138084
    80  H    0.095062
    81  H    0.127408
    82  H    0.083703
    83  H    0.083363
    84  H    0.072834
    85  H    0.056419
    86  H    0.086370
    87  H    0.074998
    88  H    0.071935
    89  H    0.086941
    90  H    0.112514
    91  H    0.141417
    92  H    0.130844
    93  H    0.128407
    94  H    0.110924
    95  H    0.070293
    96  H    0.083868
    97  H    0.079623
    98  H    0.088601
 Sum of Mulliken charges =  -0.00000

 Dipole moment (field-independent basis, Debye):
    X=              0.8056    Y=             -1.1920    Z=              1.8920  Tot=              2.3769
 Quadrupole moment (field-independent basis, Debye-Ang):
   XX=           -294.0253   YY=           -242.3035   ZZ=           -261.2453
   XY=              6.4060   XZ=             -7.3078   YZ=              2.9214

 Normal termination of Gaussian 16 at Tue Jul  9 21:42:06 2019.
