 Gaussian 16, Revision A.03,
 Gaussian 16:  ES64L-G16RevA.03 25-Dec-2016

 -------------------------------------
 # td=(NStates=1) CAM-B3LYP/6-31G(d,p)
 -------------------------------------

 --
 TD
 --
 Symbolic Z-matrix:
 Charge =  0 Multiplicity = 1

                         Standard orientation:
 ---------------------------------------------------------------------
 Center     Atomic      Atomic             Coordinates (Angstroms)
 Number     Number       Type             X           Y           Z
 ---------------------------------------------------------------------
      1          8           0       14.691355   -2.332017   -0.547425
      2          8           0      -15.036414    1.601545    0.491546
      3          6           0       11.297537   -1.370539    0.909903
      4          6           0      -12.403725   -1.088090    0.513364
      5          6           0       12.784247   -1.741330    0.973050
      6          6           0      -13.744431   -0.316030    0.569319
      7          6           0       13.312355   -1.979440   -0.496790
      8          6           0      -13.729063    1.189045    0.667768
      9          6           0       10.941295   -0.291305   -0.140274
     10          6           0      -11.348669   -0.260258   -0.286444
     11          6           0       13.266177   -0.628450   -1.243699
     12          6           0      -12.770807    1.723060   -0.531488
     13          6           0       11.827387    0.084040   -1.077620
     14          6           0      -11.562649    0.946498   -0.674956
     15          6           0       10.887014   -0.956497    2.312546
     16          6           0       10.488493   -2.658180    0.589675
     17          6           0      -11.880409   -1.169644    1.940054
     18          6           0      -12.632626   -2.499317   -0.073348
     19          6           0        9.716628    0.370653    0.086926
     20          6           0      -10.025481   -0.873503   -0.296880
     21          6           0       11.620596    1.197575   -2.076672
     22          6           0      -10.570670    1.716286   -1.525889
     23          6           0        9.378578    1.685900   -0.023881
     24          6           0       -8.774803   -0.353411   -0.435028
     25          6           0        8.074626    2.163119    0.099916
     26          6           0       -7.556084   -1.228594   -0.474534
     27          6           0        8.083085    3.605952    0.447116
     28          6           0       -7.651470   -2.691685   -0.748759
     29          6           0        6.845913    1.436559    0.123424
     30          6           0       -6.347442   -0.499082   -0.201787
     31          6           0        5.667880    1.984839    0.435727
     32          6           0       -5.062304   -0.962674   -0.383502
     33          6           0        4.465473    1.217375    0.279384
     34          6           0       -3.943171   -0.181233   -0.223260
     35          6           0        3.177662    1.630827    0.435299
     36          6           0       -2.570802   -0.577906   -0.292479
     37          6           0        2.935957    3.037379    0.788992
     38          6           0       -2.292227   -2.080652   -0.639591
     39          6           0        2.034587    0.826926    0.091412
     40          6           0       -1.555913    0.365333   -0.049420
     41          6           0        0.669599    1.053048    0.335631
     42          6           0       -0.265722    0.133500   -0.052038
     43          1           0       13.473486   -0.870483    1.442330
     44          1           0       12.809452   -2.814291    1.479202
     45          1           0      -14.569305   -0.499162    1.403839
     46          1           0      -14.286139   -0.650709   -0.446332
     47          1           0       12.774782   -2.660613   -1.017927
     48          1           0      -13.381893    1.323944    1.702126
     49          1           0       14.052462    0.214358   -0.901211
     50          1           0       13.407418   -0.642598   -2.169631
     51          1           0      -13.438669    1.593683   -1.471794
     52          1           0      -12.676773    2.881679   -0.535375
     53          1           0       11.100947   -1.690998    3.028194
     54          1           0        9.846293   -0.858917    2.370819
     55          1           0       11.444713   -0.153386    2.593986
     56          1           0       10.753037   -2.817583   -0.550961
     57          1           0       10.913619   -3.558875    1.133425
     58          1           0        9.494418   -2.441191    0.676529
     59          1           0      -11.814775   -0.239188    2.512307
     60          1           0      -10.967673   -1.388704    1.968502
     61          1           0      -12.396397   -2.116174    2.494032
     62          1           0      -13.504866   -3.116670    0.294680
     63          1           0      -11.764416   -3.304084    0.111327
     64          1           0      -12.362395   -2.330457   -1.276739
     65          1           0        8.856835   -0.220667    0.432223
     66          1           0      -10.169983   -1.918180   -0.811177
     67          1           0       10.599723    1.434224   -2.349233
     68          1           0       12.149383    1.955046   -1.805762
     69          1           0       12.184730    0.900565   -2.950104
     70          1           0      -11.167431    2.118257   -2.208586
     71          1           0       -9.822838    1.112358   -2.272493
     72          1           0      -10.030547    2.619945   -0.922796
     73          1           0       15.077742   -3.039386    0.148472
     74          1           0      -15.550833    1.435450    1.178463
     75          1           0       10.121956    2.434535   -0.318203
     76          1           0       -8.389518    0.742682   -0.117761
     77          1           0        8.987382    4.089382    0.529481
     78          1           0        7.380741    4.185034   -0.162101
     79          1           0        7.649226    3.964835    1.355586
     80          1           0       -8.304275   -3.016569   -0.218958
     81          1           0       -8.141664   -2.869751   -1.816257
     82          1           0       -6.563671   -3.221016   -0.463433
     83          1           0        6.808050    0.428521   -0.230632
     84          1           0       -6.365406    0.631576   -0.043226
     85          1           0        5.698395    2.976191    0.824862
     86          1           0       -4.918552   -1.892570   -0.971054
     87          1           0        4.610551    0.147661    0.007651
     88          1           0       -4.109908    0.723894    0.462919
     89          1           0        3.566574    3.045515    1.596145
     90          1           0        1.862697    3.100984    0.843284
     91          1           0        3.241450    3.706215    0.060231
     92          1           0       -2.571856   -2.754566    0.064244
     93          1           0       -2.991407   -2.501170   -1.448426
     94          1           0       -1.223324   -2.415598   -0.862956
     95          1           0        2.234458   -0.269893   -0.238234
     96          1           0       -2.120735    1.401858    0.326420
     97          1           0        0.311922    2.028849    0.663925
     98          1           0        0.233554   -0.840589   -0.583802
 ---------------------------------------------------------------------

 SCF Done:  E(RCAM-B3LYP) =  -1706.84833006     A.U. after   17 cycles

 Excitation energies and oscillator strengths:

 Excited State   1:      Singlet-A      1.7833 eV  695.25 nm  f=3.7739  <S**2>=0.000
     155 ->158        -0.13338
     156 ->157         0.70254
     156 <-157        -0.12772
 This state for optimization and/or second-order correction.
 Total Energy, E(TD-HF/TD-DFT) =  -1706.78279521
 Copying the excited state density for this state as the 1-particle RhoCI density.

 The electronic state is 1-A.
 Alpha  occ. eigenvalues --  -19.20882 -19.20476 -10.30815 -10.30234 -10.28308
 Alpha  occ. eigenvalues --  -10.28001 -10.27678 -10.27623 -10.27541 -10.27314
 Alpha  occ. eigenvalues --  -10.27211 -10.27055 -10.26852 -10.26810 -10.26743
 Alpha  occ. eigenvalues --  -10.26705 -10.26633 -10.26457 -10.26420 -10.26400
 Alpha  occ. eigenvalues --  -10.26345 -10.26239 -10.26136 -10.25930 -10.25872
 Alpha  occ. eigenvalues --  -10.25863 -10.25824 -10.25791 -10.25638 -10.25624
 Alpha  occ. eigenvalues --  -10.25506 -10.25408 -10.25374 -10.25312 -10.25089
 Alpha  occ. eigenvalues --  -10.25058 -10.25046 -10.24007 -10.23671 -10.23217
 Alpha  occ. eigenvalues --  -10.23077 -10.22157  -1.12483  -1.06806  -0.93953
 Alpha  occ. eigenvalues --   -0.93727  -0.92507  -0.91693  -0.90794  -0.89932
 Alpha  occ. eigenvalues --   -0.87756  -0.87380  -0.87231  -0.85816  -0.84609
 Alpha  occ. eigenvalues --   -0.83490  -0.82696  -0.80708  -0.79965  -0.78914
 Alpha  occ. eigenvalues --   -0.77583  -0.76941  -0.76698  -0.76597  -0.76105
 Alpha  occ. eigenvalues --   -0.75745  -0.75337  -0.74114  -0.73062  -0.71046
 Alpha  occ. eigenvalues --   -0.69542  -0.67981  -0.66847  -0.65735  -0.64382
 Alpha  occ. eigenvalues --   -0.63635  -0.62554  -0.61205  -0.60688  -0.60293
 Alpha  occ. eigenvalues --   -0.59801  -0.59323  -0.58018  -0.57141  -0.56067
 Alpha  occ. eigenvalues --   -0.55806  -0.55230  -0.54689  -0.54507  -0.53819
 Alpha  occ. eigenvalues --   -0.53181  -0.52778  -0.51763  -0.51330  -0.51082
 Alpha  occ. eigenvalues --   -0.50394  -0.50116  -0.49955  -0.49521  -0.49414
 Alpha  occ. eigenvalues --   -0.49207  -0.48681  -0.48414  -0.48288  -0.48179
 Alpha  occ. eigenvalues --   -0.47987  -0.47060  -0.46780  -0.46328  -0.46165
 Alpha  occ. eigenvalues --   -0.46085  -0.46017  -0.45669  -0.45021  -0.44872
 Alpha  occ. eigenvalues --   -0.44611  -0.44058  -0.43821  -0.43553  -0.43440
 Alpha  occ. eigenvalues --   -0.42938  -0.42799  -0.42728  -0.42469  -0.42243
 Alpha  occ. eigenvalues --   -0.42061  -0.41760  -0.41336  -0.41217  -0.40921
 Alpha  occ. eigenvalues --   -0.40615  -0.40505  -0.39660  -0.39458  -0.39346
 Alpha  occ. eigenvalues --   -0.39160  -0.38524  -0.38098  -0.38034  -0.37835
 Alpha  occ. eigenvalues --   -0.37458  -0.37369  -0.37080  -0.35691  -0.35201
 Alpha  occ. eigenvalues --   -0.34829  -0.34599  -0.34164  -0.32561  -0.31830
 Alpha  occ. eigenvalues --   -0.31522  -0.29917  -0.28698  -0.26507  -0.23067
 Alpha  occ. eigenvalues --   -0.17767
 Alpha virt. eigenvalues --   -0.07030  -0.01655   0.02434   0.05725   0.08061
 Alpha virt. eigenvalues --    0.10479   0.10648   0.10850   0.11473   0.11609
 Alpha virt. eigenvalues --    0.12202   0.12648   0.12747   0.13389   0.13835

 Mulliken charges:
               1
     1  O   -0.596396
     2  O   -0.523429
     3  C   -0.039639
     4  C    0.029306
     5  C   -0.193330
     6  C   -0.169346
     7  C    0.208178
     8  C    0.164670
     9  C    0.109172
    10  C    0.030981
    11  C   -0.183164
    12  C   -0.257484
    13  C   -0.014409
    14  C    0.085682
    15  C   -0.283156
    16  C   -0.290456
    17  C   -0.279205
    18  C   -0.321721
    19  C   -0.133524
    20  C   -0.122119
    21  C   -0.361129
    22  C   -0.346174
    23  C   -0.113496
    24  C   -0.089025
    25  C    0.093982
    26  C    0.088178
    27  C   -0.402610
    28  C   -0.340878
    29  C   -0.107669
    30  C   -0.137771
    31  C   -0.071976
    32  C   -0.071504
    33  C   -0.126627
    34  C   -0.146597
    35  C    0.075502
    36  C    0.116528
    37  C   -0.342596
    38  C   -0.382286
    39  C   -0.141616
    40  C   -0.117303
    41  C   -0.069446
    42  C   -0.081849
    43  H    0.091336
    44  H    0.069580
    45  H    0.049176
    46  H    0.077928
    47  H    0.094278
    48  H    0.082057
    49  H    0.095173
    50  H    0.111728
    51  H    0.122113
    52  H    0.103892
    53  H    0.096460
    54  H    0.099997
    55  H    0.106735
    56  H    0.084163
    57  H    0.095871
    58  H    0.111274
    59  H    0.092423
    60  H    0.118331
    61  H    0.068072
    62  H    0.118525
    63  H    0.084095
    64  H    0.087523
    65  H    0.082169
    66  H    0.068740
    67  H    0.129839
    68  H    0.134418
    69  H    0.098416
    70  H    0.119382
    71  H    0.099048
    72  H    0.092350
    73  H    0.305045
    74  H    0.289775
    75  H    0.089466
    76  H    0.088270
    77  H    0.114379
    78  H    0.115183
    79  H    0.123740
    80  H    0.143199
    81  H    0.108210
    82  H    0.094694
    83  H    0.079779
    84  H    0.085661
    85  H    0.084347
    86  H    0.082757
    87  H    0.075273
    88  H    0.076109
    89  H    0.124361
    90  H    0.097898
    91  H    0.129165
    92  H    0.139146
    93  H    0.104167
    94  H    0.102468
    95  H    0.065611
    96  H    0.073567
    97  H    0.092093
    98  H    0.086301
 Sum of Mulliken charges =  -0.00000

 Dipole moment (field-independent basis, Debye):
    X=              1.0963    Y=             -0.8026    Z=              1.6263  Tot=              2.1192
 Quadrupole moment (field-independent basis, Debye-Ang):
   XX=           -251.2145   YY=           -241.9315   ZZ=           -262.5036
   XY=              6.2001   XZ=             -2.8567   YZ=              1.0706

 Normal termination of Gaussian 16 at Sat Jul 13 19:14:49 2019.
