 Gaussian 16, Revision A.03,
 Gaussian 16:  ES64L-G16RevA.03 25-Dec-2016

 -------------------------------------
 # td=(NStates=1) CAM-B3LYP/6-31G(d,p)
 -------------------------------------

 --
 TD
 --
 Symbolic Z-matrix:
 Charge =  0 Multiplicity = 1

                         Standard orientation:
 ---------------------------------------------------------------------
 Center     Atomic      Atomic             Coordinates (Angstroms)
 Number     Number       Type             X           Y           Z
 ---------------------------------------------------------------------
      1          8           0       14.563752   -2.405475   -0.325339
      2          8           0      -14.696304    1.783818    1.022490
      3          6           0       11.151281   -1.450076    0.984484
      4          6           0      -12.244683   -0.934315    0.693543
      5          6           0       12.653345   -1.860111    0.984430
      6          6           0      -13.510893   -0.267094    0.796792
      7          6           0       13.186691   -2.030897   -0.347832
      8          6           0      -13.384775    1.216370    0.903724
      9          6           0       10.855408   -0.225620   -0.015166
     10          6           0      -11.262513   -0.218758   -0.270244
     11          6           0       13.207269   -0.563462   -0.985405
     12          6           0      -12.738094    1.762773   -0.365094
     13          6           0       11.835378    0.071822   -0.909725
     14          6           0      -11.501824    0.953277   -0.756015
     15          6           0       10.731048   -1.012102    2.405253
     16          6           0       10.233379   -2.710753    0.507347
     17          6           0      -11.553281   -1.150475    2.056730
     18          6           0      -12.460848   -2.382134    0.099321
     19          6           0        9.578278    0.432743    0.124264
     20          6           0       -9.989571   -1.018321   -0.593271
     21          6           0       11.540594    1.095782   -1.962634
     22          6           0      -10.611182    1.695971   -1.771471
     23          6           0        9.276837    1.716768    0.249642
     24          6           0       -8.788411   -0.564599   -0.403607
     25          6           0        8.045161    2.341229    0.184937
     26          6           0       -7.566314   -1.264621   -0.520239
     27          6           0        7.944503    3.816613    0.551779
     28          6           0       -7.539112   -2.781289   -0.893385
     29          6           0        6.842339    1.627767   -0.027708
     30          6           0       -6.365955   -0.564908   -0.527782
     31          6           0        5.546566    2.185581    0.115338
     32          6           0       -5.062291   -1.075067   -0.595224
     33          6           0        4.461568    1.373771   -0.071605
     34          6           0       -3.957201   -0.290996   -0.333053
     35          6           0        3.111275    1.716710    0.178140
     36          6           0       -2.587871   -0.708174   -0.406142
     37          6           0        2.839105    3.119653    0.578307
     38          6           0       -2.206590   -2.165255   -0.709482
     39          6           0        1.995421    0.826832    0.017682
     40          6           0       -1.613744    0.227430   -0.253181
     41          6           0        0.720494    1.062899   -0.011059
     42          6           0       -0.221908   -0.037080   -0.182689
     43          1           0       13.218521   -1.081116    1.513316
     44          1           0       12.649204   -3.049361    1.446750
     45          1           0      -13.923054   -0.930574    1.657177
     46          1           0      -14.001841   -0.557600   -0.044237
     47          1           0       12.506739   -2.661665   -0.981355
     48          1           0      -12.713677    1.636026    1.700908
     49          1           0       14.013701   -0.183642   -0.274986
     50          1           0       13.347296   -0.728543   -1.913589
     51          1           0      -13.505297    1.675000   -1.218384
     52          1           0      -12.481098    2.844254   -0.035268
     53          1           0       10.947767   -1.760466    3.293969
     54          1           0        9.668894   -0.608264    2.452288
     55          1           0       11.246598   -0.118020    2.631511
     56          1           0       10.392488   -2.904855   -0.563104
     57          1           0       10.281086   -3.675123    1.084286
     58          1           0        9.219649   -2.293105    0.585673
     59          1           0      -11.475205   -0.074045    2.618991
     60          1           0      -10.545521   -1.701587    1.950427
     61          1           0      -12.031113   -1.794086    2.706149
     62          1           0      -13.474111   -2.783892    0.356645
     63          1           0      -11.689609   -3.229885    0.330658
     64          1           0      -12.657401   -2.593260   -1.041743
     65          1           0        8.674370   -0.129108    0.285475
     66          1           0      -10.340929   -2.028919   -0.720717
     67          1           0       10.611209    1.392201   -2.273606
     68          1           0       12.134656    2.111399   -1.831769
     69          1           0       11.977307    0.754719   -2.918009
     70          1           0      -11.080305    2.232698   -2.630653
     71          1           0       -9.910719    1.000353   -2.189739
     72          1           0       -9.892776    2.280476   -1.253717
     73          1           0       14.623350   -3.280868    0.101604
     74          1           0      -15.042371    1.639313    1.977399
     75          1           0       10.274251    2.367072    0.133816
     76          1           0       -8.620157    0.481146   -0.113755
     77          1           0        8.859760    4.202529    0.704219
     78          1           0        7.718618    4.336075   -0.374883
     79          1           0        7.401464    4.031161    1.501628
     80          1           0       -7.826290   -3.423148   -0.050473
     81          1           0       -8.324487   -3.091227   -1.655283
     82          1           0       -6.548991   -3.233194   -1.244794
     83          1           0        6.939864    0.583531   -0.239576
     84          1           0       -6.324078    0.587801   -0.386150
     85          1           0        5.484178    3.203830    0.625516
     86          1           0       -4.855207   -2.047729   -0.782854
     87          1           0        4.565253    0.291326   -0.529266
     88          1           0       -4.290736    0.709983   -0.072052
     89          1           0        3.536922    3.440683    1.430968
     90          1           0        1.708057    3.024258    1.164553
     91          1           0        2.855843    3.672535   -0.469940
     92          1           0       -2.903760   -2.748324    0.051901
     93          1           0       -2.451711   -2.467721   -1.949472
     94          1           0       -1.152964   -2.422001   -0.482763
     95          1           0        2.175656   -0.133807   -0.444840
     96          1           0       -2.126859    1.339350   -0.186120
     97          1           0        0.326421    2.059570    0.122067
     98          1           0        0.358293   -0.996210   -0.250196
 ---------------------------------------------------------------------

 SCF Done:  E(RCAM-B3LYP) =  -1706.99305105     A.U. after   15 cycles

 Excitation energies and oscillator strengths:

 Excited State   1:      Singlet-A      1.9807 eV  625.97 nm  f=3.5837  <S**2>=0.000
     155 ->158        -0.13223
     156 ->157         0.69891
     156 <-157        -0.10957
 This state for optimization and/or second-order correction.
 Total Energy, E(TD-HF/TD-DFT) =  -1706.92026212
 Copying the excited state density for this state as the 1-particle RhoCI density.

 The electronic state is 1-A.
 Alpha  occ. eigenvalues --  -19.21643 -19.21009 -10.30361 -10.30209 -10.28681
 Alpha  occ. eigenvalues --  -10.28358 -10.28115 -10.27843 -10.27585 -10.27513
 Alpha  occ. eigenvalues --  -10.27468 -10.27419 -10.27376 -10.27131 -10.27091
 Alpha  occ. eigenvalues --  -10.27045 -10.26972 -10.26742 -10.26563 -10.26534
 Alpha  occ. eigenvalues --  -10.26468 -10.26345 -10.26188 -10.25966 -10.25938
 Alpha  occ. eigenvalues --  -10.25920 -10.25895 -10.25429 -10.25425 -10.25398
 Alpha  occ. eigenvalues --  -10.25376 -10.25284 -10.25173 -10.25160 -10.25030
 Alpha  occ. eigenvalues --  -10.24905 -10.24790 -10.24783 -10.24657 -10.24621
 Alpha  occ. eigenvalues --  -10.23937 -10.23907  -1.09491  -1.07671  -0.94297
 Alpha  occ. eigenvalues --   -0.93285  -0.92459  -0.91755  -0.91022  -0.90126
 Alpha  occ. eigenvalues --   -0.87991  -0.87002  -0.86173  -0.85864  -0.85083
 Alpha  occ. eigenvalues --   -0.83258  -0.82185  -0.80745  -0.79596  -0.77631
 Alpha  occ. eigenvalues --   -0.76277  -0.76225  -0.75816  -0.75748  -0.75489
 Alpha  occ. eigenvalues --   -0.75294  -0.74956  -0.74739  -0.73079  -0.70972
 Alpha  occ. eigenvalues --   -0.69182  -0.67428  -0.65714  -0.65083  -0.64110
 Alpha  occ. eigenvalues --   -0.63104  -0.62451  -0.62270  -0.61279  -0.60066
 Alpha  occ. eigenvalues --   -0.59789  -0.59239  -0.58322  -0.57342  -0.55892
 Alpha  occ. eigenvalues --   -0.55504  -0.55258  -0.54579  -0.54548  -0.53272
 Alpha  occ. eigenvalues --   -0.52800  -0.52501  -0.51972  -0.51843  -0.50506
 Alpha  occ. eigenvalues --   -0.50384  -0.50041  -0.49899  -0.49798  -0.49016
 Alpha  occ. eigenvalues --   -0.48631  -0.48390  -0.48148  -0.47837  -0.47461
 Alpha  occ. eigenvalues --   -0.47091  -0.46968  -0.46426  -0.46236  -0.45865
 Alpha  occ. eigenvalues --   -0.45546  -0.45444  -0.44907  -0.44652  -0.44639
 Alpha  occ. eigenvalues --   -0.44265  -0.44166  -0.43756  -0.43480  -0.43296
 Alpha  occ. eigenvalues --   -0.43015  -0.42626  -0.42513  -0.42247  -0.41913
 Alpha  occ. eigenvalues --   -0.41830  -0.41478  -0.41428  -0.41116  -0.40596
 Alpha  occ. eigenvalues --   -0.40292  -0.40073  -0.39759  -0.39736  -0.39225
 Alpha  occ. eigenvalues --   -0.38994  -0.38803  -0.38603  -0.38107  -0.37980
 Alpha  occ. eigenvalues --   -0.37836  -0.37600  -0.37032  -0.36282  -0.36101
 Alpha  occ. eigenvalues --   -0.35531  -0.34047  -0.33854  -0.33156  -0.32706
 Alpha  occ. eigenvalues --   -0.32203  -0.29787  -0.28965  -0.26426  -0.23811
 Alpha  occ. eigenvalues --   -0.18794
 Alpha virt. eigenvalues --   -0.06767  -0.00958   0.02196   0.06425   0.08403
 Alpha virt. eigenvalues --    0.10188   0.11421   0.11556   0.11826   0.12098
 Alpha virt. eigenvalues --    0.12482   0.12647   0.12958   0.13543   0.13747

 Mulliken charges:
               1
     1  O   -0.558534
     2  O   -0.572163
     3  C   -0.008892
     4  C    0.000320
     5  C   -0.148586
     6  C   -0.169469
     7  C    0.145221
     8  C    0.158170
     9  C    0.056839
    10  C    0.068922
    11  C   -0.193327
    12  C   -0.220949
    13  C    0.036234
    14  C    0.030726
    15  C   -0.306444
    16  C   -0.314631
    17  C   -0.288992
    18  C   -0.348306
    19  C   -0.120344
    20  C   -0.136430
    21  C   -0.367595
    22  C   -0.373238
    23  C   -0.093533
    24  C   -0.063328
    25  C    0.063796
    26  C    0.114285
    27  C   -0.370970
    28  C   -0.382599
    29  C   -0.108364
    30  C   -0.146259
    31  C   -0.092266
    32  C   -0.046368
    33  C   -0.096925
    34  C   -0.123989
    35  C    0.075801
    36  C    0.115981
    37  C   -0.353721
    38  C   -0.343481
    39  C   -0.113633
    40  C   -0.117993
    41  C   -0.055085
    42  C   -0.126704
    43  H    0.101852
    44  H    0.042454
    45  H    0.077467
    46  H    0.114080
    47  H    0.080489
    48  H    0.079864
    49  H    0.129208
    50  H    0.110099
    51  H    0.113349
    52  H    0.102265
    53  H    0.086811
    54  H    0.098574
    55  H    0.110584
    56  H    0.102425
    57  H    0.100299
    58  H    0.102090
    59  H    0.076885
    60  H    0.100023
    61  H    0.109747
    62  H    0.096057
    63  H    0.099792
    64  H    0.097370
    65  H    0.080219
    66  H    0.086665
    67  H    0.132226
    68  H    0.093612
    69  H    0.096474
    70  H    0.107967
    71  H    0.118806
    72  H    0.117174
    73  H    0.303521
    74  H    0.307219
    75  H    0.067427
    76  H    0.087993
    77  H    0.115346
    78  H    0.127012
    79  H    0.122615
    80  H    0.117894
    81  H    0.114718
    82  H    0.111208
    83  H    0.081931
    84  H    0.072074
    85  H    0.099368
    86  H    0.069450
    87  H    0.078159
    88  H    0.075868
    89  H    0.116670
    90  H    0.079686
    91  H    0.128794
    92  H    0.106409
    93  H    0.092985
    94  H    0.118028
    95  H    0.071047
    96  H    0.083080
    97  H    0.086333
    98  H    0.097058
 Sum of Mulliken charges =  -0.00000

 Dipole moment (field-independent basis, Debye):
    X=              0.1418    Y=             -1.5545    Z=              1.3934  Tot=              2.0924
 Quadrupole moment (field-independent basis, Debye-Ang):
   XX=           -292.8751   YY=           -242.6258   ZZ=           -260.1041
   XY=             11.8899   XZ=            -11.9171   YZ=              2.8890

 Normal termination of Gaussian 16 at Wed Jul 10 04:29:55 2019.
