 Gaussian 16, Revision A.03,
 Gaussian 16:  ES64L-G16RevA.03 25-Dec-2016

 -------------------------------------
 # td=(NStates=1) CAM-B3LYP/6-31G(d,p)
 -------------------------------------

 --
 TD
 --
 Symbolic Z-matrix:
 Charge =  0 Multiplicity = 1

                         Standard orientation:
 ---------------------------------------------------------------------
 Center     Atomic      Atomic             Coordinates (Angstroms)
 Number     Number       Type             X           Y           Z
 ---------------------------------------------------------------------
      1          8           0       14.624687   -2.334075   -0.297777
      2          8           0      -14.834588    1.933753    0.841224
      3          6           0       11.248335   -1.504198    0.950459
      4          6           0      -12.368208   -1.018229    0.693003
      5          6           0       12.728191   -1.768377    0.994859
      6          6           0      -13.703083   -0.302549    0.649617
      7          6           0       13.278480   -1.885694   -0.351672
      8          6           0      -13.591331    1.211686    0.877192
      9          6           0       10.974752   -0.235311    0.069107
     10          6           0      -11.313381   -0.264764   -0.124757
     11          6           0       13.247279   -0.539868   -1.024623
     12          6           0      -12.688680    1.785408   -0.243217
     13          6           0       11.947264    0.201558   -0.822331
     14          6           0      -11.478775    1.023199   -0.589240
     15          6           0       10.691756   -1.156608    2.418794
     16          6           0       10.236993   -2.682865    0.510503
     17          6           0      -11.890993   -1.174378    2.066110
     18          6           0      -12.555118   -2.378687    0.015524
     19          6           0        9.729684    0.352502    0.149440
     20          6           0       -9.984699   -0.989123   -0.317535
     21          6           0       11.863432    1.398872   -1.703244
     22          6           0      -10.561223    1.854759   -1.462005
     23          6           0        9.301737    1.720839    0.168961
     24          6           0       -8.726320   -0.510291   -0.304140
     25          6           0        8.047243    2.222255    0.248503
     26          6           0       -7.516782   -1.341018   -0.456372
     27          6           0        7.935988    3.707224    0.555173
     28          6           0       -7.584359   -2.756653   -0.764583
     29          6           0        6.866782    1.582762    0.157694
     30          6           0       -6.343474   -0.536343   -0.392766
     31          6           0        5.504554    2.060290    0.219070
     32          6           0       -4.980937   -1.052375   -0.620194
     33          6           0        4.479785    1.207443   -0.014089
     34          6           0       -3.917783   -0.392777   -0.536540
     35          6           0        3.071486    1.638140    0.128610
     36          6           0       -2.552099   -0.752258   -0.654099
     37          6           0        2.779492    2.959376    0.567923
     38          6           0       -2.330219   -2.157299   -1.076386
     39          6           0        2.179582    0.770078   -0.139220
     40          6           0       -1.553946    0.229517   -0.368852
     41          6           0        0.755703    0.947936   -0.151051
     42          6           0       -0.228123   -0.015466   -0.398299
     43          1           0       13.180564   -1.008646    1.563289
     44          1           0       12.887393   -2.692689    1.736709
     45          1           0      -14.368374   -0.937143    1.341944
     46          1           0      -14.179805   -0.512071   -0.401377
     47          1           0       12.841296   -2.591236   -1.135486
     48          1           0      -13.076039    1.429465    1.794946
     49          1           0       14.052191    0.034871   -0.608273
     50          1           0       13.578575   -0.647834   -2.054561
     51          1           0      -13.304293    2.025015   -1.217912
     52          1           0      -12.411643    2.748152   -0.166904
     53          1           0       10.825241   -1.887618    3.050811
     54          1           0        9.561479   -0.839954    2.394555
     55          1           0       11.240629   -0.235160    2.670456
     56          1           0       10.410999   -2.895625   -0.493231
     57          1           0       10.641419   -3.505753    1.096100
     58          1           0        9.213245   -2.103422    0.738045
     59          1           0      -11.802601   -0.241476    2.740664
     60          1           0      -10.837322   -1.657444    1.908794
     61          1           0      -12.714711   -2.009439    2.525734
     62          1           0      -13.563482   -2.691518    0.418656
     63          1           0      -11.732845   -3.090687    0.422473
     64          1           0      -12.705745   -2.419630   -1.043531
     65          1           0        8.784617   -0.322423    0.423541
     66          1           0      -10.215666   -2.107859   -0.571838
     67          1           0       10.709240    1.417461   -2.003426
     68          1           0       12.102635    2.260333   -1.298823
     69          1           0       12.469295    1.380074   -2.679112
     70          1           0      -11.067268    2.288714   -2.372569
     71          1           0       -9.645768    1.193676   -1.698705
     72          1           0      -10.100279    2.557455   -0.721926
     73          1           0       14.545337   -3.342104   -0.297043
     74          1           0      -15.857574    1.302177    1.112829
     75          1           0        9.873164    2.605690    0.073854
     76          1           0       -8.456568    0.579595    0.052601
     77          1           0        8.820751    4.195252    0.517375
     78          1           0        7.229733    4.241916   -0.020024
     79          1           0        7.454499    3.770029    1.521483
     80          1           0       -8.339484   -3.362714   -0.109843
     81          1           0       -7.973840   -2.644071   -1.924247
     82          1           0       -6.630428   -3.199168   -0.985211
     83          1           0        7.134967    0.457056   -0.437876
     84          1           0       -6.491134    0.587556   -0.225315
     85          1           0        5.448733    2.946650    0.764489
     86          1           0       -4.786898   -1.940589   -1.039847
     87          1           0        4.667042    0.231691   -0.551698
     88          1           0       -4.047177    0.683648   -0.126295
     89          1           0        3.277029    3.198484    1.456048
     90          1           0        1.808234    3.003895    0.842289
     91          1           0        2.971420    3.762347   -0.069515
     92          1           0       -2.335406   -2.821904    0.024706
     93          1           0       -2.895869   -2.339795   -1.997994
     94          1           0       -1.398406   -2.183729   -1.397751
     95          1           0        2.529789   -0.192477   -0.754657
     96          1           0       -2.032594    1.091558   -0.047253
     97          1           0        0.400150    1.922272    0.077909
     98          1           0       -0.003158   -1.040560   -0.717585
 ---------------------------------------------------------------------

 SCF Done:  E(RCAM-B3LYP) =  -1706.90511624     A.U. after   14 cycles

 Excitation energies and oscillator strengths:

 Excited State   1:      Singlet-A      2.4450 eV  507.09 nm  f=3.5789  <S**2>=0.000
     155 ->158         0.20183
     156 ->157         0.67153
 This state for optimization and/or second-order correction.
 Total Energy, E(TD-HF/TD-DFT) =  -1706.81526418
 Copying the excited state density for this state as the 1-particle RhoCI density.

 The electronic state is 1-A.
 Alpha  occ. eigenvalues --  -19.22161 -19.20869 -10.30713 -10.30172 -10.27895
 Alpha  occ. eigenvalues --  -10.27613 -10.27402 -10.27280 -10.27221 -10.27161
 Alpha  occ. eigenvalues --  -10.27080 -10.26965 -10.26877 -10.26831 -10.26681
 Alpha  occ. eigenvalues --  -10.26548 -10.26413 -10.26261 -10.26202 -10.26185
 Alpha  occ. eigenvalues --  -10.26147 -10.26092 -10.25886 -10.25832 -10.25825
 Alpha  occ. eigenvalues --  -10.25753 -10.25697 -10.25670 -10.25522 -10.25373
 Alpha  occ. eigenvalues --  -10.25279 -10.25276 -10.25159 -10.25069 -10.24885
 Alpha  occ. eigenvalues --  -10.24598 -10.24492 -10.24302 -10.24029 -10.23760
 Alpha  occ. eigenvalues --  -10.23492 -10.23063  -1.08884  -1.04961  -0.93850
 Alpha  occ. eigenvalues --   -0.93621  -0.93248  -0.92607  -0.91326  -0.90330
 Alpha  occ. eigenvalues --   -0.87965  -0.87642  -0.86661  -0.85870  -0.84582
 Alpha  occ. eigenvalues --   -0.83623  -0.82516  -0.80037  -0.79756  -0.79464
 Alpha  occ. eigenvalues --   -0.76906  -0.76842  -0.76470  -0.76314  -0.75914
 Alpha  occ. eigenvalues --   -0.75200  -0.75165  -0.74935  -0.73860  -0.70860
 Alpha  occ. eigenvalues --   -0.69612  -0.67533  -0.65602  -0.65102  -0.63806
 Alpha  occ. eigenvalues --   -0.63209  -0.62665  -0.61498  -0.60453  -0.60001
 Alpha  occ. eigenvalues --   -0.59234  -0.58397  -0.57382  -0.56406  -0.55896
 Alpha  occ. eigenvalues --   -0.55746  -0.55323  -0.54901  -0.53887  -0.53586
 Alpha  occ. eigenvalues --   -0.53345  -0.52873  -0.52056  -0.51579  -0.51066
 Alpha  occ. eigenvalues --   -0.50647  -0.50204  -0.50160  -0.49745  -0.49453
 Alpha  occ. eigenvalues --   -0.49360  -0.48953  -0.48900  -0.48727  -0.48292
 Alpha  occ. eigenvalues --   -0.47845  -0.47517  -0.47397  -0.47053  -0.46478
 Alpha  occ. eigenvalues --   -0.46013  -0.45842  -0.45392  -0.45211  -0.45142
 Alpha  occ. eigenvalues --   -0.44683  -0.44454  -0.44220  -0.43834  -0.43471
 Alpha  occ. eigenvalues --   -0.43080  -0.42902  -0.42861  -0.42167  -0.42075
 Alpha  occ. eigenvalues --   -0.41946  -0.41749  -0.41466  -0.41213  -0.41002
 Alpha  occ. eigenvalues --   -0.40447  -0.40324  -0.40166  -0.39536  -0.38672
 Alpha  occ. eigenvalues --   -0.38625  -0.38084  -0.37922  -0.37782  -0.37435
 Alpha  occ. eigenvalues --   -0.37346  -0.37267  -0.36282  -0.35846  -0.35505
 Alpha  occ. eigenvalues --   -0.35361  -0.34660  -0.34137  -0.32242  -0.32202
 Alpha  occ. eigenvalues --   -0.31546  -0.29281  -0.28303  -0.25468  -0.22700
 Alpha  occ. eigenvalues --   -0.19934
 Alpha virt. eigenvalues --   -0.04790  -0.01382   0.02326   0.05784   0.06119
 Alpha virt. eigenvalues --    0.08053   0.09919   0.11021   0.11211   0.11850
 Alpha virt. eigenvalues --    0.12091   0.12197   0.12498   0.13027   0.13569

 Mulliken charges:
               1
     1  O   -0.570022
     2  O   -0.583772
     3  C   -0.061072
     4  C   -0.013383
     5  C   -0.171607
     6  C   -0.205330
     7  C    0.159235
     8  C    0.220049
     9  C    0.121713
    10  C    0.056408
    11  C   -0.228179
    12  C   -0.224298
    13  C    0.048729
    14  C    0.057006
    15  C   -0.292812
    16  C   -0.275681
    17  C   -0.257849
    18  C   -0.304884
    19  C   -0.176961
    20  C   -0.162136
    21  C   -0.366286
    22  C   -0.367786
    23  C   -0.069262
    24  C   -0.098726
    25  C    0.102748
    26  C    0.132196
    27  C   -0.387008
    28  C   -0.368428
    29  C   -0.147732
    30  C   -0.150056
    31  C   -0.089236
    32  C   -0.069457
    33  C   -0.101928
    34  C   -0.089065
    35  C    0.146131
    36  C    0.062804
    37  C   -0.380483
    38  C   -0.360368
    39  C   -0.126920
    40  C   -0.076316
    41  C   -0.120988
    42  C   -0.082947
    43  H    0.118226
    44  H    0.063602
    45  H    0.073661
    46  H    0.086880
    47  H    0.073758
    48  H    0.088194
    49  H    0.125259
    50  H    0.110550
    51  H    0.092771
    52  H    0.113988
    53  H    0.107158
    54  H    0.090202
    55  H    0.099413
    56  H    0.106301
    57  H    0.102082
    58  H    0.095922
    59  H    0.108660
    60  H    0.099647
    61  H    0.060216
    62  H    0.087929
    63  H    0.094252
    64  H    0.123374
    65  H    0.081114
    66  H    0.082247
    67  H    0.108490
    68  H    0.138346
    69  H    0.095194
    70  H    0.115507
    71  H    0.112806
    72  H    0.118210
    73  H    0.307310
    74  H    0.293987
    75  H    0.065773
    76  H    0.089804
    77  H    0.104886
    78  H    0.122855
    79  H    0.125963
    80  H    0.121275
    81  H    0.109226
    82  H    0.126656
    83  H    0.037602
    84  H    0.084663
    85  H    0.088134
    86  H    0.061818
    87  H    0.089698
    88  H    0.046919
    89  H    0.119575
    90  H    0.112181
    91  H    0.131418
    92  H    0.110011
    93  H    0.126591
    94  H    0.117739
    95  H    0.068277
    96  H    0.074914
    97  H    0.082786
    98  H    0.079938
 Sum of Mulliken charges =  -0.00000

 Dipole moment (field-independent basis, Debye):
    X=             -0.9993    Y=             -1.6958    Z=             -0.3952  Tot=              2.0076
 Quadrupole moment (field-independent basis, Debye-Ang):
   XX=           -263.8572   YY=           -242.9098   ZZ=           -262.6156
   XY=             16.7374   XZ=             -3.7402   YZ=              4.2520

 Normal termination of Gaussian 16 at Sat Jul 20 02:43:39 2019.
