 Gaussian 16, Revision A.03,
 Gaussian 16:  ES64L-G16RevA.03 25-Dec-2016

 -------------------------------------
 # td=(NStates=1) CAM-B3LYP/6-31G(d,p)
 -------------------------------------

 --
 TD
 --
 Symbolic Z-matrix:
 Charge =  0 Multiplicity = 1

                         Standard orientation:
 ---------------------------------------------------------------------
 Center     Atomic      Atomic             Coordinates (Angstroms)
 Number     Number       Type             X           Y           Z
 ---------------------------------------------------------------------
      1          8           0       14.668966   -2.176315   -0.282016
      2          8           0      -14.634089    2.036081    1.165312
      3          6           0       11.219958   -1.441293    1.139392
      4          6           0      -12.307241   -1.114920    0.694351
      5          6           0       12.695792   -1.763230    1.129142
      6          6           0      -13.606381   -0.228933    0.767765
      7          6           0       13.281008   -1.949463   -0.290829
      8          6           0      -13.471480    1.200265    1.025933
      9          6           0       10.903557   -0.325316    0.156905
     10          6           0      -11.255612   -0.183738   -0.153417
     11          6           0       13.147709   -0.597974   -1.003019
     12          6           0      -12.682428    1.850951   -0.113847
     13          6           0       11.751654   -0.037155   -0.926125
     14          6           0      -11.514861    1.101817   -0.520281
     15          6           0       11.031220   -0.947127    2.582901
     16          6           0       10.400656   -2.702149    0.924818
     17          6           0      -11.837925   -1.263232    2.189369
     18          6           0      -12.665661   -2.508849    0.063084
     19          6           0        9.555065    0.255778    0.167903
     20          6           0      -10.050090   -0.983757   -0.444352
     21          6           0       11.586650    1.073706   -1.955214
     22          6           0      -10.616534    1.791639   -1.355515
     23          6           0        9.296176    1.612425    0.035052
     24          6           0       -8.734871   -0.490512   -0.509884
     25          6           0        8.035729    2.241513    0.082308
     26          6           0       -7.644138   -1.319073   -0.752647
     27          6           0        8.100345    3.723613    0.336229
     28          6           0       -7.674506   -2.795783   -1.129982
     29          6           0        6.871859    1.572853   -0.005948
     30          6           0       -6.508832   -0.695537   -0.683245
     31          6           0        5.537322    2.107411    0.152680
     32          6           0       -5.085978   -1.231836   -0.753613
     33          6           0        4.405214    1.304776   -0.119956
     34          6           0       -3.954081   -0.352999   -0.590476
     35          6           0        3.107113    1.804553    0.046559
     36          6           0       -2.598183   -0.822932   -0.571942
     37          6           0        2.899769    3.269328    0.558523
     38          6           0       -2.198151   -2.231442   -1.022036
     39          6           0        2.095114    0.960262   -0.255322
     40          6           0       -1.631070    0.199120   -0.342081
     41          6           0        0.684310    1.029713   -0.073452
     42          6           0       -0.250652    0.017413   -0.353298
     43          1           0       13.239994   -0.937205    1.517227
     44          1           0       12.913267   -2.675368    1.694223
     45          1           0      -14.233998   -0.912227    1.379481
     46          1           0      -14.108247   -0.373252   -0.150421
     47          1           0       12.618488   -2.545825   -1.049550
     48          1           0      -12.917801    1.541003    2.188034
     49          1           0       13.813867    0.033864   -0.388698
     50          1           0       13.796789   -0.465031   -1.976866
     51          1           0      -13.448560    1.936418   -0.940786
     52          1           0      -12.367435    2.978713    0.268062
     53          1           0       11.186456   -1.543050    3.282896
     54          1           0       10.005889   -0.613033    2.757856
     55          1           0       11.724281   -0.072692    2.723226
     56          1           0       10.483041   -3.161261   -0.075658
     57          1           0       10.768403   -3.422778    1.767231
     58          1           0        9.221187   -2.612721    0.820099
     59          1           0      -11.385448   -0.390731    2.634308
     60          1           0      -11.036025   -2.198234    1.947648
     61          1           0      -12.808014   -1.659797    2.558880
     62          1           0      -13.564685   -2.941823    0.807538
     63          1           0      -11.927925   -3.167340    0.031485
     64          1           0      -12.972258   -2.299844   -1.037673
     65          1           0        8.877811   -0.516618    1.025406
     66          1           0      -10.181909   -2.127181   -0.369969
     67          1           0       10.492660    1.177865   -2.280825
     68          1           0       11.665564    2.203994   -1.552882
     69          1           0       12.085682    0.911390   -2.975068
     70          1           0      -11.232714    2.391784   -1.983763
     71          1           0       -9.788515    1.153057   -1.825721
     72          1           0       -9.844267    2.551546   -0.997905
     73          1           0       14.621324   -3.089158    0.014472
     74          1           0      -15.255866    1.746883    1.833796
     75          1           0       10.069422    2.185720   -0.320165
     76          1           0       -8.478376    0.494620   -0.237680
     77          1           0        9.039452    4.050494    0.166246
     78          1           0        7.379524    4.208403   -0.325888
     79          1           0        7.964127    4.059287    1.372347
     80          1           0       -8.463954   -3.379284   -0.513936
     81          1           0       -8.098561   -2.896659   -2.222226
     82          1           0       -6.774572   -3.156284   -1.214221
     83          1           0        6.851819    0.413295   -0.167832
     84          1           0       -6.553526    0.331116   -0.386548
     85          1           0        5.472190    3.080565    0.585755
     86          1           0       -4.850343   -2.284216   -1.033791
     87          1           0        4.514623    0.173747   -0.286575
     88          1           0       -4.170259    0.619709   -0.160967
     89          1           0        3.751203    3.446056    1.308755
     90          1           0        1.685866    3.289017    0.855096
     91          1           0        3.334572    3.843824   -0.308526
     92          1           0       -2.736401   -2.807645   -0.388701
     93          1           0       -2.656907   -2.209461   -2.087229
     94          1           0       -1.241882   -2.322377   -0.908539
     95          1           0        2.642202   -0.031006   -0.598251
     96          1           0       -1.986876    1.132428   -0.097784
     97          1           0        0.500304    2.115125    0.055724
     98          1           0        0.181025   -0.915251   -0.556108
 ---------------------------------------------------------------------

 SCF Done:  E(RCAM-B3LYP) =  -1706.90651160     A.U. after   15 cycles

 Excitation energies and oscillator strengths:

 Excited State   1:      Singlet-A      2.1893 eV  566.32 nm  f=3.7486  <S**2>=0.000
     155 ->158         0.17307
     156 ->157         0.68256
 This state for optimization and/or second-order correction.
 Total Energy, E(TD-HF/TD-DFT) =  -1706.82605695
 Copying the excited state density for this state as the 1-particle RhoCI density.

 The electronic state is 1-A.
 Alpha  occ. eigenvalues --  -19.22146 -19.20720 -10.32581 -10.30494 -10.28362
 Alpha  occ. eigenvalues --  -10.28184 -10.28024 -10.28009 -10.27816 -10.27461
 Alpha  occ. eigenvalues --  -10.27399 -10.27061 -10.27057 -10.26938 -10.26902
 Alpha  occ. eigenvalues --  -10.26891 -10.26889 -10.26720 -10.26620 -10.26577
 Alpha  occ. eigenvalues --  -10.26448 -10.26434 -10.26333 -10.26235 -10.26154
 Alpha  occ. eigenvalues --  -10.26138 -10.26126 -10.26009 -10.25913 -10.25810
 Alpha  occ. eigenvalues --  -10.25785 -10.25736 -10.25667 -10.25615 -10.25394
 Alpha  occ. eigenvalues --  -10.24952 -10.24940 -10.24874 -10.24659 -10.24322
 Alpha  occ. eigenvalues --  -10.24314 -10.22905  -1.11252  -1.08654  -0.93802
 Alpha  occ. eigenvalues --   -0.93549  -0.92337  -0.91979  -0.91138  -0.90400
 Alpha  occ. eigenvalues --   -0.87976  -0.87005  -0.86565  -0.84850  -0.84417
 Alpha  occ. eigenvalues --   -0.82725  -0.81726  -0.80168  -0.79503  -0.78778
 Alpha  occ. eigenvalues --   -0.77905  -0.77080  -0.76116  -0.76013  -0.75961
 Alpha  occ. eigenvalues --   -0.75488  -0.75163  -0.74998  -0.73571  -0.70952
 Alpha  occ. eigenvalues --   -0.68545  -0.67453  -0.65560  -0.64470  -0.64170
 Alpha  occ. eigenvalues --   -0.63562  -0.62158  -0.61762  -0.60557  -0.59925
 Alpha  occ. eigenvalues --   -0.59433  -0.58795  -0.57953  -0.57405  -0.56329
 Alpha  occ. eigenvalues --   -0.56015  -0.55700  -0.54776  -0.54440  -0.53993
 Alpha  occ. eigenvalues --   -0.53239  -0.52667  -0.51810  -0.51634  -0.51341
 Alpha  occ. eigenvalues --   -0.51125  -0.50463  -0.49733  -0.49627  -0.48931
 Alpha  occ. eigenvalues --   -0.48788  -0.48635  -0.48336  -0.47904  -0.47569
 Alpha  occ. eigenvalues --   -0.47364  -0.47114  -0.46997  -0.46587  -0.46332
 Alpha  occ. eigenvalues --   -0.46267  -0.45969  -0.45805  -0.45571  -0.45156
 Alpha  occ. eigenvalues --   -0.45057  -0.44949  -0.44667  -0.44372  -0.44151
 Alpha  occ. eigenvalues --   -0.43572  -0.42823  -0.42545  -0.42370  -0.41540
 Alpha  occ. eigenvalues --   -0.41422  -0.41122  -0.41076  -0.40796  -0.40327
 Alpha  occ. eigenvalues --   -0.40218  -0.40139  -0.39790  -0.39708  -0.39652
 Alpha  occ. eigenvalues --   -0.39589  -0.39349  -0.38668  -0.38489  -0.37975
 Alpha  occ. eigenvalues --   -0.37465  -0.37252  -0.36260  -0.35912  -0.35333
 Alpha  occ. eigenvalues --   -0.35116  -0.34599  -0.33820  -0.32331  -0.32104
 Alpha  occ. eigenvalues --   -0.31164  -0.30193  -0.28011  -0.25323  -0.22878
 Alpha  occ. eigenvalues --   -0.19406
 Alpha virt. eigenvalues --   -0.05762  -0.01419   0.01576   0.04821   0.07639
 Alpha virt. eigenvalues --    0.09293   0.10031   0.11084   0.11324   0.11603
 Alpha virt. eigenvalues --    0.11867   0.12947   0.13110   0.13423   0.13797

 Mulliken charges:
               1
     1  O   -0.529906
     2  O   -0.570002
     3  C   -0.035112
     4  C   -0.058330
     5  C   -0.169322
     6  C   -0.192982
     7  C    0.119602
     8  C    0.205979
     9  C    0.053829
    10  C    0.055107
    11  C   -0.231594
    12  C   -0.236588
    13  C    0.077021
    14  C    0.124140
    15  C   -0.279587
    16  C   -0.291682
    17  C   -0.249004
    18  C   -0.287083
    19  C   -0.110352
    20  C   -0.146655
    21  C   -0.380416
    22  C   -0.387400
    23  C   -0.098066
    24  C   -0.125216
    25  C    0.087750
    26  C    0.183898
    27  C   -0.372350
    28  C   -0.347005
    29  C   -0.114709
    30  C   -0.161708
    31  C   -0.113487
    32  C   -0.126440
    33  C   -0.116390
    34  C   -0.110600
    35  C    0.124668
    36  C    0.050454
    37  C   -0.358447
    38  C   -0.332568
    39  C   -0.128116
    40  C   -0.092911
    41  C   -0.106416
    42  C   -0.084953
    43  H    0.113125
    44  H    0.076666
    45  H    0.071024
    46  H    0.104097
    47  H    0.077956
    48  H    0.020328
    49  H    0.117469
    50  H    0.097858
    51  H    0.123162
    52  H    0.103463
    53  H    0.106732
    54  H    0.094251
    55  H    0.094967
    56  H    0.107512
    57  H    0.089381
    58  H    0.092963
    59  H    0.125760
    60  H    0.063458
    61  H    0.095340
    62  H    0.076606
    63  H    0.118295
    64  H    0.109704
    65  H    0.057021
    66  H    0.070155
    67  H    0.115058
    68  H    0.110005
    69  H    0.107707
    70  H    0.107159
    71  H    0.114566
    72  H    0.102156
    73  H    0.306228
    74  H    0.303138
    75  H    0.077969
    76  H    0.099623
    77  H    0.112037
    78  H    0.116656
    79  H    0.121214
    80  H    0.106370
    81  H    0.107925
    82  H    0.116919
    83  H    0.076850
    84  H    0.073779
    85  H    0.084848
    86  H    0.085906
    87  H    0.093748
    88  H    0.090868
    89  H    0.121202
    90  H    0.101155
    91  H    0.133249
    92  H    0.134501
    93  H    0.125953
    94  H    0.113890
    95  H    0.053292
    96  H    0.078787
    97  H    0.075564
    98  H    0.087331
 Sum of Mulliken charges =  -0.00000

 Dipole moment (field-independent basis, Debye):
    X=             -0.7309    Y=             -2.1434    Z=              1.1114  Tot=              2.5226
 Quadrupole moment (field-independent basis, Debye-Ang):
   XX=           -269.0749   YY=           -243.6203   ZZ=           -263.7439
   XY=             11.3963   XZ=              0.8672   YZ=              1.4470

 Normal termination of Gaussian 16 at Thu Jul 11 09:58:02 2019.
