 Gaussian 16, Revision A.03,
 Gaussian 16:  ES64L-G16RevA.03 25-Dec-2016

 -------------------------------------
 # td=(NStates=1) CAM-B3LYP/6-31G(d,p)
 -------------------------------------

 --
 TD
 --
 Symbolic Z-matrix:
 Charge =  0 Multiplicity = 1

                         Standard orientation:
 ---------------------------------------------------------------------
 Center     Atomic      Atomic             Coordinates (Angstroms)
 Number     Number       Type             X           Y           Z
 ---------------------------------------------------------------------
      1          8           0       14.669608   -2.393602   -0.420461
      2          8           0      -14.901610    1.856898    0.745423
      3          6           0       11.317329   -1.273658    1.097011
      4          6           0      -12.399594   -1.035229    0.590532
      5          6           0       12.782065   -1.821316    1.015502
      6          6           0      -13.741076   -0.241754    0.531050
      7          6           0       13.321662   -1.981616   -0.389977
      8          6           0      -13.684860    1.203554    0.776611
      9          6           0       10.955105   -0.294091   -0.049970
     10          6           0      -11.258589   -0.329974   -0.123376
     11          6           0       13.150210   -0.691346   -1.171323
     12          6           0      -12.800154    1.730382   -0.446114
     13          6           0       11.842186   -0.001861   -0.964990
     14          6           0      -11.515332    0.916170   -0.662700
     15          6           0       11.089572   -0.670287    2.441362
     16          6           0       10.365754   -2.551753    0.951072
     17          6           0      -11.952172   -1.079331    2.019386
     18          6           0      -12.606798   -2.410978   -0.059051
     19          6           0        9.613707    0.305722    0.097309
     20          6           0       -9.966471   -1.010833   -0.396663
     21          6           0       11.593553    0.863157   -2.162922
     22          6           0      -10.517460    1.586854   -1.590335
     23          6           0        9.378607    1.709246   -0.030119
     24          6           0       -8.716754   -0.477590   -0.154169
     25          6           0        8.084689    2.365900    0.035031
     26          6           0       -7.515891   -1.289305   -0.392387
     27          6           0        7.910265    3.851598    0.230154
     28          6           0       -7.715255   -2.741563   -0.741106
     29          6           0        6.905927    1.559290    0.021597
     30          6           0       -6.389172   -0.657537   -0.313687
     31          6           0        5.617770    2.027755    0.224034
     32          6           0       -5.029687   -1.033744   -0.354240
     33          6           0        4.462005    1.250906    0.010557
     34          6           0       -3.925958   -0.355653   -0.254830
     35          6           0        3.146422    1.745522    0.265771
     36          6           0       -2.578939   -0.724091   -0.539872
     37          6           0        2.876043    3.107968    0.875253
     38          6           0       -2.220024   -2.087323   -1.004779
     39          6           0        2.020580    0.879520   -0.060914
     40          6           0       -1.600565    0.149065   -0.087511
     41          6           0        0.707002    1.020977    0.112760
     42          6           0       -0.166085    0.021640   -0.238302
     43          1           0       13.415968   -1.011623    1.509413
     44          1           0       13.037141   -2.586441    1.816700
     45          1           0      -14.438928   -0.704941    1.103981
     46          1           0      -14.201760   -0.592368   -0.447070
     47          1           0       12.496975   -2.844181   -0.859337
     48          1           0      -13.011229    1.327878    1.707655
     49          1           0       13.836571    0.097329   -0.892556
     50          1           0       13.423193   -0.830708   -2.120336
     51          1           0      -13.303367    1.692067   -1.453945
     52          1           0      -12.705987    2.681766   -0.476599
     53          1           0       11.375886   -1.399457    3.181771
     54          1           0        9.887374   -0.629281    2.685397
     55          1           0       11.732157    0.187103    2.525566
     56          1           0       10.682371   -2.977565   -0.007189
     57          1           0       10.287134   -3.231680    1.773593
     58          1           0        9.469180   -2.393757    0.750375
     59          1           0      -11.796955   -0.046167    2.336216
     60          1           0      -10.889421   -1.536034    2.004136
     61          1           0      -12.626979   -1.812848    2.593272
     62          1           0      -13.643247   -2.833645    0.469764
     63          1           0      -11.730342   -3.051730    0.220980
     64          1           0      -12.762166   -2.256412   -1.228803
     65          1           0        8.847642   -0.340715    0.362060
     66          1           0       -9.975819   -1.996618   -0.700403
     67          1           0       10.421479    1.112102   -2.125526
     68          1           0       12.136685    1.828890   -2.111969
     69          1           0       11.581420    0.370177   -3.124211
     70          1           0      -11.121249    2.369083   -2.346033
     71          1           0       -9.859622    0.859760   -2.251424
     72          1           0       -9.902954    2.466526   -1.112901
     73          1           0       14.526565   -3.343734    0.162313
     74          1           0      -15.216325    1.708447    1.649837
     75          1           0       10.170556    2.320369   -0.163362
     76          1           0       -8.456435    0.565081    0.080970
     77          1           0        8.922916    4.321760    0.265422
     78          1           0        7.099663    4.188866   -0.464286
     79          1           0        7.590457    4.227399    1.289504
     80          1           0       -8.336063   -3.192062    0.028846
     81          1           0       -8.035154   -2.910350   -1.801379
     82          1           0       -6.725219   -3.054632   -0.810706
     83          1           0        6.993453    0.564258   -0.269577
     84          1           0       -6.570423    0.485296   -0.143470
     85          1           0        5.501517    3.120096    0.327710
     86          1           0       -4.932448   -2.024251   -0.736714
     87          1           0        4.573135    0.247857   -0.527790
     88          1           0       -4.243821    0.620934    0.390613
     89          1           0        3.371112    3.263717    1.855842
     90          1           0        1.906492    3.066574    0.955652
     91          1           0        3.207996    4.103708    0.124988
     92          1           0       -2.488293   -2.786399   -0.220065
     93          1           0       -2.680998   -2.236583   -2.024596
     94          1           0       -1.116143   -2.236290   -1.294172
     95          1           0        2.487768   -0.193597   -0.063188
     96          1           0       -1.877635    1.228019    0.290074
     97          1           0        0.224092    1.980188    0.633894
     98          1           0        0.260398   -0.863915   -0.552565
 ---------------------------------------------------------------------

 SCF Done:  E(RCAM-B3LYP) =  -1706.94479605     A.U. after   15 cycles

 Excitation energies and oscillator strengths:

 Excited State   1:      Singlet-A      2.0652 eV  600.36 nm  f=3.3023  <S**2>=0.000
     155 ->158        -0.13213
     156 ->157         0.69632
     156 <-157        -0.10384
 This state for optimization and/or second-order correction.
 Total Energy, E(TD-HF/TD-DFT) =  -1706.86890229
 Copying the excited state density for this state as the 1-particle RhoCI density.

 The electronic state is 1-A.
 Alpha  occ. eigenvalues --  -19.23385 -19.22464 -10.32132 -10.31086 -10.28241
 Alpha  occ. eigenvalues --  -10.27725 -10.27717 -10.27583 -10.27267 -10.27228
 Alpha  occ. eigenvalues --  -10.27122 -10.27111 -10.27037 -10.26929 -10.26744
 Alpha  occ. eigenvalues --  -10.26717 -10.26613 -10.26589 -10.26496 -10.26454
 Alpha  occ. eigenvalues --  -10.26300 -10.26292 -10.26247 -10.26087 -10.26047
 Alpha  occ. eigenvalues --  -10.26024 -10.25998 -10.25812 -10.25647 -10.25555
 Alpha  occ. eigenvalues --  -10.25468 -10.25379 -10.25150 -10.25099 -10.25072
 Alpha  occ. eigenvalues --  -10.25006 -10.24880 -10.24807 -10.24129 -10.24045
 Alpha  occ. eigenvalues --  -10.23446 -10.22600  -1.11783  -1.08723  -0.93780
 Alpha  occ. eigenvalues --   -0.93426  -0.92582  -0.91752  -0.90839  -0.89932
 Alpha  occ. eigenvalues --   -0.87623  -0.87453  -0.86096  -0.85453  -0.84698
 Alpha  occ. eigenvalues --   -0.83471  -0.82235  -0.79692  -0.79590  -0.78312
 Alpha  occ. eigenvalues --   -0.77694  -0.77570  -0.76389  -0.76128  -0.75611
 Alpha  occ. eigenvalues --   -0.75594  -0.75098  -0.74389  -0.73133  -0.70556
 Alpha  occ. eigenvalues --   -0.69023  -0.67477  -0.66171  -0.65033  -0.63986
 Alpha  occ. eigenvalues --   -0.63218  -0.62043  -0.61670  -0.60263  -0.59999
 Alpha  occ. eigenvalues --   -0.59563  -0.59305  -0.57748  -0.57520  -0.56240
 Alpha  occ. eigenvalues --   -0.55148  -0.55082  -0.54587  -0.54256  -0.53550
 Alpha  occ. eigenvalues --   -0.53178  -0.52704  -0.52495  -0.51834  -0.51402
 Alpha  occ. eigenvalues --   -0.50739  -0.50535  -0.50464  -0.49942  -0.49531
 Alpha  occ. eigenvalues --   -0.49492  -0.48973  -0.48878  -0.48614  -0.48346
 Alpha  occ. eigenvalues --   -0.47732  -0.47626  -0.46804  -0.46753  -0.46517
 Alpha  occ. eigenvalues --   -0.46119  -0.45614  -0.45478  -0.45337  -0.45056
 Alpha  occ. eigenvalues --   -0.44587  -0.44084  -0.43926  -0.43371  -0.43230
 Alpha  occ. eigenvalues --   -0.43150  -0.42967  -0.42791  -0.42150  -0.41796
 Alpha  occ. eigenvalues --   -0.41704  -0.41677  -0.41326  -0.41065  -0.40821
 Alpha  occ. eigenvalues --   -0.40727  -0.40227  -0.40176  -0.40024  -0.39876
 Alpha  occ. eigenvalues --   -0.39188  -0.39042  -0.38096  -0.37835  -0.37552
 Alpha  occ. eigenvalues --   -0.37323  -0.37077  -0.36450  -0.36271  -0.35980
 Alpha  occ. eigenvalues --   -0.35000  -0.34837  -0.33382  -0.32483  -0.31846
 Alpha  occ. eigenvalues --   -0.31556  -0.30051  -0.28281  -0.26041  -0.23562
 Alpha  occ. eigenvalues --   -0.19118
 Alpha virt. eigenvalues --   -0.06414  -0.00931   0.02371   0.06048   0.08253
 Alpha virt. eigenvalues --    0.08601   0.09620   0.11142   0.11272   0.12109
 Alpha virt. eigenvalues --    0.12424   0.12723   0.12979   0.13536   0.13977

 Mulliken charges:
               1
     1  O   -0.544966
     2  O   -0.535871
     3  C   -0.020054
     4  C   -0.025211
     5  C   -0.203177
     6  C   -0.159235
     7  C    0.189713
     8  C    0.151754
     9  C    0.081543
    10  C    0.052679
    11  C   -0.205930
    12  C   -0.205698
    13  C    0.025666
    14  C    0.072631
    15  C   -0.286260
    16  C   -0.304839
    17  C   -0.279612
    18  C   -0.294928
    19  C   -0.111420
    20  C   -0.168450
    21  C   -0.379584
    22  C   -0.358176
    23  C   -0.094867
    24  C   -0.072991
    25  C    0.076872
    26  C    0.130990
    27  C   -0.376373
    28  C   -0.368818
    29  C   -0.095887
    30  C   -0.139502
    31  C   -0.089532
    32  C   -0.097781
    33  C   -0.126335
    34  C   -0.088435
    35  C    0.081620
    36  C    0.089249
    37  C   -0.330430
    38  C   -0.372626
    39  C   -0.143757
    40  C   -0.118368
    41  C   -0.069986
    42  C   -0.076006
    43  H    0.084917
    44  H    0.082073
    45  H    0.076038
    46  H    0.087879
    47  H    0.028941
    48  H    0.072112
    49  H    0.119159
    50  H    0.123447
    51  H    0.108094
    52  H    0.102202
    53  H    0.100510
    54  H    0.083204
    55  H    0.108899
    56  H    0.093355
    57  H    0.096511
    58  H    0.104251
    59  H    0.108565
    60  H    0.089530
    61  H    0.084287
    62  H    0.074191
    63  H    0.102563
    64  H    0.105010
    65  H    0.094170
    66  H    0.090866
    67  H    0.097499
    68  H    0.114627
    69  H    0.121322
    70  H    0.064188
    71  H    0.118703
    72  H    0.102920
    73  H    0.309198
    74  H    0.310491
    75  H    0.080015
    76  H    0.089157
    77  H    0.108410
    78  H    0.130247
    79  H    0.113906
    80  H    0.125792
    81  H    0.122945
    82  H    0.109860
    83  H    0.075713
    84  H    0.055993
    85  H    0.084592
    86  H    0.063966
    87  H    0.086809
    88  H    0.069161
    89  H    0.127226
    90  H    0.114176
    91  H    0.077236
    92  H    0.137337
    93  H    0.119872
    94  H    0.108608
    95  H    0.083453
    96  H    0.078417
    97  H    0.089426
    98  H    0.080346
 Sum of Mulliken charges =  -0.00000

 Dipole moment (field-independent basis, Debye):
    X=              0.3094    Y=             -1.3385    Z=              1.8816  Tot=              2.3297
 Quadrupole moment (field-independent basis, Debye-Ang):
   XX=           -287.4381   YY=           -244.7249   ZZ=           -260.1451
   XY=              8.4491   XZ=             -6.3689   YZ=              3.2242

 Normal termination of Gaussian 16 at Wed Jul 17 04:17:36 2019.
