 Gaussian 16, Revision A.03,
 Gaussian 16:  ES64L-G16RevA.03 25-Dec-2016

 -------------------------------------
 # td=(NStates=1) CAM-B3LYP/6-31G(d,p)
 -------------------------------------

 --
 TD
 --
 Symbolic Z-matrix:
 Charge =  0 Multiplicity = 1

                         Standard orientation:
 ---------------------------------------------------------------------
 Center     Atomic      Atomic             Coordinates (Angstroms)
 Number     Number       Type             X           Y           Z
 ---------------------------------------------------------------------
      1          8           0       14.702546   -2.260147   -0.519897
      2          8           0      -14.725652    1.868414    0.763020
      3          6           0       11.186183   -1.534851    1.029345
      4          6           0      -12.350720   -1.024210    0.620488
      5          6           0       12.636626   -1.818272    1.053135
      6          6           0      -13.747021   -0.300373    0.647601
      7          6           0       13.183561   -1.972975   -0.295991
      8          6           0      -13.527626    1.116199    0.870933
      9          6           0       10.984908   -0.296791   -0.020972
     10          6           0      -11.259969   -0.317407   -0.138544
     11          6           0       13.162586   -0.581647   -1.016071
     12          6           0      -12.662762    1.706933   -0.205220
     13          6           0       11.848015    0.077984   -0.869261
     14          6           0      -11.317973    0.999094   -0.548957
     15          6           0       10.859167   -1.098063    2.555814
     16          6           0       10.359104   -2.665356    0.654866
     17          6           0      -11.786319   -1.300948    2.074975
     18          6           0      -12.572545   -2.356285    0.037842
     19          6           0        9.630599    0.392083    0.290158
     20          6           0      -10.020711   -1.151417   -0.325531
     21          6           0       11.631976    1.147792   -1.948117
     22          6           0      -10.483614    1.687263   -1.469483
     23          6           0        9.260718    1.729938    0.081899
     24          6           0       -8.774693   -0.508395   -0.302199
     25          6           0        8.097447    2.265018    0.217659
     26          6           0       -7.497287   -1.221180   -0.519144
     27          6           0        7.900049    3.765492    0.618359
     28          6           0       -7.470802   -2.591367   -1.042960
     29          6           0        6.840952    1.534136    0.072960
     30          6           0       -6.410461   -0.468283   -0.378512
     31          6           0        5.531742    1.909102    0.323122
     32          6           0       -5.140560   -0.925145   -0.702007
     33          6           0        4.397485    1.225610   -0.120299
     34          6           0       -3.962814   -0.225493   -0.285498
     35          6           0        3.051153    1.732103    0.124437
     36          6           0       -2.621188   -0.603066   -0.639298
     37          6           0        2.920861    3.125494    0.592661
     38          6           0       -2.291078   -2.008279   -0.923822
     39          6           0        2.054634    0.884238   -0.269768
     40          6           0       -1.604075    0.277483   -0.097575
     41          6           0        0.669561    1.039287   -0.156799
     42          6           0       -0.216316    0.045569   -0.404608
     43          1           0       13.448502   -1.199566    1.530275
     44          1           0       12.761983   -2.728055    1.570256
     45          1           0      -14.245852   -0.797578    1.522224
     46          1           0      -14.128001   -0.312913   -0.295748
     47          1           0       12.755604   -2.640512   -0.943537
     48          1           0      -12.988129    1.295060    1.825617
     49          1           0       14.093566    0.011189   -0.899338
     50          1           0       13.465365   -0.784068   -2.099105
     51          1           0      -13.300697    1.538272   -1.354120
     52          1           0      -12.738744    2.738111   -0.028930
     53          1           0       11.158078   -2.014307    3.122748
     54          1           0        9.682900   -1.036717    2.588127
     55          1           0       11.242682    0.069218    3.114624
     56          1           0       10.546722   -2.820524   -0.407747
     57          1           0       10.404011   -3.763581    1.089177
     58          1           0        9.357313   -2.003220    0.542325
     59          1           0      -11.527824   -0.342614    2.422536
     60          1           0      -10.934948   -2.109151    2.074144
     61          1           0      -12.598204   -1.841578    2.791255
     62          1           0      -13.422251   -3.033503    0.347352
     63          1           0      -11.666314   -3.089644    0.175812
     64          1           0      -12.676635   -2.262100   -1.208714
     65          1           0        8.911806   -0.483385    0.469424
     66          1           0      -10.196743   -2.186234   -0.246653
     67          1           0       10.548949    1.268167   -2.207728
     68          1           0       11.920978    2.110024   -1.705980
     69          1           0       12.179905    0.796545   -2.917458
     70          1           0      -11.106778    2.079279   -2.231165
     71          1           0       -9.537166    1.138608   -1.987262
     72          1           0       -9.884082    2.424411   -0.922254
     73          1           0       14.705067   -3.096758    0.076205
     74          1           0      -15.426903    1.226896    1.490127
     75          1           0       10.002516    2.487961   -0.252514
     76          1           0       -8.542093    0.519016   -0.195086
     77          1           0        8.843895    4.192412    0.440340
     78          1           0        7.235019    4.080142   -0.068988
     79          1           0        7.501744    4.019432    1.582425
     80          1           0       -7.909288   -3.366507   -0.293578
     81          1           0       -8.181983   -2.552695   -1.984131
     82          1           0       -6.351867   -3.011552   -1.192529
     83          1           0        6.944467    0.502515   -0.352577
     84          1           0       -6.684344    0.418701    0.145343
     85          1           0        5.119467    2.940708    0.834436
     86          1           0       -5.110151   -1.961849   -1.244633
     87          1           0        4.433536    0.136121   -0.377645
     88          1           0       -4.212002    0.621795    0.135073
     89          1           0        3.236846    3.340637    1.564001
     90          1           0        1.875881    3.708444    0.565631
     91          1           0        3.423664    3.831457   -0.003273
     92          1           0       -2.748561   -2.723825   -0.063654
     93          1           0       -2.678880   -2.095857   -1.906073
     94          1           0       -1.197867   -2.274558   -1.121291
     95          1           0        2.303985   -0.191671   -0.631796
     96          1           0       -1.761239    1.086024    0.304458
     97          1           0        0.554317    1.942353    0.356065
     98          1           0        0.350864   -0.811183   -0.595198
 ---------------------------------------------------------------------

 SCF Done:  E(RCAM-B3LYP) =  -1706.80154681     A.U. after   15 cycles

 Excitation energies and oscillator strengths:

 Excited State   1:      Singlet-A      2.0959 eV  591.55 nm  f=3.7066  <S**2>=0.000
     155 ->158        -0.17462
     156 ->157         0.68490
 This state for optimization and/or second-order correction.
 Total Energy, E(TD-HF/TD-DFT) =  -1706.72452315
 Copying the excited state density for this state as the 1-particle RhoCI density.

 The electronic state is 1-A.
 Alpha  occ. eigenvalues --  -19.23159 -19.20917 -10.29790 -10.29204 -10.28433
 Alpha  occ. eigenvalues --  -10.27822 -10.27778 -10.27656 -10.27644 -10.27586
 Alpha  occ. eigenvalues --  -10.27437 -10.27070 -10.26965 -10.26946 -10.26923
 Alpha  occ. eigenvalues --  -10.26816 -10.26751 -10.26729 -10.26620 -10.26476
 Alpha  occ. eigenvalues --  -10.26446 -10.26385 -10.26369 -10.26327 -10.26249
 Alpha  occ. eigenvalues --  -10.26247 -10.26094 -10.26086 -10.25890 -10.25749
 Alpha  occ. eigenvalues --  -10.25658 -10.25527 -10.25521 -10.25521 -10.25349
 Alpha  occ. eigenvalues --  -10.24912 -10.24887 -10.24784 -10.24775 -10.24676
 Alpha  occ. eigenvalues --  -10.24498 -10.23652  -1.07813  -1.04762  -0.94255
 Alpha  occ. eigenvalues --   -0.94143  -0.92587  -0.92216  -0.91191  -0.90313
 Alpha  occ. eigenvalues --   -0.87891  -0.87756  -0.87432  -0.85429  -0.84352
 Alpha  occ. eigenvalues --   -0.83314  -0.82520  -0.80077  -0.79769  -0.79259
 Alpha  occ. eigenvalues --   -0.77072  -0.76699  -0.76499  -0.76260  -0.76168
 Alpha  occ. eigenvalues --   -0.75232  -0.74929  -0.74182  -0.73196  -0.70970
 Alpha  occ. eigenvalues --   -0.69947  -0.66910  -0.65601  -0.65212  -0.63948
 Alpha  occ. eigenvalues --   -0.63573  -0.63287  -0.62107  -0.61111  -0.59781
 Alpha  occ. eigenvalues --   -0.58991  -0.58684  -0.58295  -0.57476  -0.56426
 Alpha  occ. eigenvalues --   -0.55857  -0.55530  -0.54796  -0.53882  -0.53491
 Alpha  occ. eigenvalues --   -0.53096  -0.52441  -0.51650  -0.51369  -0.50763
 Alpha  occ. eigenvalues --   -0.50514  -0.49905  -0.49714  -0.49659  -0.49554
 Alpha  occ. eigenvalues --   -0.49271  -0.49010  -0.48904  -0.48727  -0.48298
 Alpha  occ. eigenvalues --   -0.47993  -0.47577  -0.47190  -0.46970  -0.46802
 Alpha  occ. eigenvalues --   -0.46194  -0.45690  -0.45648  -0.45470  -0.44921
 Alpha  occ. eigenvalues --   -0.44740  -0.44400  -0.44235  -0.43775  -0.43579
 Alpha  occ. eigenvalues --   -0.43233  -0.42283  -0.42168  -0.41870  -0.41795
 Alpha  occ. eigenvalues --   -0.41764  -0.41459  -0.41417  -0.40913  -0.40318
 Alpha  occ. eigenvalues --   -0.40154  -0.39884  -0.39424  -0.39195  -0.38929
 Alpha  occ. eigenvalues --   -0.38729  -0.38540  -0.38442  -0.38281  -0.37901
 Alpha  occ. eigenvalues --   -0.37409  -0.36698  -0.36313  -0.35896  -0.35748
 Alpha  occ. eigenvalues --   -0.34730  -0.34234  -0.33362  -0.32594  -0.32417
 Alpha  occ. eigenvalues --   -0.32091  -0.30269  -0.28644  -0.25921  -0.22459
 Alpha  occ. eigenvalues --   -0.19080
 Alpha virt. eigenvalues --   -0.05923  -0.02000   0.02128   0.05645   0.06953
 Alpha virt. eigenvalues --    0.08063   0.09700   0.11003   0.11052   0.11813
 Alpha virt. eigenvalues --    0.12116   0.12295   0.12584   0.12706   0.12910

 Mulliken charges:
               1
     1  O   -0.573680
     2  O   -0.551110
     3  C   -0.026088
     4  C   -0.042789
     5  C   -0.172716
     6  C   -0.158508
     7  C    0.105853
     8  C    0.174819
     9  C    0.024678
    10  C    0.075194
    11  C   -0.245489
    12  C   -0.219927
    13  C    0.086305
    14  C    0.068930
    15  C   -0.262539
    16  C   -0.290233
    17  C   -0.283138
    18  C   -0.291352
    19  C   -0.101257
    20  C   -0.117559
    21  C   -0.369779
    22  C   -0.370556
    23  C   -0.124168
    24  C   -0.111146
    25  C    0.072993
    26  C    0.133490
    27  C   -0.354714
    28  C   -0.365452
    29  C   -0.126585
    30  C   -0.105132
    31  C   -0.086945
    32  C   -0.120250
    33  C   -0.107347
    34  C   -0.091198
    35  C    0.133914
    36  C    0.064889
    37  C   -0.419486
    38  C   -0.353719
    39  C   -0.151805
    40  C   -0.067946
    41  C   -0.052955
    42  C   -0.089572
    43  H    0.115551
    44  H    0.075357
    45  H    0.083424
    46  H    0.114083
    47  H    0.106002
    48  H    0.075757
    49  H    0.128305
    50  H    0.099099
    51  H    0.055885
    52  H    0.121059
    53  H    0.098407
    54  H    0.086335
    55  H    0.078597
    56  H    0.119621
    57  H    0.111986
    58  H    0.085347
    59  H    0.116703
    60  H    0.099855
    61  H    0.071822
    62  H    0.102876
    63  H    0.082477
    64  H    0.071578
    65  H    0.081896
    66  H    0.084952
    67  H    0.116361
    68  H    0.127898
    69  H    0.094135
    70  H    0.121020
    71  H    0.106093
    72  H    0.119916
    73  H    0.292252
    74  H    0.286490
    75  H    0.084373
    76  H    0.087255
    77  H    0.098977
    78  H    0.132590
    79  H    0.125273
    80  H    0.110110
    81  H    0.117251
    82  H    0.094070
    83  H    0.076052
    84  H    0.079448
    85  H    0.067838
    86  H    0.081580
    87  H    0.085796
    88  H    0.073592
    89  H    0.141385
    90  H    0.097316
    91  H    0.144296
    92  H    0.118743
    93  H    0.128356
    94  H    0.108018
    95  H    0.063499
    96  H    0.060731
    97  H    0.070587
    98  H    0.085805
 Sum of Mulliken charges =  -0.00000

 Dipole moment (field-independent basis, Debye):
    X=             -2.9563    Y=             -1.7735    Z=              1.8348  Tot=              3.9053
 Quadrupole moment (field-independent basis, Debye-Ang):
   XX=           -299.6590   YY=           -242.4803   ZZ=           -263.5506
   XY=             15.1699   XZ=             -6.5231   YZ=              0.2406

 Normal termination of Gaussian 16 at Tue Jul 16 01:51:39 2019.
