 Gaussian 16, Revision A.03,
 Gaussian 16:  ES64L-G16RevA.03 25-Dec-2016

 -------------------------------------
 # td=(NStates=1) CAM-B3LYP/6-31G(d,p)
 -------------------------------------

 --
 TD
 --
 Symbolic Z-matrix:
 Charge =  0 Multiplicity = 1

                         Standard orientation:
 ---------------------------------------------------------------------
 Center     Atomic      Atomic             Coordinates (Angstroms)
 Number     Number       Type             X           Y           Z
 ---------------------------------------------------------------------
      1          8           0       14.764429   -2.195845   -0.146510
      2          8           0      -14.731874    1.913440    1.198917
      3          6           0       11.098503   -1.570886    0.902172
      4          6           0      -12.381929   -0.996680    0.569178
      5          6           0       12.648522   -1.810165    1.080073
      6          6           0      -13.800694   -0.243487    0.692530
      7          6           0       13.432146   -1.775896   -0.309723
      8          6           0      -13.509674    1.220463    1.001786
      9          6           0       11.049382   -0.322720    0.050855
     10          6           0      -11.396244   -0.182103   -0.245082
     11          6           0       13.397292   -0.351091   -0.847250
     12          6           0      -12.714495    1.986614   -0.123040
     13          6           0       11.940657    0.173487   -0.794146
     14          6           0      -11.562933    1.175101   -0.582037
     15          6           0       10.671331   -1.208757    2.374442
     16          6           0       10.352777   -2.698542    0.437409
     17          6           0      -11.802885   -1.300939    1.939965
     18          6           0      -12.736570   -2.357583   -0.061352
     19          6           0        9.748567    0.223991    0.116853
     20          6           0      -10.137338   -0.891271   -0.522763
     21          6           0       11.818073    1.463889   -1.772927
     22          6           0      -10.544416    1.818535   -1.315421
     23          6           0        9.413069    1.582621    0.108967
     24          6           0       -8.826979   -0.476687   -0.421688
     25          6           0        8.108537    2.258209    0.228796
     26          6           0       -7.655281   -1.234305   -0.630956
     27          6           0        7.986829    3.752315    0.595986
     28          6           0       -7.759527   -2.642507   -1.014476
     29          6           0        6.941924    1.531038   -0.043592
     30          6           0       -6.443967   -0.597342   -0.393504
     31          6           0        5.535223    2.016065    0.175423
     32          6           0       -5.102728   -1.206177   -0.529332
     33          6           0        4.449915    1.269163   -0.201967
     34          6           0       -3.953107   -0.474215   -0.340199
     35          6           0        3.143094    1.693270    0.073348
     36          6           0       -2.635083   -0.973022   -0.623848
     37          6           0        2.817966    3.138988    0.378078
     38          6           0       -2.291406   -2.321037   -1.079356
     39          6           0        2.132106    0.691501   -0.202299
     40          6           0       -1.520914    0.005769   -0.315269
     41          6           0        0.862822    0.873982   -0.117587
     42          6           0       -0.133487   -0.107835   -0.356604
     43          1           0       13.116684   -0.931993    1.824464
     44          1           0       12.895496   -2.786622    1.553064
     45          1           0      -14.382234   -0.808648    1.470723
     46          1           0      -14.263397   -0.173135   -0.351317
     47          1           0       12.857450   -2.459332   -0.943424
     48          1           0      -12.869415    1.189772    1.885220
     49          1           0       14.013266    0.427924   -0.370912
     50          1           0       13.740775   -0.394809   -1.841586
     51          1           0      -13.336801    2.151042   -0.988463
     52          1           0      -12.322680    2.875633    0.181985
     53          1           0       10.937644   -1.896963    3.282888
     54          1           0        9.707684   -1.152239    2.286660
     55          1           0       11.051156   -0.245851    2.458005
     56          1           0       10.399801   -2.874485   -0.855044
     57          1           0       10.641731   -3.600870    1.077323
     58          1           0        9.294793   -2.364076    0.580349
     59          1           0      -11.457848   -0.365333    2.511091
     60          1           0      -10.996403   -2.133499    1.993021
     61          1           0      -12.719178   -1.531092    2.607772
     62          1           0      -13.527108   -2.558823    0.490585
     63          1           0      -11.856012   -3.012398   -0.118894
     64          1           0      -13.140944   -2.206872   -1.058034
     65          1           0        8.973397   -0.405936    0.788954
     66          1           0      -10.322900   -1.904533   -0.550170
     67          1           0       10.787540    1.437369   -2.323253
     68          1           0       12.040600    2.398624   -1.082907
     69          1           0       12.478214    1.705493   -2.874809
     70          1           0      -10.978877    2.574084   -1.926847
     71          1           0      -10.120847    1.150461   -2.144818
     72          1           0       -9.678491    2.413744   -0.847273
     73          1           0       14.756134   -2.967718    0.809088
     74          1           0      -15.070795    1.566480    2.080668
     75          1           0       10.228736    2.103932    0.122229
     76          1           0       -8.789026    0.549531   -0.256943
     77          1           0        8.877484    4.144878    0.645812
     78          1           0        7.358674    4.193211   -0.092382
     79          1           0        7.390569    3.781712    1.606606
     80          1           0       -8.440013   -3.153642   -0.242855
     81          1           0       -8.206700   -2.705201   -1.997556
     82          1           0       -6.737459   -3.244730   -0.876998
     83          1           0        6.843450    0.645273   -0.507048
     84          1           0       -6.529163    0.478753   -0.085181
     85          1           0        5.483438    3.045201    0.608711
     86          1           0       -5.094507   -2.198234   -0.775226
     87          1           0        4.582978    0.194100   -0.378926
     88          1           0       -4.104224    0.572210   -0.177629
     89          1           0        3.154157    3.285176    1.587641
     90          1           0        1.866151    3.355219    0.097585
     91          1           0        3.082460    3.804471   -0.371828
     92          1           0       -2.378555   -3.027516   -0.177189
     93          1           0       -3.170904   -2.750309   -1.816850
     94          1           0       -1.226187   -2.354074   -1.380173
     95          1           0        2.495442   -0.305261   -0.359162
     96          1           0       -1.905193    1.102605   -0.183245
     97          1           0        0.334127    1.843637    0.201387
     98          1           0        0.140909   -1.007654   -0.502806
 ---------------------------------------------------------------------

 SCF Done:  E(RCAM-B3LYP) =  -1706.86786500     A.U. after   16 cycles

 Excitation energies and oscillator strengths:

 Excited State   1:      Singlet-A      1.7812 eV  696.09 nm  f=3.6456  <S**2>=0.000
     155 ->158        -0.13063
     156 ->157         0.70081
     156 <-157        -0.12721
 This state for optimization and/or second-order correction.
 Total Energy, E(TD-HF/TD-DFT) =  -1706.80240871
 Copying the excited state density for this state as the 1-particle RhoCI density.

 The electronic state is 1-A.
 Alpha  occ. eigenvalues --  -19.22140 -19.21349 -10.30434 -10.29889 -10.29507
 Alpha  occ. eigenvalues --  -10.28614 -10.28078 -10.27953 -10.27790 -10.27608
 Alpha  occ. eigenvalues --  -10.27415 -10.27334 -10.27169 -10.27061 -10.26704
 Alpha  occ. eigenvalues --  -10.26665 -10.26654 -10.26549 -10.26538 -10.26516
 Alpha  occ. eigenvalues --  -10.26241 -10.26206 -10.26141 -10.26118 -10.26048
 Alpha  occ. eigenvalues --  -10.25997 -10.25862 -10.25848 -10.25699 -10.25492
 Alpha  occ. eigenvalues --  -10.25459 -10.25380 -10.25297 -10.25063 -10.24864
 Alpha  occ. eigenvalues --  -10.24850 -10.24798 -10.24624 -10.24592 -10.24466
 Alpha  occ. eigenvalues --  -10.23747 -10.23247  -1.08871  -1.06153  -0.94771
 Alpha  occ. eigenvalues --   -0.93384  -0.92337  -0.91232  -0.90059  -0.89413
 Alpha  occ. eigenvalues --   -0.88129  -0.87648  -0.87058  -0.84879  -0.84326
 Alpha  occ. eigenvalues --   -0.82974  -0.81813  -0.80070  -0.79369  -0.78705
 Alpha  occ. eigenvalues --   -0.77098  -0.77017  -0.76509  -0.76355  -0.76268
 Alpha  occ. eigenvalues --   -0.75832  -0.75067  -0.74439  -0.72473  -0.70655
 Alpha  occ. eigenvalues --   -0.68127  -0.67106  -0.65417  -0.64860  -0.64280
 Alpha  occ. eigenvalues --   -0.63653  -0.62501  -0.62306  -0.61308  -0.60639
 Alpha  occ. eigenvalues --   -0.59755  -0.58841  -0.58426  -0.56381  -0.56000
 Alpha  occ. eigenvalues --   -0.55405  -0.55180  -0.54348  -0.54169  -0.53637
 Alpha  occ. eigenvalues --   -0.53373  -0.52553  -0.52231  -0.51947  -0.51005
 Alpha  occ. eigenvalues --   -0.50487  -0.50296  -0.50101  -0.49525  -0.49475
 Alpha  occ. eigenvalues --   -0.49131  -0.48965  -0.48285  -0.48173  -0.47879
 Alpha  occ. eigenvalues --   -0.47672  -0.47523  -0.46960  -0.46816  -0.46526
 Alpha  occ. eigenvalues --   -0.46298  -0.46119  -0.45821  -0.45491  -0.45002
 Alpha  occ. eigenvalues --   -0.44864  -0.44660  -0.44177  -0.43790  -0.43589
 Alpha  occ. eigenvalues --   -0.43488  -0.43167  -0.42525  -0.42355  -0.42087
 Alpha  occ. eigenvalues --   -0.41775  -0.41391  -0.40944  -0.40783  -0.40754
 Alpha  occ. eigenvalues --   -0.40458  -0.40317  -0.40059  -0.39340  -0.39164
 Alpha  occ. eigenvalues --   -0.38951  -0.38855  -0.38733  -0.38270  -0.38049
 Alpha  occ. eigenvalues --   -0.37462  -0.37104  -0.37008  -0.36399  -0.36298
 Alpha  occ. eigenvalues --   -0.34794  -0.34522  -0.33499  -0.32252  -0.31518
 Alpha  occ. eigenvalues --   -0.30781  -0.30141  -0.28128  -0.24957  -0.22963
 Alpha  occ. eigenvalues --   -0.17874
 Alpha virt. eigenvalues --   -0.07127  -0.01212   0.01280   0.05567   0.06345
 Alpha virt. eigenvalues --    0.08054   0.09756   0.11095   0.11360   0.12131
 Alpha virt. eigenvalues --    0.12169   0.12567   0.12820   0.13055   0.13380

 Mulliken charges:
               1
     1  O   -0.565784
     2  O   -0.557776
     3  C   -0.045574
     4  C   -0.064132
     5  C   -0.201307
     6  C   -0.193116
     7  C    0.208819
     8  C    0.152766
     9  C    0.123472
    10  C    0.088591
    11  C   -0.201219
    12  C   -0.213837
    13  C    0.002170
    14  C    0.065423
    15  C   -0.281030
    16  C   -0.261961
    17  C   -0.282401
    18  C   -0.276048
    19  C   -0.138468
    20  C   -0.147714
    21  C   -0.345828
    22  C   -0.403127
    23  C   -0.090653
    24  C   -0.073907
    25  C    0.048301
    26  C    0.130419
    27  C   -0.348021
    28  C   -0.372229
    29  C   -0.101248
    30  C   -0.137278
    31  C   -0.104536
    32  C   -0.084076
    33  C   -0.111627
    34  C   -0.092733
    35  C    0.081211
    36  C    0.102177
    37  C   -0.345060
    38  C   -0.372530
    39  C   -0.106749
    40  C   -0.139043
    41  C   -0.068928
    42  C   -0.068311
    43  H    0.072173
    44  H    0.055391
    45  H    0.086201
    46  H    0.102461
    47  H    0.081880
    48  H    0.076349
    49  H    0.117185
    50  H    0.115892
    51  H    0.121743
    52  H    0.122241
    53  H    0.094391
    54  H    0.099238
    55  H    0.119842
    56  H    0.073497
    57  H    0.105276
    58  H    0.101760
    59  H    0.099137
    60  H    0.105140
    61  H    0.078034
    62  H    0.105833
    63  H    0.097507
    64  H    0.101184
    65  H    0.071992
    66  H    0.050045
    67  H    0.125729
    68  H    0.115621
    69  H    0.078620
    70  H    0.098427
    71  H    0.123939
    72  H    0.109419
    73  H    0.284033
    74  H    0.304290
    75  H    0.061913
    76  H    0.076103
    77  H    0.114295
    78  H    0.139010
    79  H    0.111598
    80  H    0.112090
    81  H    0.133706
    82  H    0.095751
    83  H    0.074524
    84  H    0.077750
    85  H    0.081812
    86  H    0.068447
    87  H    0.087811
    88  H    0.088430
    89  H    0.110331
    90  H    0.113007
    91  H    0.127793
    92  H    0.122815
    93  H    0.104989
    94  H    0.124365
    95  H    0.083854
    96  H    0.061360
    97  H    0.080579
    98  H    0.046097
 Sum of Mulliken charges =  -0.00000

 Dipole moment (field-independent basis, Debye):
    X=             -0.4836    Y=             -0.3632    Z=              2.1053  Tot=              2.1904
 Quadrupole moment (field-independent basis, Debye-Ang):
   XX=           -298.8795   YY=           -244.5654   ZZ=           -258.1290
   XY=             19.2452   XZ=              1.9363   YZ=             -2.5970

 Normal termination of Gaussian 16 at Wed Jul 10 15:37:03 2019.
