 Gaussian 16, Revision A.03,
 Gaussian 16:  ES64L-G16RevA.03 25-Dec-2016

 -------------------------------------
 # td=(NStates=1) CAM-B3LYP/6-31G(d,p)
 -------------------------------------

 --
 TD
 --
 Symbolic Z-matrix:
 Charge =  0 Multiplicity = 1

                         Standard orientation:
 ---------------------------------------------------------------------
 Center     Atomic      Atomic             Coordinates (Angstroms)
 Number     Number       Type             X           Y           Z
 ---------------------------------------------------------------------
      1          8           0       14.645686   -2.299739   -0.085063
      2          8           0      -14.757220    2.072615    1.086274
      3          6           0       11.093788   -1.511862    0.998623
      4          6           0      -12.464160   -0.994676    0.596111
      5          6           0       12.634321   -1.927532    1.071427
      6          6           0      -13.746592   -0.155299    0.668659
      7          6           0       13.320139   -1.840234   -0.347595
      8          6           0      -13.509037    1.213976    1.069164
      9          6           0       11.037371   -0.190224    0.087267
     10          6           0      -11.284788   -0.217130   -0.128879
     11          6           0       13.326695   -0.497258   -0.866432
     12          6           0      -12.681242    1.917708   -0.071216
     13          6           0       12.057907    0.300314   -0.693722
     14          6           0      -11.540549    1.097542   -0.500596
     15          6           0       10.643602   -1.245254    2.393328
     16          6           0       10.244061   -2.627107    0.358716
     17          6           0      -11.981623   -1.590977    1.990972
     18          6           0      -12.702982   -2.290693   -0.394814
     19          6           0        9.786851    0.466573    0.172750
     20          6           0      -10.075290   -0.968966   -0.304980
     21          6           0       11.878932    1.509514   -1.616418
     22          6           0      -10.482311    1.970771   -1.205467
     23          6           0        9.417522    1.749151    0.145158
     24          6           0       -8.807649   -0.445996   -0.244321
     25          6           0        8.038318    2.231545    0.146370
     26          6           0       -7.544766   -1.305459   -0.528710
     27          6           0        7.987707    3.761313    0.461204
     28          6           0       -7.592663   -2.683967   -0.903220
     29          6           0        6.952857    1.526562   -0.062140
     30          6           0       -6.388898   -0.538487   -0.488291
     31          6           0        5.605104    2.033373    0.111125
     32          6           0       -5.137193   -1.074293   -0.586486
     33          6           0        4.441554    1.222960   -0.141209
     34          6           0       -3.961728   -0.404630   -0.425547
     35          6           0        3.141193    1.623692   -0.050500
     36          6           0       -2.631291   -0.954863   -0.659339
     37          6           0        2.864613    3.010576    0.459748
     38          6           0       -2.281013   -2.257877   -1.117584
     39          6           0        2.125176    0.788621   -0.344287
     40          6           0       -1.583521    0.003890   -0.403431
     41          6           0        0.720721    0.833391   -0.138134
     42          6           0       -0.187407   -0.198694   -0.488882
     43          1           0       13.245653   -1.524613    2.013010
     44          1           0       12.605777   -2.853409    1.394450
     45          1           0      -14.485545   -0.637275    1.484001
     46          1           0      -14.067889   -0.148725   -0.473361
     47          1           0       12.698633   -2.526722   -0.915668
     48          1           0      -12.891445    1.261916    1.907670
     49          1           0       14.253648    0.088526   -0.288514
     50          1           0       13.469706   -0.439126   -1.987745
     51          1           0      -13.314959    2.201462   -1.003271
     52          1           0      -12.289294    2.889614    0.272958
     53          1           0       10.886247   -1.936545    3.238728
     54          1           0        9.500077   -1.128973    2.473997
     55          1           0       11.143331   -0.579447    2.874699
     56          1           0       10.487874   -2.774845   -0.657502
     57          1           0       10.290706   -3.609021    0.973786
     58          1           0        9.294891   -2.117275    0.583131
     59          1           0      -12.064754   -0.651827    2.715239
     60          1           0      -11.117343   -1.950248    1.995872
     61          1           0      -12.864093   -2.221689    2.407670
     62          1           0      -13.805443   -2.666979   -0.190104
     63          1           0      -12.014966   -3.059916    0.021568
     64          1           0      -12.558259   -2.107998   -1.486622
     65          1           0        8.958877   -0.255688    0.198371
     66          1           0      -10.103529   -2.221354   -0.376582
     67          1           0       10.873327    1.664709   -1.911347
     68          1           0       12.201299    2.288332   -1.080533
     69          1           0       12.195389    1.186000   -2.477646
     70          1           0      -11.024645    2.497627   -1.892896
     71          1           0       -9.822807    1.494991   -2.057725
     72          1           0       -9.772511    2.514836   -0.506703
     73          1           0       14.738555   -3.218422    0.392528
     74          1           0      -15.286176    1.550408    1.829561
     75          1           0       10.071202    2.471078    0.266414
     76          1           0       -8.619859    0.620717   -0.143418
     77          1           0        9.014302    4.233364    0.494213
     78          1           0        7.468253    4.261755   -0.231247
     79          1           0        7.606329    3.997785    1.346365
     80          1           0       -8.156884   -3.340502   -0.051920
     81          1           0       -8.307504   -3.049228   -1.737992
     82          1           0       -6.610581   -3.157443   -1.129259
     83          1           0        7.048348    0.485917   -0.111025
     84          1           0       -6.525632    0.561482    0.137265
     85          1           0        5.354889    3.103299    0.567308
     86          1           0       -4.869230   -2.102320   -0.857470
     87          1           0        4.684678    0.235884   -0.559197
     88          1           0       -3.871992    0.628089   -0.139019
     89          1           0        3.044027    3.154520    1.645858
     90          1           0        1.846914    3.046344    0.123746
     91          1           0        3.497692    3.981999    0.174058
     92          1           0       -3.181553   -3.054422   -0.781726
     93          1           0       -2.148794   -2.408488   -2.465024
     94          1           0       -1.318914   -2.344812   -0.689096
     95          1           0        2.500815   -0.210300   -0.784866
     96          1           0       -1.861738    0.961109    0.113790
     97          1           0        0.188212    1.888223   -0.050727
     98          1           0        0.276599   -1.195365   -0.728285
 ---------------------------------------------------------------------

 SCF Done:  E(RCAM-B3LYP) =  -1706.87216207     A.U. after   15 cycles

 Excitation energies and oscillator strengths:

 Excited State   1:      Singlet-A      2.1634 eV  573.09 nm  f=3.7082  <S**2>=0.000
     155 ->158         0.14812
     156 ->157         0.69123
 This state for optimization and/or second-order correction.
 Total Energy, E(TD-HF/TD-DFT) =  -1706.79265732
 Copying the excited state density for this state as the 1-particle RhoCI density.

 The electronic state is 1-A.
 Alpha  occ. eigenvalues --  -19.22073 -19.21132 -10.30678 -10.30127 -10.28671
 Alpha  occ. eigenvalues --  -10.28519 -10.28151 -10.27931 -10.27736 -10.27704
 Alpha  occ. eigenvalues --  -10.27693 -10.27598 -10.27527 -10.27402 -10.27354
 Alpha  occ. eigenvalues --  -10.27204 -10.27052 -10.26830 -10.26823 -10.26797
 Alpha  occ. eigenvalues --  -10.26736 -10.26625 -10.26575 -10.26507 -10.26494
 Alpha  occ. eigenvalues --  -10.26464 -10.26134 -10.25861 -10.25838 -10.25822
 Alpha  occ. eigenvalues --  -10.25697 -10.25678 -10.25318 -10.25267 -10.25194
 Alpha  occ. eigenvalues --  -10.25191 -10.24612 -10.24374 -10.24172 -10.23667
 Alpha  occ. eigenvalues --  -10.23547 -10.22852  -1.07671  -1.05920  -0.93394
 Alpha  occ. eigenvalues --   -0.92982  -0.92297  -0.91850  -0.90611  -0.90150
 Alpha  occ. eigenvalues --   -0.87937  -0.86805  -0.86135  -0.85690  -0.85058
 Alpha  occ. eigenvalues --   -0.83223  -0.82137  -0.80859  -0.80049  -0.77850
 Alpha  occ. eigenvalues --   -0.77566  -0.77184  -0.76588  -0.76360  -0.76010
 Alpha  occ. eigenvalues --   -0.75748  -0.75421  -0.74406  -0.73043  -0.70646
 Alpha  occ. eigenvalues --   -0.69345  -0.67540  -0.65723  -0.65070  -0.64089
 Alpha  occ. eigenvalues --   -0.63418  -0.62220  -0.60766  -0.59919  -0.59397
 Alpha  occ. eigenvalues --   -0.59179  -0.58702  -0.57967  -0.57320  -0.56082
 Alpha  occ. eigenvalues --   -0.55613  -0.55189  -0.54949  -0.54707  -0.54015
 Alpha  occ. eigenvalues --   -0.53585  -0.53217  -0.52763  -0.52452  -0.51542
 Alpha  occ. eigenvalues --   -0.51090  -0.50600  -0.50214  -0.49512  -0.49307
 Alpha  occ. eigenvalues --   -0.49205  -0.48581  -0.47854  -0.47651  -0.47586
 Alpha  occ. eigenvalues --   -0.46862  -0.46689  -0.46594  -0.46284  -0.46014
 Alpha  occ. eigenvalues --   -0.45505  -0.45388  -0.44987  -0.44828  -0.44672
 Alpha  occ. eigenvalues --   -0.44407  -0.44205  -0.43767  -0.43531  -0.43300
 Alpha  occ. eigenvalues --   -0.43249  -0.42690  -0.42502  -0.42372  -0.41974
 Alpha  occ. eigenvalues --   -0.41756  -0.41611  -0.41465  -0.41170  -0.40596
 Alpha  occ. eigenvalues --   -0.40557  -0.40270  -0.39899  -0.39654  -0.39184
 Alpha  occ. eigenvalues --   -0.38929  -0.38387  -0.38296  -0.38189  -0.37637
 Alpha  occ. eigenvalues --   -0.37545  -0.37405  -0.37060  -0.36421  -0.35739
 Alpha  occ. eigenvalues --   -0.35408  -0.34672  -0.33722  -0.33088  -0.32424
 Alpha  occ. eigenvalues --   -0.30662  -0.29981  -0.27904  -0.25868  -0.23322
 Alpha  occ. eigenvalues --   -0.19227
 Alpha virt. eigenvalues --   -0.05894  -0.00929   0.01866   0.05035   0.06827
 Alpha virt. eigenvalues --    0.09680   0.10160   0.10865   0.10990   0.11443
 Alpha virt. eigenvalues --    0.11733   0.12238   0.12353   0.12579   0.12844

 Mulliken charges:
               1
     1  O   -0.584560
     2  O   -0.559272
     3  C   -0.037899
     4  C   -0.022381
     5  C   -0.197761
     6  C   -0.180588
     7  C    0.202073
     8  C    0.154371
     9  C    0.078018
    10  C    0.086655
    11  C   -0.199908
    12  C   -0.232516
    13  C   -0.008594
    14  C    0.025339
    15  C   -0.293885
    16  C   -0.283002
    17  C   -0.283715
    18  C   -0.308412
    19  C   -0.101947
    20  C   -0.134086
    21  C   -0.334285
    22  C   -0.365167
    23  C   -0.084432
    24  C   -0.088969
    25  C    0.086909
    26  C    0.147819
    27  C   -0.380316
    28  C   -0.392631
    29  C   -0.126806
    30  C   -0.134429
    31  C   -0.098721
    32  C   -0.080369
    33  C   -0.133811
    34  C   -0.093700
    35  C    0.165013
    36  C    0.119904
    37  C   -0.358832
    38  C   -0.339666
    39  C   -0.150442
    40  C   -0.143004
    41  C   -0.107950
    42  C   -0.086611
    43  H    0.072929
    44  H    0.085549
    45  H    0.064581
    46  H    0.107057
    47  H    0.084079
    48  H    0.102245
    49  H    0.106863
    50  H    0.099181
    51  H    0.115075
    52  H    0.119263
    53  H    0.085134
    54  H    0.087507
    55  H    0.119041
    56  H    0.110235
    57  H    0.094720
    58  H    0.101662
    59  H    0.076346
    60  H    0.118424
    61  H    0.093074
    62  H    0.084383
    63  H    0.100726
    64  H    0.114423
    65  H    0.072497
    66  H    0.068746
    67  H    0.125821
    68  H    0.136433
    69  H    0.109898
    70  H    0.115626
    71  H    0.099453
    72  H    0.117225
    73  H    0.312933
    74  H    0.296213
    75  H    0.062891
    76  H    0.089485
    77  H    0.092693
    78  H    0.131280
    79  H    0.133317
    80  H    0.101890
    81  H    0.122547
    82  H    0.120893
    83  H    0.082419
    84  H    0.074910
    85  H    0.078051
    86  H    0.070767
    87  H    0.073491
    88  H    0.074021
    89  H    0.103888
    90  H    0.107553
    91  H    0.104754
    92  H    0.090584
    93  H    0.078061
    94  H    0.130193
    95  H    0.074852
    96  H    0.089159
    97  H    0.085218
    98  H    0.092308
 Sum of Mulliken charges =  -0.00000

 Dipole moment (field-independent basis, Debye):
    X=              0.9689    Y=             -2.3530    Z=              1.4238  Tot=              2.9159
 Quadrupole moment (field-independent basis, Debye-Ang):
   XX=           -275.3664   YY=           -244.7246   ZZ=           -259.2083
   XY=             12.2787   XZ=             -4.1769   YZ=              1.3458

 Normal termination of Gaussian 16 at Mon Jul 15 23:34:53 2019.
