 Gaussian 16, Revision A.03,
 Gaussian 16:  ES64L-G16RevA.03 25-Dec-2016

 -------------------------------------
 # td=(NStates=1) CAM-B3LYP/6-31G(d,p)
 -------------------------------------

 --
 TD
 --
 Symbolic Z-matrix:
 Charge =  0 Multiplicity = 1

                         Standard orientation:
 ---------------------------------------------------------------------
 Center     Atomic      Atomic             Coordinates (Angstroms)
 Number     Number       Type             X           Y           Z
 ---------------------------------------------------------------------
      1          8           0       14.661389   -2.461635   -0.321481
      2          8           0      -14.740305    1.815476    0.980313
      3          6           0       11.190852   -1.448418    1.034798
      4          6           0      -12.417840   -1.093421    0.727754
      5          6           0       12.714412   -1.828132    1.063987
      6          6           0      -13.731984   -0.353153    0.704853
      7          6           0       13.374380   -1.979076   -0.368339
      8          6           0      -13.504822    1.184744    0.940857
      9          6           0       10.910612   -0.318926   -0.036342
     10          6           0      -11.325594   -0.237877   -0.168308
     11          6           0       13.187453   -0.654082   -0.982660
     12          6           0      -12.752672    1.854564   -0.289967
     13          6           0       11.818035    0.000622   -0.966730
     14          6           0      -11.513507    1.050630   -0.617544
     15          6           0       10.801700   -0.993864    2.563125
     16          6           0       10.315079   -2.597016    0.585760
     17          6           0      -11.900376   -1.392313    2.037634
     18          6           0      -12.715455   -2.416494   -0.050020
     19          6           0        9.654946    0.350089    0.213378
     20          6           0      -10.046462   -1.014592   -0.388821
     21          6           0       11.642006    1.167185   -1.943028
     22          6           0      -10.656966    1.792691   -1.536442
     23          6           0        9.413332    1.672013    0.109219
     24          6           0       -8.765906   -0.569080   -0.315911
     25          6           0        8.111736    2.288668    0.244875
     26          6           0       -7.566570   -1.285916   -0.484314
     27          6           0        7.985948    3.762382    0.487350
     28          6           0       -7.716046   -2.615187   -0.947847
     29          6           0        6.984822    1.582560    0.045083
     30          6           0       -6.385015   -0.726302   -0.233900
     31          6           0        5.644459    1.979779    0.232779
     32          6           0       -5.080731   -1.029453   -0.576035
     33          6           0        4.557435    1.255611   -0.111945
     34          6           0       -3.953456   -0.298967   -0.269484
     35          6           0        3.225744    1.735945    0.070408
     36          6           0       -2.587889   -0.636737   -0.677572
     37          6           0        2.894406    3.130252    0.727821
     38          6           0       -2.188138   -1.936322   -1.096621
     39          6           0        2.172861    0.794439   -0.243864
     40          6           0       -1.586565    0.335344   -0.333122
     41          6           0        0.801772    1.164819   -0.093196
     42          6           0       -0.158367    0.224632   -0.428979
     43          1           0       13.347972   -0.859619    1.509399
     44          1           0       12.911563   -2.673593    1.702623
     45          1           0      -14.753105   -0.709751    1.366866
     46          1           0      -14.217264   -0.432606   -0.320401
     47          1           0       12.736535   -2.490093   -0.956366
     48          1           0      -12.901706    1.187546    1.712994
     49          1           0       13.848565   -0.116016   -0.540096
     50          1           0       13.384326   -0.706135   -2.111796
     51          1           0      -13.685545    1.649752   -1.164472
     52          1           0      -12.531775    2.866143   -0.115144
     53          1           0       11.107582   -1.868486    3.250649
     54          1           0        9.797217   -0.623063    2.742752
     55          1           0       11.405546   -0.173602    2.919310
     56          1           0       10.346968   -2.768788   -0.507507
     57          1           0       10.750770   -3.646404    0.974788
     58          1           0        9.205354   -2.548432    0.694261
     59          1           0      -11.548456   -0.284410    2.422069
     60          1           0      -11.205704   -2.280109    1.801730
     61          1           0      -12.802186   -1.647832    2.917936
     62          1           0      -13.567395   -2.938581    0.356250
     63          1           0      -11.847847   -3.029957    0.157243
     64          1           0      -12.981141   -2.404742   -1.176467
     65          1           0        8.924640   -0.319742    0.327566
     66          1           0      -10.193192   -2.148598   -0.725758
     67          1           0       10.522826    1.058053   -2.089051
     68          1           0       12.128321    2.118929   -1.569976
     69          1           0       12.177773    0.896776   -2.939301
     70          1           0      -11.432793    2.196670   -2.395438
     71          1           0       -9.862847    1.270295   -1.981897
     72          1           0      -10.180865    2.432474   -0.837192
     73          1           0       14.901377   -3.223193    0.586893
     74          1           0      -15.379238    1.476875    1.527675
     75          1           0       10.255017    2.354688    0.111188
     76          1           0       -8.830798    0.421428    0.304490
     77          1           0        9.066067    3.842997    0.694286
     78          1           0        7.606826    4.382155   -0.400388
     79          1           0        7.395748    3.902286    1.268552
     80          1           0       -8.329810   -3.184605   -0.292693
     81          1           0       -8.221901   -2.748676   -2.023334
     82          1           0       -6.556164   -3.194734   -1.029874
     83          1           0        7.090068    0.568638   -0.394153
     84          1           0       -6.402163    0.262027    0.189985
     85          1           0        5.561075    2.925886    0.795369
     86          1           0       -4.636467   -2.171287   -0.964896
     87          1           0        4.646848    0.374926   -0.432239
     88          1           0       -4.192287    0.646088    0.224537
     89          1           0        3.351459    3.046082    1.633017
     90          1           0        1.848535    3.237263    0.802426
     91          1           0        3.144057    3.959683    0.046342
     92          1           0       -3.025182   -2.572459   -0.661298
     93          1           0       -2.517288   -2.150482   -2.188339
     94          1           0       -1.243302   -2.150337   -0.786185
     95          1           0        2.349624   -0.013706   -0.755018
     96          1           0       -1.967669    1.403038   -0.066549
     97          1           0        0.539072    2.054920    0.072431
     98          1           0        0.207910   -0.696133   -0.730613
 ---------------------------------------------------------------------

 SCF Done:  E(RCAM-B3LYP) =  -1706.84101443     A.U. after   15 cycles

 Excitation energies and oscillator strengths:

 Excited State   1:      Singlet-A      2.2585 eV  548.97 nm  f=3.7662  <S**2>=0.000
     155 ->158         0.16052
     156 ->157         0.68726
 This state for optimization and/or second-order correction.
 Total Energy, E(TD-HF/TD-DFT) =  -1706.75801666
 Copying the excited state density for this state as the 1-particle RhoCI density.

 The electronic state is 1-A.
 Alpha  occ. eigenvalues --  -19.22779 -19.20278 -10.29402 -10.28737 -10.28588
 Alpha  occ. eigenvalues --  -10.28122 -10.27958 -10.27708 -10.27615 -10.27507
 Alpha  occ. eigenvalues --  -10.27292 -10.27218 -10.27127 -10.26859 -10.26829
 Alpha  occ. eigenvalues --  -10.26762 -10.26621 -10.26612 -10.26365 -10.26288
 Alpha  occ. eigenvalues --  -10.26259 -10.26240 -10.26234 -10.26189 -10.26026
 Alpha  occ. eigenvalues --  -10.25916 -10.25874 -10.25826 -10.25644 -10.25581
 Alpha  occ. eigenvalues --  -10.25542 -10.25350 -10.25331 -10.25291 -10.25177
 Alpha  occ. eigenvalues --  -10.24993 -10.24847 -10.24846 -10.24741 -10.24739
 Alpha  occ. eigenvalues --  -10.24725 -10.23448  -1.10724  -1.07737  -0.93369
 Alpha  occ. eigenvalues --   -0.93353  -0.92506  -0.92098  -0.91312  -0.90368
 Alpha  occ. eigenvalues --   -0.88135  -0.87756  -0.86161  -0.85759  -0.85151
 Alpha  occ. eigenvalues --   -0.83127  -0.82474  -0.80401  -0.80331  -0.78774
 Alpha  occ. eigenvalues --   -0.77368  -0.76650  -0.75995  -0.75492  -0.75365
 Alpha  occ. eigenvalues --   -0.75080  -0.74617  -0.74575  -0.73362  -0.70703
 Alpha  occ. eigenvalues --   -0.69441  -0.68226  -0.66377  -0.65824  -0.65305
 Alpha  occ. eigenvalues --   -0.63196  -0.62874  -0.62074  -0.60925  -0.60429
 Alpha  occ. eigenvalues --   -0.59555  -0.59049  -0.58701  -0.57849  -0.56523
 Alpha  occ. eigenvalues --   -0.55962  -0.55125  -0.54882  -0.54745  -0.54517
 Alpha  occ. eigenvalues --   -0.53615  -0.52929  -0.52440  -0.51786  -0.51156
 Alpha  occ. eigenvalues --   -0.50926  -0.50871  -0.50502  -0.50209  -0.49746
 Alpha  occ. eigenvalues --   -0.49485  -0.49134  -0.48857  -0.48508  -0.48043
 Alpha  occ. eigenvalues --   -0.47862  -0.47741  -0.47583  -0.46963  -0.46036
 Alpha  occ. eigenvalues --   -0.45803  -0.45510  -0.45336  -0.45266  -0.44977
 Alpha  occ. eigenvalues --   -0.44464  -0.44277  -0.44111  -0.43998  -0.43471
 Alpha  occ. eigenvalues --   -0.43398  -0.42778  -0.42436  -0.42068  -0.41408
 Alpha  occ. eigenvalues --   -0.41002  -0.40873  -0.40846  -0.40686  -0.40543
 Alpha  occ. eigenvalues --   -0.40229  -0.40021  -0.39975  -0.39644  -0.39076
 Alpha  occ. eigenvalues --   -0.38968  -0.38804  -0.38754  -0.37971  -0.37961
 Alpha  occ. eigenvalues --   -0.37486  -0.37012  -0.36732  -0.35567  -0.35385
 Alpha  occ. eigenvalues --   -0.34551  -0.34033  -0.33789  -0.31917  -0.31546
 Alpha  occ. eigenvalues --   -0.31278  -0.29724  -0.28395  -0.26390  -0.23619
 Alpha  occ. eigenvalues --   -0.19616
 Alpha virt. eigenvalues --   -0.05662  -0.01347   0.02285   0.05542   0.05683
 Alpha virt. eigenvalues --    0.07642   0.09672   0.10835   0.11240   0.11860
 Alpha virt. eigenvalues --    0.12471   0.12829   0.13017   0.13354   0.13831

 Mulliken charges:
               1
     1  O   -0.578980
     2  O   -0.554361
     3  C    0.008554
     4  C   -0.008858
     5  C   -0.213605
     6  C   -0.187026
     7  C    0.230932
     8  C    0.193606
     9  C    0.053134
    10  C    0.033715
    11  C   -0.204082
    12  C   -0.201132
    13  C    0.004437
    14  C    0.041942
    15  C   -0.312976
    16  C   -0.305157
    17  C   -0.252628
    18  C   -0.305826
    19  C   -0.088935
    20  C   -0.143048
    21  C   -0.348212
    22  C   -0.339219
    23  C   -0.105846
    24  C   -0.112703
    25  C    0.049799
    26  C    0.180144
    27  C   -0.346400
    28  C   -0.381251
    29  C   -0.100448
    30  C   -0.143781
    31  C   -0.094050
    32  C   -0.064668
    33  C   -0.054683
    34  C   -0.103320
    35  C    0.043088
    36  C    0.116414
    37  C   -0.356912
    38  C   -0.378023
    39  C   -0.113000
    40  C   -0.133415
    41  C   -0.032088
    42  C   -0.101204
    43  H    0.069405
    44  H    0.074680
    45  H    0.043999
    46  H    0.092114
    47  H    0.079790
    48  H    0.081464
    49  H    0.115966
    50  H    0.083759
    51  H    0.089900
    52  H    0.117505
    53  H    0.089900
    54  H    0.110586
    55  H    0.108615
    56  H    0.110144
    57  H    0.076503
    58  H    0.108843
    59  H    0.092281
    60  H    0.105161
    61  H    0.071036
    62  H    0.105876
    63  H    0.085786
    64  H    0.102974
    65  H    0.082212
    66  H    0.075701
    67  H    0.129955
    68  H    0.119606
    69  H    0.089066
    70  H    0.098307
    71  H    0.124647
    72  H    0.125900
    73  H    0.310238
    74  H    0.292791
    75  H    0.086117
    76  H    0.076608
    77  H    0.098240
    78  H    0.120720
    79  H    0.132204
    80  H    0.130517
    81  H    0.107443
    82  H    0.072797
    83  H    0.066827
    84  H    0.078225
    85  H    0.073424
    86  H    0.039231
    87  H    0.058480
    88  H    0.082509
    89  H    0.138124
    90  H    0.113631
    91  H    0.124570
    92  H    0.112206
    93  H    0.123203
    94  H    0.128286
    95  H    0.077793
    96  H    0.072262
    97  H    0.062900
    98  H    0.069052
 Sum of Mulliken charges =  -0.00000

 Dipole moment (field-independent basis, Debye):
    X=             -0.1510    Y=             -0.7926    Z=              1.8848  Tot=              2.0502
 Quadrupole moment (field-independent basis, Debye-Ang):
   XX=           -266.9211   YY=           -248.5712   ZZ=           -262.5781
   XY=              8.8146   XZ=              6.6503   YZ=              1.5212

 Normal termination of Gaussian 16 at Sat Jul 13 04:21:21 2019.
