 Gaussian 16, Revision A.03,
 Gaussian 16:  ES64L-G16RevA.03 25-Dec-2016

 -------------------------------------
 # td=(NStates=1) CAM-B3LYP/6-31G(d,p)
 -------------------------------------

 --
 TD
 --
 Symbolic Z-matrix:
 Charge =  0 Multiplicity = 1

                         Standard orientation:
 ---------------------------------------------------------------------
 Center     Atomic      Atomic             Coordinates (Angstroms)
 Number     Number       Type             X           Y           Z
 ---------------------------------------------------------------------
      1          8           0       14.547839   -2.342100   -0.637575
      2          8           0      -14.831050    2.034870    0.571566
      3          6           0       11.186770   -1.439101    0.826931
      4          6           0      -12.330835   -0.976049    0.425361
      5          6           0       12.671328   -1.702307    0.802406
      6          6           0      -13.684789   -0.219836    0.438357
      7          6           0       13.161574   -1.878563   -0.553817
      8          6           0      -13.565212    1.341930    0.641633
      9          6           0       10.884097   -0.312304   -0.012677
     10          6           0      -11.283775   -0.218235   -0.327662
     11          6           0       13.085126   -0.532617   -1.227146
     12          6           0      -12.793592    1.789987   -0.519640
     13          6           0       11.768268    0.158465   -1.001648
     14          6           0      -11.412909    1.066971   -0.735667
     15          6           0       10.933620   -1.190392    2.422331
     16          6           0       10.349213   -2.611206    0.348722
     17          6           0      -11.888963   -1.288931    1.880503
     18          6           0      -12.661614   -2.280988   -0.264077
     19          6           0        9.536402    0.385640    0.196138
     20          6           0      -10.013533   -1.022431   -0.609994
     21          6           0       11.423086    1.126938   -2.110622
     22          6           0      -10.446666    1.796365   -1.543729
     23          6           0        9.316440    1.646468    0.205522
     24          6           0       -8.709798   -0.557087   -0.251334
     25          6           0        8.056089    2.314141    0.261238
     26          6           0       -7.478225   -1.400367   -0.347927
     27          6           0        8.071378    3.776785    0.349629
     28          6           0       -7.537956   -2.815778   -0.738989
     29          6           0        6.838076    1.519472    0.286284
     30          6           0       -6.389385   -0.713203   -0.145893
     31          6           0        5.596224    2.263398    0.418027
     32          6           0       -5.034975   -1.228155   -0.111966
     33          6           0        4.505767    1.479587    0.160278
     34          6           0       -3.933859   -0.505130   -0.031400
     35          6           0        3.124943    1.764748    0.234417
     36          6           0       -2.491381   -0.817904   -0.083371
     37          6           0        2.785691    3.270126    0.585481
     38          6           0       -2.081735   -2.366683   -0.374687
     39          6           0        2.186415    0.794526   -0.013789
     40          6           0       -1.454479    0.120176    0.069933
     41          6           0        0.760226    0.890791    0.155197
     42          6           0       -0.111801   -0.076127   -0.073222
     43          1           0       13.361124   -0.935801    1.383080
     44          1           0       12.962502   -2.684355    1.464624
     45          1           0      -14.497082   -0.521013    1.266370
     46          1           0      -14.394466   -0.298559   -0.410968
     47          1           0       12.447454   -2.558177   -1.049029
     48          1           0      -13.028725    1.797854    1.606810
     49          1           0       13.836805    0.082153   -0.831537
     50          1           0       13.117771   -0.707055   -2.283210
     51          1           0      -13.317232    1.798505   -1.638854
     52          1           0      -12.551808    2.746851   -0.255415
     53          1           0       11.244184   -2.190402    2.762676
     54          1           0        9.796552   -1.125935    2.649401
     55          1           0       11.534848   -0.345531    2.808348
     56          1           0       10.468211   -2.697131   -0.837472
     57          1           0       10.600796   -3.595392    0.842228
     58          1           0        9.211641   -2.343279    0.579441
     59          1           0      -11.860348   -0.361756    2.557980
     60          1           0      -10.748666   -1.540862    1.808937
     61          1           0      -12.509550   -2.155323    2.385629
     62          1           0      -13.515600   -2.735712    0.286082
     63          1           0      -11.896397   -3.034193   -0.308765
     64          1           0      -12.970401   -2.303125   -1.331049
     65          1           0        8.530049   -0.143226    0.672671
     66          1           0      -10.215263   -2.073319   -0.953223
     67          1           0       10.200416    1.576295   -1.838092
     68          1           0       11.946431    2.138871   -1.862885
     69          1           0       11.802352    0.905893   -3.075078
     70          1           0      -10.793506    2.074150   -2.515871
     71          1           0       -9.302324    1.278884   -1.629098
     72          1           0      -10.136927    2.688955   -0.768212
     73          1           0       14.605112   -2.986886   -0.045034
     74          1           0      -15.435637    1.607985    1.159514
     75          1           0       10.092392    2.373851   -0.101751
     76          1           0       -8.761995    0.402705    0.104424
     77          1           0        9.068321    4.155726    0.571559
     78          1           0        7.683689    4.263377   -0.530068
     79          1           0        7.305934    4.260630    1.175701
     80          1           0       -8.162127   -3.576979   -0.162712
     81          1           0       -8.093781   -2.759782   -1.734819
     82          1           0       -6.491393   -3.226979   -0.715701
     83          1           0        7.084953    0.586298   -0.126020
     84          1           0       -6.496815    0.288591    0.099943
     85          1           0        5.410088    3.109354    0.849735
     86          1           0       -4.986402   -2.333900   -0.441355
     87          1           0        4.700387    0.425104   -0.199467
     88          1           0       -4.012553    0.591410    0.213179
     89          1           0        3.263987    3.488762    1.480039
     90          1           0        1.682047    3.388536    0.531019
     91          1           0        3.367481    3.941435    0.083025
     92          1           0       -2.562329   -2.813430    0.520277
     93          1           0       -2.293543   -2.833359   -1.092100
     94          1           0       -0.891736   -2.559391   -0.235775
     95          1           0        2.556563   -0.205227   -0.235776
     96          1           0       -1.891922    1.077923   -0.034162
     97          1           0        0.294515    1.993954    0.308387
     98          1           0        0.296122   -1.058846   -0.174280
 ---------------------------------------------------------------------

 SCF Done:  E(RCAM-B3LYP) =  -1706.91354609     A.U. after   14 cycles

 Excitation energies and oscillator strengths:

 Excited State   1:      Singlet-A      2.5239 eV  491.24 nm  f=3.3617  <S**2>=0.000
     155 ->158        -0.17666
     156 ->157         0.67861
 This state for optimization and/or second-order correction.
 Total Energy, E(TD-HF/TD-DFT) =  -1706.82079474
 Copying the excited state density for this state as the 1-particle RhoCI density.

 The electronic state is 1-A.
 Alpha  occ. eigenvalues --  -19.20858 -19.20257 -10.31192 -10.29766 -10.28777
 Alpha  occ. eigenvalues --  -10.28115 -10.27545 -10.27475 -10.27447 -10.27336
 Alpha  occ. eigenvalues --  -10.27219 -10.27145 -10.27128 -10.27091 -10.26951
 Alpha  occ. eigenvalues --  -10.26922 -10.26917 -10.26886 -10.26870 -10.26831
 Alpha  occ. eigenvalues --  -10.26796 -10.26715 -10.26583 -10.26569 -10.26522
 Alpha  occ. eigenvalues --  -10.26513 -10.26492 -10.26300 -10.26110 -10.25990
 Alpha  occ. eigenvalues --  -10.25927 -10.25909 -10.25768 -10.25729 -10.25359
 Alpha  occ. eigenvalues --  -10.25210 -10.24976 -10.24935 -10.24898 -10.24806
 Alpha  occ. eigenvalues --  -10.24680 -10.24358  -1.10188  -1.09054  -0.95043
 Alpha  occ. eigenvalues --   -0.93529  -0.92373  -0.92106  -0.91379  -0.90041
 Alpha  occ. eigenvalues --   -0.87615  -0.87154  -0.87070  -0.85770  -0.84642
 Alpha  occ. eigenvalues --   -0.83660  -0.82199  -0.80799  -0.79788  -0.78971
 Alpha  occ. eigenvalues --   -0.77393  -0.76654  -0.76188  -0.75886  -0.75610
 Alpha  occ. eigenvalues --   -0.75087  -0.74793  -0.74744  -0.74214  -0.70934
 Alpha  occ. eigenvalues --   -0.68555  -0.67356  -0.65650  -0.65030  -0.64171
 Alpha  occ. eigenvalues --   -0.64065  -0.63281  -0.62178  -0.61297  -0.60297
 Alpha  occ. eigenvalues --   -0.59866  -0.59361  -0.57991  -0.56877  -0.56493
 Alpha  occ. eigenvalues --   -0.56033  -0.55837  -0.55269  -0.54508  -0.54156
 Alpha  occ. eigenvalues --   -0.53122  -0.52554  -0.51880  -0.51851  -0.51052
 Alpha  occ. eigenvalues --   -0.50740  -0.50140  -0.49794  -0.49535  -0.49132
 Alpha  occ. eigenvalues --   -0.49008  -0.48672  -0.48404  -0.47921  -0.47890
 Alpha  occ. eigenvalues --   -0.47685  -0.47582  -0.46975  -0.46855  -0.46435
 Alpha  occ. eigenvalues --   -0.45921  -0.45749  -0.45570  -0.44975  -0.44889
 Alpha  occ. eigenvalues --   -0.44660  -0.44353  -0.44104  -0.43744  -0.43701
 Alpha  occ. eigenvalues --   -0.43151  -0.43004  -0.42850  -0.42665  -0.42543
 Alpha  occ. eigenvalues --   -0.42000  -0.41903  -0.41231  -0.40981  -0.40492
 Alpha  occ. eigenvalues --   -0.40447  -0.40191  -0.39832  -0.39758  -0.39093
 Alpha  occ. eigenvalues --   -0.38970  -0.38872  -0.38626  -0.38175  -0.38157
 Alpha  occ. eigenvalues --   -0.37474  -0.37295  -0.36929  -0.36239  -0.35436
 Alpha  occ. eigenvalues --   -0.35276  -0.34785  -0.34029  -0.32589  -0.32319
 Alpha  occ. eigenvalues --   -0.32021  -0.29800  -0.27992  -0.26361  -0.23848
 Alpha  occ. eigenvalues --   -0.20450
 Alpha virt. eigenvalues --   -0.04908  -0.00855   0.02443   0.05441   0.07461
 Alpha virt. eigenvalues --    0.08872   0.11084   0.11332   0.11874   0.12073
 Alpha virt. eigenvalues --    0.12552   0.12910   0.12926   0.13167   0.13803

 Mulliken charges:
               1
     1  O   -0.551729
     2  O   -0.560058
     3  C   -0.035303
     4  C    0.013939
     5  C   -0.187692
     6  C   -0.201584
     7  C    0.157101
     8  C    0.153442
     9  C    0.074181
    10  C    0.059100
    11  C   -0.202632
    12  C   -0.173133
    13  C    0.046580
    14  C    0.032897
    15  C   -0.290275
    16  C   -0.290580
    17  C   -0.295225
    18  C   -0.316144
    19  C   -0.130749
    20  C   -0.147958
    21  C   -0.361332
    22  C   -0.349813
    23  C   -0.083404
    24  C   -0.105257
    25  C    0.085004
    26  C    0.130629
    27  C   -0.382015
    28  C   -0.371580
    29  C   -0.134729
    30  C   -0.099033
    31  C   -0.056229
    32  C   -0.097746
    33  C   -0.119528
    34  C   -0.103351
    35  C    0.119316
    36  C    0.058977
    37  C   -0.373314
    38  C   -0.339483
    39  C   -0.149535
    40  C   -0.127498
    41  C   -0.076864
    42  C   -0.047599
    43  H    0.092959
    44  H    0.048123
    45  H    0.051314
    46  H    0.114343
    47  H    0.082401
    48  H    0.072332
    49  H    0.128946
    50  H    0.111303
    51  H    0.095766
    52  H    0.108635
    53  H    0.101937
    54  H    0.090186
    55  H    0.114395
    56  H    0.100351
    57  H    0.102027
    58  H    0.098009
    59  H    0.098849
    60  H    0.102446
    61  H    0.093778
    62  H    0.098805
    63  H    0.099986
    64  H    0.105381
    65  H    0.077460
    66  H    0.085071
    67  H    0.091743
    68  H    0.102785
    69  H    0.123276
    70  H    0.125508
    71  H    0.095635
    72  H    0.090838
    73  H    0.288251
    74  H    0.300313
    75  H    0.077475
    76  H    0.095636
    77  H    0.112433
    78  H    0.136412
    79  H    0.094284
    80  H    0.119034
    81  H    0.123539
    82  H    0.107497
    83  H    0.107231
    84  H    0.078949
    85  H    0.071068
    86  H    0.074353
    87  H    0.071543
    88  H    0.072565
    89  H    0.125589
    90  H    0.110628
    91  H    0.126292
    92  H    0.114456
    93  H    0.123215
    94  H    0.076596
    95  H    0.081939
    96  H    0.083813
    97  H    0.068196
    98  H    0.084313
 Sum of Mulliken charges =  -0.00000

 Dipole moment (field-independent basis, Debye):
    X=             -0.5783    Y=             -1.2320    Z=              1.1042  Tot=              1.7526
 Quadrupole moment (field-independent basis, Debye-Ang):
   XX=           -279.5717   YY=           -245.5301   ZZ=           -264.8053
   XY=             22.5039   XZ=              3.8881   YZ=              1.2075

 Normal termination of Gaussian 16 at Sat Jul 20 03:41:23 2019.
