 Gaussian 16, Revision A.03,
 Gaussian 16:  ES64L-G16RevA.03 25-Dec-2016

 -------------------------------------
 # td=(NStates=1) CAM-B3LYP/6-31G(d,p)
 -------------------------------------

 --
 TD
 --
 Symbolic Z-matrix:
 Charge =  0 Multiplicity = 1

                         Standard orientation:
 ---------------------------------------------------------------------
 Center     Atomic      Atomic             Coordinates (Angstroms)
 Number     Number       Type             X           Y           Z
 ---------------------------------------------------------------------
      1          8           0       14.868359   -1.957120   -0.120246
      2          8           0      -14.672380    1.890264    1.458339
      3          6           0       11.261136   -1.526715    1.082628
      4          6           0      -12.408690   -1.062999    0.640587
      5          6           0       12.808738   -1.723216    1.172054
      6          6           0      -13.702850   -0.234520    0.718766
      7          6           0       13.463658   -1.756545   -0.267366
      8          6           0      -13.485543    1.262795    1.097225
      9          6           0       10.981379   -0.301979    0.135256
     10          6           0      -11.373373   -0.249680   -0.110042
     11          6           0       13.289593   -0.310123   -0.950811
     12          6           0      -12.687941    1.949224    0.007713
     13          6           0       11.902439    0.122284   -0.829974
     14          6           0      -11.527841    1.084206   -0.477219
     15          6           0       10.804931   -1.199471    2.425734
     16          6           0       10.444922   -2.807278    0.539058
     17          6           0      -11.844328   -1.525716    2.014186
     18          6           0      -12.737695   -2.266709   -0.186182
     19          6           0        9.675486    0.233023    0.182672
     20          6           0      -10.104407   -0.968370   -0.454802
     21          6           0       11.633855    1.372069   -1.686475
     22          6           0      -10.642075    1.837745   -1.385349
     23          6           0        9.366051    1.605211    0.174725
     24          6           0       -8.867407   -0.476185   -0.549407
     25          6           0        8.111696    2.178183    0.199352
     26          6           0       -7.609459   -1.164641   -0.602495
     27          6           0        7.909686    3.705141    0.657398
     28          6           0       -7.678980   -2.625434   -1.100913
     29          6           0        6.941113    1.465055    0.000532
     30          6           0       -6.376276   -0.512903   -0.418846
     31          6           0        5.566503    1.939180    0.061390
     32          6           0       -5.116569   -1.093765   -0.596161
     33          6           0        4.423268    1.170909   -0.098053
     34          6           0       -4.000931   -0.330752   -0.426214
     35          6           0        3.123892    1.618541   -0.067654
     36          6           0       -2.616550   -0.811121   -0.731480
     37          6           0        2.753526    3.093839    0.272830
     38          6           0       -2.405164   -2.208960   -1.051142
     39          6           0        2.156737    0.719659   -0.326072
     40          6           0       -1.602966    0.146880   -0.544891
     41          6           0        0.710822    0.957108   -0.314530
     42          6           0       -0.230133   -0.108741   -0.534228
     43          1           0       13.187890   -1.049117    1.811701
     44          1           0       13.012361   -2.739500    1.666635
     45          1           0      -14.181203   -0.695841    1.470085
     46          1           0      -14.320928   -0.309996   -0.255122
     47          1           0       12.912480   -2.542985   -0.882750
     48          1           0      -12.659090    1.065176    1.931720
     49          1           0       13.985742    0.286824   -0.346476
     50          1           0       13.579213   -0.477642   -1.991131
     51          1           0      -13.504920    2.250286   -0.745745
     52          1           0      -12.323001    2.847917    0.458841
     53          1           0       11.061046   -1.825517    3.187702
     54          1           0        9.648529   -1.301199    2.417837
     55          1           0       11.008068   -0.203944    2.724052
     56          1           0       10.899183   -2.947496   -0.452001
     57          1           0       10.746498   -3.721037    0.897770
     58          1           0        9.433635   -2.649769    0.366219
     59          1           0      -11.696830   -0.796454    2.632398
     60          1           0      -10.882556   -2.097453    2.158165
     61          1           0      -12.498228   -2.227951    2.580139
     62          1           0      -13.708307   -2.635528    0.099035
     63          1           0      -12.094542   -3.042856   -0.164027
     64          1           0      -12.722266   -2.025491   -1.321758
     65          1           0        8.791032   -0.470050    0.475896
     66          1           0      -10.242920   -1.870940   -0.800865
     67          1           0       10.621379    1.419477   -2.096970
     68          1           0       11.778661    2.344769   -1.106041
     69          1           0       12.198944    1.205833   -2.677231
     70          1           0      -11.253736    2.558413   -2.078457
     71          1           0      -10.017025    1.244929   -2.100306
     72          1           0       -9.887641    2.383203   -0.572556
     73          1           0       14.848968   -2.817467    0.324522
     74          1           0      -15.116312    1.614808    2.282446
     75          1           0       10.129322    2.266652    0.020671
     76          1           0       -8.847173    0.601208   -0.234997
     77          1           0        8.888781    4.158492    1.028868
     78          1           0        7.503619    4.269335   -0.024227
     79          1           0        7.261117    3.745720    1.497394
     80          1           0       -8.309807   -3.210296   -0.376242
     81          1           0       -8.250540   -2.796229   -1.921123
     82          1           0       -6.733305   -3.042057   -1.211369
     83          1           0        7.158172    0.266139   -0.081703
     84          1           0       -6.408931    0.473977   -0.231119
     85          1           0        5.351110    3.084050    0.028276
     86          1           0       -5.107419   -2.209444   -0.890629
     87          1           0        4.537713    0.156072   -0.214072
     88          1           0       -3.967827    0.669368   -0.063384
     89          1           0        3.207735    3.197302    1.355735
     90          1           0        1.776924    3.290299    0.434405
     91          1           0        3.367666    3.777660   -0.395951
     92          1           0       -3.057911   -2.947836   -0.413188
     93          1           0       -2.564908   -2.290382   -2.257095
     94          1           0       -1.285356   -2.427343   -0.798133
     95          1           0        2.540690   -0.345348   -0.633145
     96          1           0       -1.841613    0.995870   -0.237857
     97          1           0        0.345398    2.025690   -0.262595
     98          1           0        0.273065   -1.118803   -0.747795
 ---------------------------------------------------------------------

 SCF Done:  E(RCAM-B3LYP) =  -1707.01294590     A.U. after   15 cycles

 Excitation energies and oscillator strengths:

 Excited State   1:      Singlet-A      2.2118 eV  560.57 nm  f=3.7183  <S**2>=0.000
     155 ->158         0.17914
     156 ->157         0.68081
 This state for optimization and/or second-order correction.
 Total Energy, E(TD-HF/TD-DFT) =  -1706.93166499
 Copying the excited state density for this state as the 1-particle RhoCI density.

 The electronic state is 1-A.
 Alpha  occ. eigenvalues --  -19.21784 -19.21575 -10.31194 -10.30889 -10.27876
 Alpha  occ. eigenvalues --  -10.27590 -10.27576 -10.27510 -10.27506 -10.27411
 Alpha  occ. eigenvalues --  -10.27245 -10.27030 -10.26883 -10.26870 -10.26832
 Alpha  occ. eigenvalues --  -10.26813 -10.26787 -10.26685 -10.26679 -10.26671
 Alpha  occ. eigenvalues --  -10.26486 -10.26274 -10.26258 -10.26150 -10.26031
 Alpha  occ. eigenvalues --  -10.25620 -10.25386 -10.25376 -10.25360 -10.25198
 Alpha  occ. eigenvalues --  -10.25147 -10.25047 -10.25017 -10.24667 -10.24476
 Alpha  occ. eigenvalues --  -10.24430 -10.24406 -10.23899 -10.23841 -10.23824
 Alpha  occ. eigenvalues --  -10.23685 -10.22973  -1.09850  -1.09796  -0.93518
 Alpha  occ. eigenvalues --   -0.93183  -0.92027  -0.91549  -0.90172  -0.89724
 Alpha  occ. eigenvalues --   -0.87376  -0.87148  -0.86766  -0.85087  -0.84083
 Alpha  occ. eigenvalues --   -0.82733  -0.81464  -0.79811  -0.79172  -0.77945
 Alpha  occ. eigenvalues --   -0.77550  -0.77532  -0.76687  -0.76594  -0.76252
 Alpha  occ. eigenvalues --   -0.75678  -0.75505  -0.75163  -0.73166  -0.70473
 Alpha  occ. eigenvalues --   -0.68921  -0.67175  -0.65750  -0.65096  -0.64310
 Alpha  occ. eigenvalues --   -0.63849  -0.62988  -0.61781  -0.60791  -0.60083
 Alpha  occ. eigenvalues --   -0.59329  -0.58887  -0.58809  -0.57185  -0.56586
 Alpha  occ. eigenvalues --   -0.55747  -0.55414  -0.54745  -0.54144  -0.53942
 Alpha  occ. eigenvalues --   -0.52901  -0.52417  -0.52148  -0.52003  -0.51161
 Alpha  occ. eigenvalues --   -0.50559  -0.50163  -0.49849  -0.49608  -0.49338
 Alpha  occ. eigenvalues --   -0.48904  -0.48671  -0.48222  -0.47998  -0.47819
 Alpha  occ. eigenvalues --   -0.47707  -0.47579  -0.47087  -0.46804  -0.46625
 Alpha  occ. eigenvalues --   -0.45901  -0.45853  -0.45761  -0.45395  -0.44897
 Alpha  occ. eigenvalues --   -0.44863  -0.44647  -0.43915  -0.43824  -0.43678
 Alpha  occ. eigenvalues --   -0.43616  -0.43464  -0.43037  -0.42717  -0.42595
 Alpha  occ. eigenvalues --   -0.42121  -0.41933  -0.41689  -0.41476  -0.41111
 Alpha  occ. eigenvalues --   -0.41040  -0.40217  -0.40149  -0.39497  -0.39301
 Alpha  occ. eigenvalues --   -0.39052  -0.38805  -0.38508  -0.38303  -0.38036
 Alpha  occ. eigenvalues --   -0.37640  -0.37196  -0.36770  -0.36156  -0.35744
 Alpha  occ. eigenvalues --   -0.35391  -0.34652  -0.34101  -0.32208  -0.31807
 Alpha  occ. eigenvalues --   -0.31194  -0.29624  -0.28106  -0.25630  -0.22664
 Alpha  occ. eigenvalues --   -0.19232
 Alpha virt. eigenvalues --   -0.05404  -0.01511   0.01983   0.05703   0.07728
 Alpha virt. eigenvalues --    0.09402   0.11706   0.12091   0.12244   0.12459
 Alpha virt. eigenvalues --    0.12639   0.13189   0.13418   0.13682   0.14033

 Mulliken charges:
               1
     1  O   -0.545044
     2  O   -0.567808
     3  C   -0.015507
     4  C   -0.008668
     5  C   -0.192079
     6  C   -0.176609
     7  C    0.131752
     8  C    0.173462
     9  C    0.067103
    10  C    0.056923
    11  C   -0.209688
    12  C   -0.207920
    13  C    0.036357
    14  C    0.041007
    15  C   -0.293290
    16  C   -0.317051
    17  C   -0.319534
    18  C   -0.307579
    19  C   -0.122534
    20  C   -0.094390
    21  C   -0.367496
    22  C   -0.350967
    23  C   -0.086538
    24  C   -0.106585
    25  C    0.073387
    26  C    0.080516
    27  C   -0.366973
    28  C   -0.371770
    29  C   -0.114842
    30  C   -0.094089
    31  C   -0.114072
    32  C   -0.086968
    33  C   -0.094636
    34  C   -0.112151
    35  C    0.139904
    36  C    0.109152
    37  C   -0.358116
    38  C   -0.366661
    39  C   -0.146302
    40  C   -0.081087
    41  C   -0.116727
    42  C   -0.091636
    43  H    0.113779
    44  H    0.061776
    45  H    0.084066
    46  H    0.090384
    47  H    0.078425
    48  H    0.048313
    49  H    0.133279
    50  H    0.114172
    51  H    0.105838
    52  H    0.117695
    53  H    0.105676
    54  H    0.077859
    55  H    0.110052
    56  H    0.094208
    57  H    0.109348
    58  H    0.114574
    59  H    0.117292
    60  H    0.106342
    61  H    0.088009
    62  H    0.101301
    63  H    0.109728
    64  H    0.091589
    65  H    0.082626
    66  H    0.068701
    67  H    0.128127
    68  H    0.121369
    69  H    0.089569
    70  H    0.101003
    71  H    0.126296
    72  H    0.095035
    73  H    0.303887
    74  H    0.318167
    75  H    0.071657
    76  H    0.066820
    77  H    0.093242
    78  H    0.132363
    79  H    0.130314
    80  H    0.107641
    81  H    0.133642
    82  H    0.104911
    83  H    0.061064
    84  H    0.074013
    85  H    0.073007
    86  H    0.088037
    87  H    0.075863
    88  H    0.086034
    89  H    0.107175
    90  H    0.117988
    91  H    0.120179
    92  H    0.116178
    93  H    0.114286
    94  H    0.103423
    95  H    0.075243
    96  H    0.057704
    97  H    0.089254
    98  H    0.087229
 Sum of Mulliken charges =  -0.00000

 Dipole moment (field-independent basis, Debye):
    X=             -1.2563    Y=             -1.8132    Z=              1.5542  Tot=              2.6985
 Quadrupole moment (field-independent basis, Debye-Ang):
   XX=           -275.9168   YY=           -242.2070   ZZ=           -258.4898
   XY=              5.4709   XZ=             -6.3982   YZ=              1.5574

 Normal termination of Gaussian 16 at Mon Jul 15 11:34:08 2019.
