 Gaussian 16, Revision A.03,
 Gaussian 16:  ES64L-G16RevA.03 25-Dec-2016

 -------------------------------------
 # td=(NStates=1) CAM-B3LYP/6-31G(d,p)
 -------------------------------------

 --
 TD
 --
 Symbolic Z-matrix:
 Charge =  0 Multiplicity = 1

                         Standard orientation:
 ---------------------------------------------------------------------
 Center     Atomic      Atomic             Coordinates (Angstroms)
 Number     Number       Type             X           Y           Z
 ---------------------------------------------------------------------
      1          8           0       14.825312   -2.073317   -0.120650
      2          8           0      -14.861816    1.780967    1.180287
      3          6           0       11.247007   -1.579966    0.900412
      4          6           0      -12.412542   -1.032647    0.583795
      5          6           0       12.706201   -1.963836    1.049732
      6          6           0      -13.813376   -0.263955    0.695860
      7          6           0       13.454845   -1.818496   -0.251083
      8          6           0      -13.573454    1.228088    1.063345
      9          6           0       10.972950   -0.253887    0.129607
     10          6           0      -11.315432   -0.204288   -0.202987
     11          6           0       13.373173   -0.383966   -0.774216
     12          6           0      -12.878887    1.792985   -0.122543
     13          6           0       11.860063    0.222965   -0.753054
     14          6           0      -11.679424    1.029658   -0.502482
     15          6           0       10.716703   -1.483551    2.271085
     16          6           0       10.549395   -2.800874    0.194126
     17          6           0      -11.894038   -1.325298    1.960854
     18          6           0      -12.652814   -2.429336    0.034589
     19          6           0        9.695375    0.298610    0.079969
     20          6           0      -10.087972   -0.936678   -0.432092
     21          6           0       11.884315    1.554232   -1.676455
     22          6           0      -10.630414    1.748369   -1.354097
     23          6           0        9.387047    1.648946    0.171289
     24          6           0       -8.805943   -0.354521   -0.413272
     25          6           0        8.085773    2.267354    0.252459
     26          6           0       -7.605056   -1.148690   -0.643781
     27          6           0        7.969979    3.693857    0.534443
     28          6           0       -7.735605   -2.635945   -1.006543
     29          6           0        7.053856    1.504820   -0.000817
     30          6           0       -6.399160   -0.547553   -0.577932
     31          6           0        5.603556    2.039484    0.157741
     32          6           0       -5.066533   -1.123230   -0.711333
     33          6           0        4.491278    1.211401   -0.017715
     34          6           0       -3.935540   -0.301906   -0.657049
     35          6           0        3.237443    1.770770    0.157111
     36          6           0       -2.638446   -0.732021   -0.645506
     37          6           0        2.794159    3.136358    0.647907
     38          6           0       -2.364363   -2.239035   -0.854632
     39          6           0        2.142588    0.835174   -0.263178
     40          6           0       -1.587679    0.205624   -0.496168
     41          6           0        0.667547    1.080621   -0.220311
     42          6           0       -0.193401    0.002339   -0.420251
     43          1           0       13.037072   -1.256915    1.734711
     44          1           0       12.641895   -2.954519    1.514912
     45          1           0      -14.536805   -0.790861    1.320517
     46          1           0      -14.159214   -0.186999   -0.442588
     47          1           0       12.947479   -2.445595   -1.030609
     48          1           0      -12.997307    1.340254    1.902955
     49          1           0       14.006838    0.344493   -0.285284
     50          1           0       13.766808   -0.474877   -1.864333
     51          1           0      -13.319776    1.810048   -0.951365
     52          1           0      -12.503495    3.045599    0.129047
     53          1           0       10.867210   -2.351628    2.943427
     54          1           0        9.617937   -1.412355    2.416577
     55          1           0       11.175748   -0.747451    2.856544
     56          1           0       10.952292   -2.925793   -0.834153
     57          1           0       10.827002   -3.648177    0.841351
     58          1           0        9.475448   -2.904987    0.332023
     59          1           0      -11.758238   -0.279279    2.588949
     60          1           0      -10.868266   -1.801867    1.989675
     61          1           0      -12.587338   -1.894088    2.448994
     62          1           0      -13.236981   -3.031954    0.820337
     63          1           0      -11.736600   -3.217701    0.174361
     64          1           0      -13.162823   -2.347781   -0.964817
     65          1           0        8.782600   -0.221674    0.346063
     66          1           0      -10.142698   -2.069334   -0.115472
     67          1           0       10.722592    1.746122   -2.074510
     68          1           0       12.243946    2.371930   -0.912075
     69          1           0       12.619876    1.375952   -2.444745
     70          1           0      -11.158090    2.441111   -1.868195
     71          1           0      -10.350513    1.196154   -2.084254
     72          1           0       -9.880267    2.259535   -0.835372
     73          1           0       14.887368   -3.089026    0.204818
     74          1           0      -15.256551    1.344342    1.938616
     75          1           0       10.257848    2.274590    0.230562
     76          1           0       -8.602617    0.656454   -0.410420
     77          1           0        8.930804    4.279357    0.553358
     78          1           0        7.224587    3.987301   -0.159255
     79          1           0        7.547369    3.819358    1.575590
     80          1           0       -8.169786   -3.117615   -0.127871
     81          1           0       -8.732601   -2.824136   -1.887978
     82          1           0       -6.747456   -2.975569   -1.252106
     83          1           0        7.299109    0.387543   -0.418393
     84          1           0       -6.235784    0.423250   -0.400490
     85          1           0        5.540574    3.033438    0.519906
     86          1           0       -5.184074   -2.171692   -1.102425
     87          1           0        4.575923    0.140105   -0.528874
     88          1           0       -4.011190    0.816559   -0.394833
     89          1           0        3.049824    3.282356    1.778849
     90          1           0        1.562053    3.139092    0.524576
     91          1           0        3.370900    4.082457    0.012663
     92          1           0       -2.863290   -3.077541   -0.290248
     93          1           0       -2.692498   -2.733411   -1.855245
     94          1           0       -1.150974   -2.648714   -0.793111
     95          1           0        2.416306    0.049562   -0.535564
     96          1           0       -2.036299    1.179635   -0.306085
     97          1           0        0.134370    1.740156    0.224445
     98          1           0        0.152755   -0.898287   -0.551224
 ---------------------------------------------------------------------

 SCF Done:  E(RCAM-B3LYP) =  -1706.82583311     A.U. after   15 cycles

 Excitation energies and oscillator strengths:

 Excited State   1:      Singlet-A      2.1173 eV  585.56 nm  f=3.6658  <S**2>=0.000
     155 ->158         0.15484
     156 ->157         0.68937
 This state for optimization and/or second-order correction.
 Total Energy, E(TD-HF/TD-DFT) =  -1706.74802198
 Copying the excited state density for this state as the 1-particle RhoCI density.

 The electronic state is 1-A.
 Alpha  occ. eigenvalues --  -19.22047 -19.20969 -10.30274 -10.29839 -10.29699
 Alpha  occ. eigenvalues --  -10.28456 -10.28139 -10.28015 -10.27771 -10.27532
 Alpha  occ. eigenvalues --  -10.27368 -10.27330 -10.27283 -10.27273 -10.27200
 Alpha  occ. eigenvalues --  -10.27131 -10.26891 -10.26836 -10.26795 -10.26659
 Alpha  occ. eigenvalues --  -10.26312 -10.26255 -10.26246 -10.26111 -10.25875
 Alpha  occ. eigenvalues --  -10.25820 -10.25816 -10.25788 -10.25779 -10.25658
 Alpha  occ. eigenvalues --  -10.25594 -10.25539 -10.25444 -10.25287 -10.25104
 Alpha  occ. eigenvalues --  -10.25055 -10.24856 -10.24807 -10.24624 -10.24034
 Alpha  occ. eigenvalues --  -10.23808 -10.21388  -1.10290  -1.08790  -0.93904
 Alpha  occ. eigenvalues --   -0.93771  -0.92164  -0.91860  -0.90749  -0.89906
 Alpha  occ. eigenvalues --   -0.87726  -0.87624  -0.87037  -0.85338  -0.84273
 Alpha  occ. eigenvalues --   -0.82670  -0.81076  -0.79731  -0.79387  -0.77251
 Alpha  occ. eigenvalues --   -0.76767  -0.76545  -0.76476  -0.75538  -0.75403
 Alpha  occ. eigenvalues --   -0.75297  -0.74921  -0.74350  -0.73780  -0.71196
 Alpha  occ. eigenvalues --   -0.69216  -0.68200  -0.66423  -0.65790  -0.65046
 Alpha  occ. eigenvalues --   -0.64075  -0.63720  -0.62268  -0.60746  -0.59718
 Alpha  occ. eigenvalues --   -0.59427  -0.58872  -0.58482  -0.57282  -0.56423
 Alpha  occ. eigenvalues --   -0.55826  -0.55263  -0.54982  -0.54662  -0.53951
 Alpha  occ. eigenvalues --   -0.52632  -0.52436  -0.51963  -0.51808  -0.51164
 Alpha  occ. eigenvalues --   -0.50661  -0.50440  -0.50384  -0.49438  -0.49137
 Alpha  occ. eigenvalues --   -0.48960  -0.48624  -0.47915  -0.47834  -0.47641
 Alpha  occ. eigenvalues --   -0.47128  -0.46772  -0.46514  -0.46469  -0.46324
 Alpha  occ. eigenvalues --   -0.45911  -0.45623  -0.45431  -0.45263  -0.45028
 Alpha  occ. eigenvalues --   -0.44609  -0.44293  -0.44104  -0.43977  -0.43870
 Alpha  occ. eigenvalues --   -0.43571  -0.42675  -0.42441  -0.42210  -0.41714
 Alpha  occ. eigenvalues --   -0.41648  -0.41411  -0.41282  -0.41169  -0.41045
 Alpha  occ. eigenvalues --   -0.40332  -0.40136  -0.39716  -0.38940  -0.38817
 Alpha  occ. eigenvalues --   -0.38786  -0.38685  -0.38469  -0.38154  -0.37886
 Alpha  occ. eigenvalues --   -0.37732  -0.37058  -0.36861  -0.36790  -0.35898
 Alpha  occ. eigenvalues --   -0.34994  -0.34310  -0.34135  -0.32297  -0.32152
 Alpha  occ. eigenvalues --   -0.31524  -0.30898  -0.28135  -0.25572  -0.23075
 Alpha  occ. eigenvalues --   -0.19254
 Alpha virt. eigenvalues --   -0.06132  -0.01186   0.01876   0.04845   0.08368
 Alpha virt. eigenvalues --    0.09572   0.10687   0.10940   0.11515   0.11755
 Alpha virt. eigenvalues --    0.12042   0.12826   0.13002   0.13191   0.13305

 Mulliken charges:
               1
     1  O   -0.558735
     2  O   -0.557238
     3  C   -0.034182
     4  C   -0.040596
     5  C   -0.171127
     6  C   -0.205202
     7  C    0.180059
     8  C    0.195591
     9  C    0.096903
    10  C    0.145208
    11  C   -0.222133
    12  C   -0.175362
    13  C   -0.006751
    14  C   -0.038768
    15  C   -0.319605
    16  C   -0.299757
    17  C   -0.277689
    18  C   -0.290253
    19  C   -0.111833
    20  C   -0.155498
    21  C   -0.333457
    22  C   -0.353773
    23  C   -0.132156
    24  C   -0.066814
    25  C    0.155791
    26  C    0.094123
    27  C   -0.383316
    28  C   -0.339626
    29  C   -0.158109
    30  C   -0.103394
    31  C   -0.134104
    32  C   -0.094848
    33  C   -0.108972
    34  C   -0.145681
    35  C    0.130834
    36  C    0.165516
    37  C   -0.351706
    38  C   -0.380846
    39  C   -0.079630
    40  C   -0.148438
    41  C   -0.069268
    42  C   -0.059909
    43  H    0.103494
    44  H    0.083805
    45  H    0.083865
    46  H    0.089723
    47  H    0.070054
    48  H    0.094435
    49  H    0.122110
    50  H    0.093902
    51  H    0.131747
    52  H    0.059960
    53  H    0.089412
    54  H    0.100366
    55  H    0.111424
    56  H    0.107295
    57  H    0.090867
    58  H    0.103055
    59  H    0.060960
    60  H    0.098667
    61  H    0.102098
    62  H    0.087286
    63  H    0.078120
    64  H    0.103399
    65  H    0.080875
    66  H    0.080455
    67  H    0.108380
    68  H    0.115177
    69  H    0.117671
    70  H    0.090451
    71  H    0.130140
    72  H    0.120844
    73  H    0.302881
    74  H    0.302274
    75  H    0.070608
    76  H    0.084248
    77  H    0.112360
    78  H    0.135121
    79  H    0.120932
    80  H    0.127282
    81  H    0.084153
    82  H    0.101812
    83  H    0.084356
    84  H    0.063259
    85  H    0.095255
    86  H    0.081129
    87  H    0.098173
    88  H    0.086504
    89  H    0.119489
    90  H    0.106438
    91  H    0.090558
    92  H    0.123072
    93  H    0.111169
    94  H    0.074066
    95  H    0.033354
    96  H    0.073439
    97  H    0.080196
    98  H    0.072584
 Sum of Mulliken charges =  -0.00000

 Dipole moment (field-independent basis, Debye):
    X=              0.6617    Y=             -1.6825    Z=              2.1148  Tot=              2.7822
 Quadrupole moment (field-independent basis, Debye-Ang):
   XX=           -280.2626   YY=           -243.1598   ZZ=           -261.4070
   XY=              6.5609   XZ=             -5.5977   YZ=              0.7912

 Normal termination of Gaussian 16 at Thu Jul 11 18:08:37 2019.
