 Gaussian 16, Revision A.03,
 Gaussian 16:  ES64L-G16RevA.03 25-Dec-2016

 -------------------------------------
 # td=(NStates=1) CAM-B3LYP/6-31G(d,p)
 -------------------------------------

 --
 TD
 --
 Symbolic Z-matrix:
 Charge =  0 Multiplicity = 1

                         Standard orientation:
 ---------------------------------------------------------------------
 Center     Atomic      Atomic             Coordinates (Angstroms)
 Number     Number       Type             X           Y           Z
 ---------------------------------------------------------------------
      1          8           0       14.626081   -2.299486   -0.449283
      2          8           0      -14.824108    1.826688    0.738303
      3          6           0       11.051078   -1.582412    0.898004
      4          6           0      -12.333011   -1.071967    0.716848
      5          6           0       12.625528   -1.987172    0.944465
      6          6           0      -13.635321   -0.376042    0.662498
      7          6           0       13.234581   -2.033339   -0.442253
      8          6           0      -13.616940    1.163103    0.876115
      9          6           0       10.894597   -0.325574    0.001927
     10          6           0      -11.278756   -0.302242   -0.138853
     11          6           0       13.184199   -0.615316   -1.063192
     12          6           0      -12.807307    1.611444   -0.289929
     13          6           0       11.843308    0.073933   -0.816116
     14          6           0      -11.536261    0.929201   -0.603960
     15          6           0       10.652623   -1.281908    2.297135
     16          6           0       10.198610   -2.846287    0.389547
     17          6           0      -11.782112   -1.423083    2.007709
     18          6           0      -12.541378   -2.463119    0.116635
     19          6           0        9.623859    0.332295    0.188444
     20          6           0       -9.978055   -0.954782   -0.380534
     21          6           0       11.663790    1.305811   -1.649657
     22          6           0      -10.649371    1.728935   -1.511495
     23          6           0        9.345459    1.700219    0.326558
     24          6           0       -8.798517   -0.461192   -0.379673
     25          6           0        8.079365    2.341399    0.329751
     26          6           0       -7.499098   -1.181459   -0.617252
     27          6           0        8.019051    3.807932    0.713162
     28          6           0       -7.517942   -2.639632   -0.919494
     29          6           0        6.943796    1.528169    0.115837
     30          6           0       -6.328826   -0.519600   -0.313727
     31          6           0        5.674565    2.103138    0.317955
     32          6           0       -5.021010   -0.992114   -0.618124
     33          6           0        4.517555    1.400581   -0.125632
     34          6           0       -3.914360   -0.159316   -0.454842
     35          6           0        3.234979    1.826571    0.077918
     36          6           0       -2.580762   -0.534522   -0.432990
     37          6           0        2.950523    3.291040    0.474352
     38          6           0       -2.358952   -2.072817   -0.741003
     39          6           0        2.095709    0.952307   -0.186190
     40          6           0       -1.503352    0.300689   -0.176822
     41          6           0        0.717847    1.127877   -0.187223
     42          6           0       -0.118115    0.069101   -0.338249
     43          1           0       13.093627   -1.149567    1.479543
     44          1           0       12.808003   -2.965028    1.489217
     45          1           0      -14.192577   -0.851988    1.407980
     46          1           0      -14.061964   -0.610152   -0.215637
     47          1           0       12.698468   -2.694777   -1.156904
     48          1           0      -13.105132    1.353554    1.920569
     49          1           0       14.100080   -0.146989   -0.681605
     50          1           0       13.320631   -0.822209   -2.207339
     51          1           0      -13.373658    1.472029   -1.200136
     52          1           0      -12.666528    2.915185   -0.237434
     53          1           0       11.134545   -2.252391    2.744599
     54          1           0        9.550046   -1.140994    2.643934
     55          1           0       11.113214   -0.377442    2.588962
     56          1           0       10.358817   -3.157463   -0.619945
     57          1           0       10.328208   -3.596645    1.152459
     58          1           0        9.075600   -2.704064    0.519266
     59          1           0      -11.810266   -0.472937    2.604488
     60          1           0      -10.776254   -1.534245    1.954503
     61          1           0      -12.399521   -2.195695    2.531285
     62          1           0      -13.373981   -2.959944    0.827934
     63          1           0      -11.677798   -3.014131    0.105439
     64          1           0      -13.003683   -2.277468   -0.906028
     65          1           0        9.003172   -0.550039    0.247503
     66          1           0      -10.133169   -2.038417   -0.705571
     67          1           0       10.533221    1.638464   -1.824877
     68          1           0       12.039054    2.203382   -1.004079
     69          1           0       12.354332    1.385954   -2.592620
     70          1           0      -11.252830    2.438371   -2.104377
     71          1           0      -10.090900    1.040233   -2.244451
     72          1           0       -9.935135    2.231454   -1.080949
     73          1           0       14.558782   -3.254062    0.026868
     74          1           0      -15.427505    1.440529    1.312169
     75          1           0       10.083928    2.355629    0.260395
     76          1           0       -8.671373    0.722600   -0.128135
     77          1           0        9.066638    4.094921    0.603607
     78          1           0        7.403101    4.260202    0.009851
     79          1           0        7.719407    3.990659    1.699571
     80          1           0       -7.418653   -3.629867   -0.117955
     81          1           0       -8.362143   -2.863461   -1.578673
     82          1           0       -6.562855   -2.948152   -1.523189
     83          1           0        6.932866    0.559284   -0.211091
     84          1           0       -6.373724    0.518872   -0.010863
     85          1           0        5.671189    3.082204    0.885743
     86          1           0       -4.877292   -1.954895   -0.922688
     87          1           0        4.669298    0.464952   -0.485258
     88          1           0       -3.940442    0.806779   -0.050630
     89          1           0        3.372163    3.278663    1.514632
     90          1           0        1.819965    3.464066    0.682927
     91          1           0        3.332941    4.182080   -0.105959
     92          1           0       -2.961438   -2.608366   -0.047071
     93          1           0       -2.616431   -2.199367   -1.783230
     94          1           0       -1.415679   -2.429969   -0.896871
     95          1           0        2.566107    0.032534   -0.569835
     96          1           0       -1.773237    1.368194   -0.311421
     97          1           0        0.329209    2.141493    0.313613
     98          1           0        0.292310   -0.878287   -0.720297
 ---------------------------------------------------------------------

 SCF Done:  E(RCAM-B3LYP) =  -1707.00856957     A.U. after   15 cycles

 Excitation energies and oscillator strengths:

 Excited State   1:      Singlet-A      1.9839 eV  624.96 nm  f=3.5696  <S**2>=0.000
     155 ->158        -0.14486
     156 ->157         0.69541
     156 <-157        -0.10233
 This state for optimization and/or second-order correction.
 Total Energy, E(TD-HF/TD-DFT) =  -1706.93566312
 Copying the excited state density for this state as the 1-particle RhoCI density.

 The electronic state is 1-A.
 Alpha  occ. eigenvalues --  -19.22503 -19.21538 -10.31008 -10.30163 -10.28325
 Alpha  occ. eigenvalues --  -10.27883 -10.27670 -10.27597 -10.27149 -10.27069
 Alpha  occ. eigenvalues --  -10.27013 -10.26708 -10.26678 -10.26667 -10.26495
 Alpha  occ. eigenvalues --  -10.26363 -10.26354 -10.26305 -10.26180 -10.26108
 Alpha  occ. eigenvalues --  -10.26089 -10.26027 -10.25981 -10.25878 -10.25820
 Alpha  occ. eigenvalues --  -10.25819 -10.25718 -10.25536 -10.25478 -10.25427
 Alpha  occ. eigenvalues --  -10.25416 -10.25380 -10.25297 -10.25064 -10.25034
 Alpha  occ. eigenvalues --  -10.24999 -10.24980 -10.24949 -10.24092 -10.23861
 Alpha  occ. eigenvalues --  -10.23194 -10.23150  -1.12068  -1.09078  -0.94791
 Alpha  occ. eigenvalues --   -0.93557  -0.92096  -0.91607  -0.90613  -0.89756
 Alpha  occ. eigenvalues --   -0.88434  -0.87710  -0.86752  -0.85766  -0.84703
 Alpha  occ. eigenvalues --   -0.83102  -0.82168  -0.80330  -0.79834  -0.78279
 Alpha  occ. eigenvalues --   -0.77035  -0.76701  -0.76416  -0.76251  -0.76101
 Alpha  occ. eigenvalues --   -0.75831  -0.75181  -0.74843  -0.73367  -0.70747
 Alpha  occ. eigenvalues --   -0.69427  -0.68190  -0.65963  -0.64317  -0.63506
 Alpha  occ. eigenvalues --   -0.63267  -0.62836  -0.61914  -0.61192  -0.60833
 Alpha  occ. eigenvalues --   -0.59540  -0.59233  -0.58369  -0.57768  -0.56923
 Alpha  occ. eigenvalues --   -0.56077  -0.55568  -0.54985  -0.54605  -0.53809
 Alpha  occ. eigenvalues --   -0.53036  -0.52822  -0.52086  -0.51723  -0.51528
 Alpha  occ. eigenvalues --   -0.50647  -0.50349  -0.49966  -0.49871  -0.49468
 Alpha  occ. eigenvalues --   -0.49110  -0.48970  -0.48910  -0.48312  -0.47871
 Alpha  occ. eigenvalues --   -0.47531  -0.47316  -0.47102  -0.46437  -0.46365
 Alpha  occ. eigenvalues --   -0.45823  -0.45809  -0.45506  -0.45368  -0.45180
 Alpha  occ. eigenvalues --   -0.45066  -0.44777  -0.44372  -0.43928  -0.43374
 Alpha  occ. eigenvalues --   -0.43059  -0.42858  -0.42834  -0.42349  -0.42314
 Alpha  occ. eigenvalues --   -0.42123  -0.41757  -0.41613  -0.41220  -0.41034
 Alpha  occ. eigenvalues --   -0.40685  -0.40548  -0.40392  -0.40364  -0.39184
 Alpha  occ. eigenvalues --   -0.39013  -0.38797  -0.38515  -0.38168  -0.38007
 Alpha  occ. eigenvalues --   -0.37362  -0.36950  -0.36846  -0.36311  -0.36026
 Alpha  occ. eigenvalues --   -0.35591  -0.34629  -0.34197  -0.32803  -0.32499
 Alpha  occ. eigenvalues --   -0.31853  -0.29928  -0.28142  -0.26475  -0.23397
 Alpha  occ. eigenvalues --   -0.18696
 Alpha virt. eigenvalues --   -0.06478  -0.01529   0.02828   0.06014   0.08211
 Alpha virt. eigenvalues --    0.09708   0.10501   0.11909   0.12188   0.12350
 Alpha virt. eigenvalues --    0.12412   0.12535   0.13551   0.13819   0.13928

 Mulliken charges:
               1
     1  O   -0.547307
     2  O   -0.528956
     3  C   -0.037515
     4  C   -0.024001
     5  C   -0.193728
     6  C   -0.194123
     7  C    0.154645
     8  C    0.174198
     9  C    0.039947
    10  C    0.053452
    11  C   -0.238377
    12  C   -0.217977
    13  C    0.080867
    14  C    0.062424
    15  C   -0.280707
    16  C   -0.311126
    17  C   -0.282293
    18  C   -0.282761
    19  C   -0.093411
    20  C   -0.141289
    21  C   -0.375841
    22  C   -0.364836
    23  C   -0.097531
    24  C   -0.079531
    25  C    0.040521
    26  C    0.097283
    27  C   -0.366905
    28  C   -0.366419
    29  C   -0.074504
    30  C   -0.105244
    31  C   -0.097353
    32  C   -0.078489
    33  C   -0.116821
    34  C   -0.107701
    35  C    0.099564
    36  C    0.088622
    37  C   -0.367198
    38  C   -0.371216
    39  C   -0.134312
    40  C   -0.158556
    41  C   -0.079756
    42  C   -0.059323
    43  H    0.111783
    44  H    0.072049
    45  H    0.074193
    46  H    0.104233
    47  H    0.080698
    48  H    0.065174
    49  H    0.130918
    50  H    0.099749
    51  H    0.130513
    52  H    0.060473
    53  H    0.082644
    54  H    0.099279
    55  H    0.114628
    56  H    0.115596
    57  H    0.103481
    58  H    0.093749
    59  H    0.079305
    60  H    0.123708
    61  H    0.092091
    62  H    0.074417
    63  H    0.114020
    64  H    0.087913
    65  H    0.087279
    66  H    0.079099
    67  H    0.113780
    68  H    0.101985
    69  H    0.095517
    70  H    0.101971
    71  H    0.109316
    72  H    0.134400
    73  H    0.299214
    74  H    0.298756
    75  H    0.068819
    76  H    0.072806
    77  H    0.106856
    78  H    0.135147
    79  H    0.137919
    80  H    0.095817
    81  H    0.118278
    82  H    0.101936
    83  H    0.083466
    84  H    0.082832
    85  H    0.090183
    86  H    0.087013
    87  H    0.077208
    88  H    0.077343
    89  H    0.117159
    90  H    0.092450
    91  H    0.122855
    92  H    0.125609
    93  H    0.119002
    94  H    0.102771
    95  H    0.067535
    96  H    0.085050
    97  H    0.086335
    98  H    0.097263
 Sum of Mulliken charges =  -0.00000

 Dipole moment (field-independent basis, Debye):
    X=             -0.1182    Y=             -1.8600    Z=              1.2004  Tot=              2.2169
 Quadrupole moment (field-independent basis, Debye-Ang):
   XX=           -273.2430   YY=           -242.9734   ZZ=           -263.3350
   XY=              9.6001   XZ=              0.1884   YZ=              3.3361

 Normal termination of Gaussian 16 at Thu Jul 11 10:55:26 2019.
