 Gaussian 16, Revision A.03,
 Gaussian 16:  ES64L-G16RevA.03 25-Dec-2016

 -------------------------------------
 # td=(NStates=1) CAM-B3LYP/6-31G(d,p)
 -------------------------------------

 --
 TD
 --
 Symbolic Z-matrix:
 Charge =  0 Multiplicity = 1

                         Standard orientation:
 ---------------------------------------------------------------------
 Center     Atomic      Atomic             Coordinates (Angstroms)
 Number     Number       Type             X           Y           Z
 ---------------------------------------------------------------------
      1          8           0       14.615972   -2.352493    0.073823
      2          8           0      -14.674550    1.884027    1.454829
      3          6           0       11.085465   -1.530151    1.035713
      4          6           0      -12.399413   -1.054742    0.687031
      5          6           0       12.569743   -1.984873    1.234116
      6          6           0      -13.652974   -0.296036    0.774806
      7          6           0       13.293236   -2.057013   -0.089151
      8          6           0      -13.443232    1.092269    1.217017
      9          6           0       10.948693   -0.290926    0.171015
     10          6           0      -11.290403   -0.250800   -0.000437
     11          6           0       13.355340   -0.709786   -0.772632
     12          6           0      -12.798647    1.632938   -0.036272
     13          6           0       11.905084    0.060558   -0.632331
     14          6           0      -11.463886    0.946750   -0.369636
     15          6           0       10.496731   -1.189190    2.410208
     16          6           0       10.077747   -2.624047    0.400901
     17          6           0      -11.892662   -1.401725    2.232981
     18          6           0      -12.685890   -2.358309    0.076502
     19          6           0        9.636965    0.375576    0.205909
     20          6           0      -10.028714   -0.974693   -0.497254
     21          6           0       11.809133    1.286452   -1.519061
     22          6           0      -10.585647    1.826266   -1.268132
     23          6           0        9.441797    1.748925    0.001505
     24          6           0       -8.756380   -0.416940   -0.557356
     25          6           0        8.133665    2.433140    0.014842
     26          6           0       -7.523223   -1.138497   -0.711413
     27          6           0        8.096597    3.780988    0.504042
     28          6           0       -7.556782   -2.592176   -1.298503
     29          6           0        6.930194    1.672836   -0.035035
     30          6           0       -6.308817   -0.434821   -0.542173
     31          6           0        5.569136    2.159810   -0.013212
     32          6           0       -5.119780   -1.029003   -0.857698
     33          6           0        4.500550    1.382593   -0.224492
     34          6           0       -3.969204   -0.350151   -0.687128
     35          6           0        3.168742    1.740837   -0.067457
     36          6           0       -2.588317   -0.619297   -0.876196
     37          6           0        2.816982    3.047532    0.393600
     38          6           0       -2.175121   -2.023446   -1.343047
     39          6           0        2.161403    0.756544   -0.320435
     40          6           0       -1.535274    0.211603   -0.466528
     41          6           0        0.761604    0.847058   -0.209327
     42          6           0       -0.144587   -0.108038   -0.640846
     43          1           0       13.049985   -1.228342    1.869006
     44          1           0       12.599861   -2.737035    2.026756
     45          1           0      -14.544187   -0.709930    1.527812
     46          1           0      -14.236755   -0.400339   -0.110001
     47          1           0       12.809127   -2.732339   -0.695042
     48          1           0      -12.891571    1.075169    2.272581
     49          1           0       14.197139   -0.327981   -0.390522
     50          1           0       13.709695   -0.880351   -1.844015
     51          1           0      -13.476172    1.360724   -0.983594
     52          1           0      -12.662238    2.888622   -0.090495
     53          1           0       10.307303   -2.088567    2.967967
     54          1           0        9.494905   -0.538624    2.425276
     55          1           0       11.236870   -0.479488    2.902082
     56          1           0       10.441438   -2.717842   -0.611292
     57          1           0       10.315446   -3.484753    0.989373
     58          1           0        8.979241   -2.474928    0.396739
     59          1           0      -11.637617   -0.429051    2.788340
     60          1           0      -10.999568   -1.920082    2.086249
     61          1           0      -12.675237   -1.908040    2.766837
     62          1           0      -13.606779   -2.554628    0.523775
     63          1           0      -11.971957   -3.144915    0.053379
     64          1           0      -12.696033   -2.136595   -1.021066
     65          1           0        8.793356   -0.203726    0.432368
     66          1           0      -10.263717   -2.019177   -0.495609
     67          1           0       10.744111    1.232649   -1.898124
     68          1           0       11.770455    2.317338   -0.938831
     69          1           0       12.512908    1.449842   -2.412689
     70          1           0      -11.173944    2.422991   -1.965798
     71          1           0       -9.849098    1.318748   -2.011522
     72          1           0      -10.116853    2.639690   -0.624136
     73          1           0       14.589782   -3.408181    0.345938
     74          1           0      -15.346089    1.222925    1.920267
     75          1           0       10.419643    2.502076    0.023743
     76          1           0       -8.595840    0.627210   -0.443151
     77          1           0        9.161619    4.344533    0.277083
     78          1           0        7.527841    4.478240   -0.212098
     79          1           0        7.945588    3.951432    1.513836
     80          1           0       -7.575693   -3.324233   -0.435157
     81          1           0       -8.396420   -2.729596   -2.116140
     82          1           0       -6.506447   -2.794121   -1.953403
     83          1           0        6.788433    0.635217   -0.289569
     84          1           0       -6.252417    0.452356   -0.238481
     85          1           0        5.479198    3.202580    0.287818
     86          1           0       -5.063801   -1.969524   -1.156723
     87          1           0        4.713469    0.190251   -0.069831
     88          1           0       -4.087104    0.762878   -0.276776
     89          1           0        2.851386    3.167889    1.482848
     90          1           0        1.684295    3.401817    0.370045
     91          1           0        3.440235    4.025981    0.063863
     92          1           0       -2.833986   -2.691561   -0.370397
     93          1           0       -2.533251   -2.368151   -2.306091
     94          1           0       -1.237857   -2.453582   -1.423382
     95          1           0        2.573537   -0.194763   -0.617466
     96          1           0       -1.873745    1.077645   -0.119465
     97          1           0        0.356277    1.827329    0.419844
     98          1           0        0.040738   -1.186063   -0.788775
 ---------------------------------------------------------------------

 SCF Done:  E(RCAM-B3LYP) =  -1706.88694439     A.U. after   15 cycles

 Excitation energies and oscillator strengths:

 Excited State   1:      Singlet-A      2.1571 eV  574.76 nm  f=3.7671  <S**2>=0.000
     155 ->158        -0.16278
     156 ->157         0.68637
 This state for optimization and/or second-order correction.
 Total Energy, E(TD-HF/TD-DFT) =  -1706.80767091
 Copying the excited state density for this state as the 1-particle RhoCI density.

 The electronic state is 1-A.
 Alpha  occ. eigenvalues --  -19.22317 -19.21390 -10.31206 -10.29049 -10.28454
 Alpha  occ. eigenvalues --  -10.28005 -10.27910 -10.27765 -10.27764 -10.27727
 Alpha  occ. eigenvalues --  -10.27652 -10.27640 -10.27559 -10.27383 -10.27078
 Alpha  occ. eigenvalues --  -10.26938 -10.26862 -10.26740 -10.26684 -10.26656
 Alpha  occ. eigenvalues --  -10.26573 -10.26323 -10.26321 -10.26204 -10.26195
 Alpha  occ. eigenvalues --  -10.26155 -10.26150 -10.26083 -10.25990 -10.25825
 Alpha  occ. eigenvalues --  -10.25557 -10.25384 -10.25150 -10.25034 -10.25009
 Alpha  occ. eigenvalues --  -10.24968 -10.24850 -10.24744 -10.24728 -10.24498
 Alpha  occ. eigenvalues --  -10.24427 -10.24303  -1.10421  -1.06163  -0.95318
 Alpha  occ. eigenvalues --   -0.93265  -0.92461  -0.92142  -0.90328  -0.89690
 Alpha  occ. eigenvalues --   -0.88094  -0.86961  -0.86049  -0.85385  -0.84354
 Alpha  occ. eigenvalues --   -0.83702  -0.82527  -0.79380  -0.79235  -0.77899
 Alpha  occ. eigenvalues --   -0.76779  -0.76464  -0.76199  -0.75846  -0.75667
 Alpha  occ. eigenvalues --   -0.75261  -0.75120  -0.74251  -0.73547  -0.70777
 Alpha  occ. eigenvalues --   -0.68933  -0.67147  -0.65886  -0.65158  -0.64673
 Alpha  occ. eigenvalues --   -0.64042  -0.63480  -0.62162  -0.61570  -0.60512
 Alpha  occ. eigenvalues --   -0.59621  -0.59561  -0.58538  -0.57665  -0.56747
 Alpha  occ. eigenvalues --   -0.55865  -0.55130  -0.54791  -0.54359  -0.53614
 Alpha  occ. eigenvalues --   -0.52906  -0.52308  -0.51267  -0.51052  -0.50811
 Alpha  occ. eigenvalues --   -0.50539  -0.50114  -0.49848  -0.49185  -0.49046
 Alpha  occ. eigenvalues --   -0.48764  -0.48403  -0.48298  -0.48175  -0.48013
 Alpha  occ. eigenvalues --   -0.47204  -0.46958  -0.46818  -0.46640  -0.46577
 Alpha  occ. eigenvalues --   -0.46468  -0.46057  -0.45952  -0.45624  -0.45228
 Alpha  occ. eigenvalues --   -0.44843  -0.44328  -0.44037  -0.43263  -0.43166
 Alpha  occ. eigenvalues --   -0.42871  -0.42534  -0.42420  -0.42229  -0.41939
 Alpha  occ. eigenvalues --   -0.41751  -0.41406  -0.41144  -0.40856  -0.40712
 Alpha  occ. eigenvalues --   -0.40136  -0.40107  -0.39985  -0.39479  -0.39286
 Alpha  occ. eigenvalues --   -0.38872  -0.38331  -0.38266  -0.37931  -0.37601
 Alpha  occ. eigenvalues --   -0.37223  -0.37156  -0.36908  -0.35989  -0.35352
 Alpha  occ. eigenvalues --   -0.35109  -0.34189  -0.33207  -0.32399  -0.32159
 Alpha  occ. eigenvalues --   -0.31960  -0.30215  -0.28883  -0.26185  -0.23103
 Alpha  occ. eigenvalues --   -0.19366
 Alpha virt. eigenvalues --   -0.05995  -0.01597   0.02053   0.06076   0.08107
 Alpha virt. eigenvalues --    0.09533   0.09843   0.10180   0.10328   0.10849
 Alpha virt. eigenvalues --    0.11997   0.12499   0.13006   0.13326   0.13458

 Mulliken charges:
               1
     1  O   -0.553764
     2  O   -0.578812
     3  C   -0.045073
     4  C   -0.017663
     5  C   -0.203194
     6  C   -0.207796
     7  C    0.178468
     8  C    0.198188
     9  C    0.133492
    10  C    0.071634
    11  C   -0.221061
    12  C   -0.224670
    13  C    0.016096
    14  C    0.077491
    15  C   -0.301453
    16  C   -0.312470
    17  C   -0.300997
    18  C   -0.304921
    19  C   -0.111855
    20  C   -0.134761
    21  C   -0.372755
    22  C   -0.373589
    23  C   -0.110414
    24  C   -0.095993
    25  C    0.078317
    26  C    0.071775
    27  C   -0.381292
    28  C   -0.356231
    29  C   -0.107372
    30  C   -0.062433
    31  C   -0.072827
    32  C   -0.026004
    33  C   -0.139437
    34  C   -0.144996
    35  C    0.170244
    36  C    0.102979
    37  C   -0.408042
    38  C   -0.359379
    39  C   -0.133977
    40  C   -0.092893
    41  C   -0.080904
    42  C   -0.082649
    43  H    0.105701
    44  H    0.086880
    45  H    0.036223
    46  H    0.117292
    47  H    0.083590
    48  H    0.089326
    49  H    0.135122
    50  H    0.097770
    51  H    0.108859
    52  H    0.073499
    53  H    0.096981
    54  H    0.092470
    55  H    0.094362
    56  H    0.107718
    57  H    0.100554
    58  H    0.109368
    59  H    0.092982
    60  H    0.111626
    61  H    0.102776
    62  H    0.113770
    63  H    0.111091
    64  H    0.097621
    65  H    0.096242
    66  H    0.073904
    67  H    0.127426
    68  H    0.095424
    69  H    0.093853
    70  H    0.111323
    71  H    0.115099
    72  H    0.114850
    73  H    0.300096
    74  H    0.296855
    75  H    0.079198
    76  H    0.099288
    77  H    0.079243
    78  H    0.117128
    79  H    0.147835
    80  H    0.127036
    81  H    0.113695
    82  H    0.090069
    83  H    0.075604
    84  H    0.055371
    85  H    0.083265
    86  H    0.069692
    87  H    0.076405
    88  H    0.057811
    89  H    0.133649
    90  H    0.097843
    91  H    0.106029
    92  H    0.060842
    93  H    0.115434
    94  H    0.119360
    95  H    0.077402
    96  H    0.065432
    97  H    0.079695
    98  H    0.103012
 Sum of Mulliken charges =  -0.00000

 Dipole moment (field-independent basis, Debye):
    X=             -0.2587    Y=             -2.8149    Z=              0.9859  Tot=              2.9938
 Quadrupole moment (field-independent basis, Debye-Ang):
   XX=           -275.9158   YY=           -243.8862   ZZ=           -262.9899
   XY=             14.5777   XZ=              6.9967   YZ=              1.5272

 Normal termination of Gaussian 16 at Sun Jul 14 18:58:29 2019.
