 Gaussian 16, Revision A.03,
 Gaussian 16:  ES64L-G16RevA.03 25-Dec-2016

 -------------------------------------
 # td=(NStates=1) CAM-B3LYP/6-31G(d,p)
 -------------------------------------

 --
 TD
 --
 Symbolic Z-matrix:
 Charge =  0 Multiplicity = 1

                         Standard orientation:
 ---------------------------------------------------------------------
 Center     Atomic      Atomic             Coordinates (Angstroms)
 Number     Number       Type             X           Y           Z
 ---------------------------------------------------------------------
      1          8           0       14.583876   -2.321149   -0.299561
      2          8           0      -14.552419    1.947799    1.080516
      3          6           0       11.108444   -1.446949    1.074711
      4          6           0      -12.284992   -1.058046    0.635531
      5          6           0       12.576714   -1.717526    1.109829
      6          6           0      -13.547878   -0.255700    0.853741
      7          6           0       13.200384   -1.912491   -0.278558
      8          6           0      -13.327706    1.251799    1.005057
      9          6           0       10.878742   -0.251299    0.134958
     10          6           0      -11.257182   -0.218130   -0.170861
     11          6           0       13.137045   -0.662537   -1.129265
     12          6           0      -12.532039    1.847110   -0.136381
     13          6           0       11.771599    0.074075   -0.902558
     14          6           0      -11.439787    1.000038   -0.665587
     15          6           0       10.735376   -1.039758    2.456525
     16          6           0       10.164608   -2.661834    0.682444
     17          6           0      -11.683729   -1.302452    2.097800
     18          6           0      -12.730399   -2.367069   -0.046547
     19          6           0        9.498015    0.366806    0.248089
     20          6           0       -9.997565   -0.961829   -0.401671
     21          6           0       11.645354    1.113244   -1.882139
     22          6           0      -10.595728    1.729151   -1.656245
     23          6           0        9.258173    1.669111    0.066016
     24          6           0       -8.662793   -0.430751   -0.414222
     25          6           0        7.922077    2.391060    0.080958
     26          6           0       -7.460230   -1.244112   -0.643628
     27          6           0        8.005697    3.842007    0.455915
     28          6           0       -7.615981   -2.654750   -1.004440
     29          6           0        6.834528    1.678009    0.059138
     30          6           0       -6.321791   -0.593224   -0.580241
     31          6           0        5.510460    2.166829    0.164936
     32          6           0       -4.953936   -1.136503   -0.582173
     33          6           0        4.416659    1.344653   -0.002367
     34          6           0       -3.860589   -0.372115   -0.424059
     35          6           0        3.082325    1.706516    0.114902
     36          6           0       -2.557412   -0.841812   -0.539147
     37          6           0        2.810874    3.077866    0.535310
     38          6           0       -2.273609   -2.331127   -0.926729
     39          6           0        2.079949    0.752322   -0.167925
     40          6           0       -1.526288    0.094622   -0.333211
     41          6           0        0.760738    0.930296   -0.137115
     42          6           0       -0.136593   -0.110052   -0.368501
     43          1           0       13.157589   -0.828135    1.475636
     44          1           0       12.923503   -2.641685    1.747408
     45          1           0      -13.941800   -0.429991    1.835017
     46          1           0      -14.175236   -0.161536    0.047806
     47          1           0       12.478425   -2.715824   -0.781316
     48          1           0      -12.915932    1.415502    1.979614
     49          1           0       13.841977    0.158828   -0.676383
     50          1           0       13.267353   -0.942182   -2.137780
     51          1           0      -13.292674    1.953836   -0.926958
     52          1           0      -11.913586    2.880377    0.174950
     53          1           0       10.954084   -1.782185    3.284405
     54          1           0        9.685143   -0.981216    2.453104
     55          1           0       11.222934    0.081900    2.871360
     56          1           0       10.509932   -2.748027   -0.260834
     57          1           0       10.192533   -3.512144    1.263305
     58          1           0        9.068386   -2.614901    0.657451
     59          1           0      -11.245770   -0.329318    2.549655
     60          1           0      -10.921396   -2.001531    1.935115
     61          1           0      -12.338151   -1.998960    2.626085
     62          1           0      -13.591489   -2.777225    0.527620
     63          1           0      -11.682927   -2.962462   -0.010446
     64          1           0      -12.868216   -2.520924   -1.270268
     65          1           0        8.730129   -0.395947    0.439814
     66          1           0      -10.205478   -2.119152   -0.158118
     67          1           0       10.673842    1.341945   -2.206480
     68          1           0       11.992294    2.021435   -1.675438
     69          1           0       12.021267    0.547099   -2.942910
     70          1           0      -11.224475    2.383145   -2.201023
     71          1           0      -10.011062    1.213226   -2.321099
     72          1           0      -10.197426    2.632963   -1.341152
     73          1           0       14.772398   -3.118995    0.552775
     74          1           0      -15.102796    1.827866    1.938374
     75          1           0       10.266035    2.180866   -0.231532
     76          1           0       -8.613226    0.641707   -0.436192
     77          1           0        9.035313    4.291789    0.588002
     78          1           0        7.582589    4.631521   -0.266550
     79          1           0        7.557480    4.106057    1.408231
     80          1           0       -8.295572   -3.390644   -0.383607
     81          1           0       -8.144536   -2.583460   -1.998216
     82          1           0       -6.675992   -3.435050   -1.258958
     83          1           0        6.792811    0.620099   -0.356393
     84          1           0       -6.462355    0.271263   -0.204435
     85          1           0        5.368519    3.124964    0.417983
     86          1           0       -4.893864   -2.233034   -0.769779
     87          1           0        4.481945    0.242812   -0.117332
     88          1           0       -4.129945    0.789800   -0.652005
     89          1           0        3.226574    3.563445    1.375249
     90          1           0        1.614297    3.218824    0.712243
     91          1           0        3.227956    3.915466   -0.248604
     92          1           0       -2.858548   -3.033636   -0.125900
     93          1           0       -2.713364   -2.559372   -1.898036
     94          1           0       -1.393452   -2.640206   -1.000947
     95          1           0        2.555586   -0.307179   -0.033555
     96          1           0       -1.917261    1.062007   -0.012000
     97          1           0        0.319490    1.913574    0.151182
     98          1           0        0.165268   -1.073291   -0.649505
 ---------------------------------------------------------------------

 SCF Done:  E(RCAM-B3LYP) =  -1706.87786409     A.U. after   15 cycles

 Excitation energies and oscillator strengths:

 Excited State   1:      Singlet-A      2.2583 eV  549.02 nm  f=3.6820  <S**2>=0.000
     155 ->158         0.14046
     156 ->157         0.69311
 This state for optimization and/or second-order correction.
 Total Energy, E(TD-HF/TD-DFT) =  -1706.79487344
 Copying the excited state density for this state as the 1-particle RhoCI density.

 The electronic state is 1-A.
 Alpha  occ. eigenvalues --  -19.22431 -19.20872 -10.30470 -10.29416 -10.27884
 Alpha  occ. eigenvalues --  -10.27682 -10.27656 -10.27553 -10.27506 -10.27257
 Alpha  occ. eigenvalues --  -10.27165 -10.26989 -10.26896 -10.26876 -10.26839
 Alpha  occ. eigenvalues --  -10.26637 -10.26574 -10.26485 -10.26300 -10.26265
 Alpha  occ. eigenvalues --  -10.26208 -10.26188 -10.26172 -10.26111 -10.26106
 Alpha  occ. eigenvalues --  -10.26061 -10.25895 -10.25845 -10.25765 -10.25688
 Alpha  occ. eigenvalues --  -10.25658 -10.25647 -10.25424 -10.25205 -10.25099
 Alpha  occ. eigenvalues --  -10.25073 -10.24997 -10.24508 -10.23694 -10.23627
 Alpha  occ. eigenvalues --  -10.23618 -10.23036  -1.08306  -1.05585  -0.93642
 Alpha  occ. eigenvalues --   -0.93445  -0.92683  -0.91993  -0.90886  -0.90057
 Alpha  occ. eigenvalues --   -0.87892  -0.87746  -0.87367  -0.84856  -0.84288
 Alpha  occ. eigenvalues --   -0.82913  -0.81602  -0.80406  -0.80095  -0.78771
 Alpha  occ. eigenvalues --   -0.77314  -0.77249  -0.77016  -0.76128  -0.75846
 Alpha  occ. eigenvalues --   -0.75603  -0.75060  -0.74841  -0.73859  -0.71281
 Alpha  occ. eigenvalues --   -0.68637  -0.66782  -0.65143  -0.64701  -0.63931
 Alpha  occ. eigenvalues --   -0.63534  -0.62480  -0.61991  -0.60724  -0.60481
 Alpha  occ. eigenvalues --   -0.59619  -0.59269  -0.58132  -0.57389  -0.56201
 Alpha  occ. eigenvalues --   -0.55678  -0.55026  -0.54534  -0.54096  -0.53702
 Alpha  occ. eigenvalues --   -0.53225  -0.52469  -0.52326  -0.51521  -0.51207
 Alpha  occ. eigenvalues --   -0.50854  -0.50694  -0.50170  -0.49968  -0.49344
 Alpha  occ. eigenvalues --   -0.49175  -0.48995  -0.48605  -0.47789  -0.47579
 Alpha  occ. eigenvalues --   -0.47471  -0.47235  -0.46896  -0.46373  -0.46292
 Alpha  occ. eigenvalues --   -0.46004  -0.45907  -0.45377  -0.45063  -0.44535
 Alpha  occ. eigenvalues --   -0.44196  -0.43927  -0.43483  -0.43173  -0.42706
 Alpha  occ. eigenvalues --   -0.42691  -0.42461  -0.42322  -0.42199  -0.42092
 Alpha  occ. eigenvalues --   -0.41837  -0.41604  -0.41280  -0.41047  -0.40487
 Alpha  occ. eigenvalues --   -0.40317  -0.40160  -0.39897  -0.39739  -0.39416
 Alpha  occ. eigenvalues --   -0.38531  -0.38439  -0.38048  -0.37908  -0.37639
 Alpha  occ. eigenvalues --   -0.37516  -0.36645  -0.36051  -0.35811  -0.35454
 Alpha  occ. eigenvalues --   -0.35279  -0.35033  -0.34219  -0.32592  -0.31088
 Alpha  occ. eigenvalues --   -0.30824  -0.30232  -0.28159  -0.25803  -0.23597
 Alpha  occ. eigenvalues --   -0.19304
 Alpha virt. eigenvalues --   -0.05694  -0.00279   0.02608   0.05632   0.07579
 Alpha virt. eigenvalues --    0.08015   0.09821   0.10755   0.10991   0.11554
 Alpha virt. eigenvalues --    0.11871   0.12168   0.12785   0.13172   0.13520

 Mulliken charges:
               1
     1  O   -0.568977
     2  O   -0.580202
     3  C   -0.016805
     4  C   -0.038754
     5  C   -0.185304
     6  C   -0.162428
     7  C    0.188521
     8  C    0.152363
     9  C    0.030706
    10  C    0.068735
    11  C   -0.189058
    12  C   -0.224849
    13  C    0.029579
    14  C    0.075627
    15  C   -0.269331
    16  C   -0.316655
    17  C   -0.307508
    18  C   -0.284437
    19  C   -0.078779
    20  C   -0.135448
    21  C   -0.366912
    22  C   -0.367470
    23  C   -0.128274
    24  C   -0.138118
    25  C    0.102655
    26  C    0.151836
    27  C   -0.392226
    28  C   -0.378351
    29  C   -0.110576
    30  C   -0.117512
    31  C   -0.072478
    32  C   -0.087947
    33  C   -0.118562
    34  C   -0.123952
    35  C    0.145803
    36  C    0.100574
    37  C   -0.382776
    38  C   -0.343820
    39  C   -0.129698
    40  C   -0.129084
    41  C   -0.081104
    42  C   -0.071875
    43  H    0.104782
    44  H    0.060387
    45  H    0.081531
    46  H    0.107350
    47  H    0.050855
    48  H    0.069800
    49  H    0.113876
    50  H    0.123161
    51  H    0.123144
    52  H    0.083969
    53  H    0.089261
    54  H    0.103535
    55  H    0.062793
    56  H    0.120646
    57  H    0.109383
    58  H    0.103470
    59  H    0.117777
    60  H    0.107343
    61  H    0.101520
    62  H    0.113855
    63  H    0.068684
    64  H    0.100778
    65  H    0.087984
    66  H    0.058612
    67  H    0.132885
    68  H    0.137522
    69  H    0.072504
    70  H    0.107194
    71  H    0.131322
    72  H    0.115205
    73  H    0.289437
    74  H    0.309803
    75  H    0.072061
    76  H    0.101229
    77  H    0.111511
    78  H    0.107690
    79  H    0.129147
    80  H    0.111955
    81  H    0.127687
    82  H    0.088375
    83  H    0.085359
    84  H    0.065966
    85  H    0.074152
    86  H    0.081472
    87  H    0.068041
    88  H    0.087214
    89  H    0.139462
    90  H    0.080933
    91  H    0.093734
    92  H    0.097801
    93  H    0.123758
    94  H    0.111001
    95  H    0.083551
    96  H    0.076976
    97  H    0.091653
    98  H    0.081778
 Sum of Mulliken charges =  -0.00000

 Dipole moment (field-independent basis, Debye):
    X=             -2.3892    Y=             -0.9564    Z=              1.8247  Tot=              3.1548
 Quadrupole moment (field-independent basis, Debye-Ang):
   XX=           -278.8705   YY=           -240.6546   ZZ=           -259.6971
   XY=              7.6954   XZ=             -2.1743   YZ=             -0.3776

 Normal termination of Gaussian 16 at Thu Jul 18 20:39:50 2019.
