 Gaussian 16, Revision A.03,
 Gaussian 16:  ES64L-G16RevA.03 25-Dec-2016

 -------------------------------------
 # td=(NStates=1) CAM-B3LYP/6-31G(d,p)
 -------------------------------------

 --
 TD
 --
 Symbolic Z-matrix:
 Charge =  0 Multiplicity = 1

                         Standard orientation:
 ---------------------------------------------------------------------
 Center     Atomic      Atomic             Coordinates (Angstroms)
 Number     Number       Type             X           Y           Z
 ---------------------------------------------------------------------
      1          8           0       14.641883   -2.293495   -0.052485
      2          8           0      -14.697654    1.799048    1.022236
      3          6           0       11.145908   -1.485228    0.949815
      4          6           0      -12.294537   -1.134915    0.658482
      5          6           0       12.594931   -1.808121    1.015475
      6          6           0      -13.704697   -0.371604    0.744835
      7          6           0       13.306487   -1.962643   -0.260452
      8          6           0      -13.506337    1.135219    0.991093
      9          6           0       10.989601   -0.299762    0.051317
     10          6           0      -11.324142   -0.261650   -0.157373
     11          6           0       13.301622   -0.514336   -0.924873
     12          6           0      -12.824726    1.695932   -0.173587
     13          6           0       11.911423    0.142096   -0.852975
     14          6           0      -11.594496    1.012885   -0.600075
     15          6           0       10.713062   -1.084740    2.362602
     16          6           0       10.442154   -2.714440    0.358550
     17          6           0      -11.829458   -1.353692    2.026958
     18          6           0      -12.523052   -2.458739   -0.092325
     19          6           0        9.671058    0.334525    0.139903
     20          6           0      -10.086300   -0.945522   -0.428644
     21          6           0       11.778667    1.212013   -1.926169
     22          6           0      -10.691874    1.838287   -1.436811
     23          6           0        9.348609    1.672334    0.126409
     24          6           0       -8.793646   -0.519772   -0.348338
     25          6           0        8.094615    2.191284    0.221337
     26          6           0       -7.569698   -1.150188   -0.698203
     27          6           0        7.968446    3.677225    0.699002
     28          6           0       -7.614962   -2.539941   -1.151165
     29          6           0        6.878807    1.529638   -0.040532
     30          6           0       -6.339575   -0.435859   -0.418995
     31          6           0        5.702068    2.091047    0.131935
     32          6           0       -5.074067   -1.083349   -0.578821
     33          6           0        4.532038    1.321826   -0.054464
     34          6           0       -3.980968   -0.398439   -0.256695
     35          6           0        3.167980    1.705353   -0.009211
     36          6           0       -2.596591   -0.670296   -0.377293
     37          6           0        2.844567    3.078075    0.353848
     38          6           0       -2.246745   -2.130730   -0.910113
     39          6           0        2.135619    0.787824   -0.247952
     40          6           0       -1.621178    0.216404   -0.219895
     41          6           0        0.731478    1.082244   -0.109648
     42          6           0       -0.225367    0.126765   -0.489241
     43          1           0       13.166578   -1.167816    1.622911
     44          1           0       12.674485   -2.864839    1.542528
     45          1           0      -14.329988   -0.890031    1.606326
     46          1           0      -14.400444   -0.533711   -0.178068
     47          1           0       12.776684   -2.632875   -0.947128
     48          1           0      -13.287462    1.267663    2.041221
     49          1           0       13.910925    0.162722   -0.442975
     50          1           0       13.606361   -0.404899   -1.975811
     51          1           0      -13.700470    1.744469   -1.007459
     52          1           0      -12.653243    2.828503   -0.142590
     53          1           0       10.774373   -1.912361    3.199580
     54          1           0        9.611287   -1.160735    2.329646
     55          1           0       10.985718   -0.014237    2.704749
     56          1           0       10.533865   -3.027400   -0.799841
     57          1           0       10.429844   -3.697602    0.787592
     58          1           0        9.333956   -2.365875    0.583510
     59          1           0      -11.953145   -0.486881    2.712994
     60          1           0      -10.765709   -1.662740    1.736653
     61          1           0      -12.403839   -2.080511    2.545736
     62          1           0      -13.455937   -2.865846    0.138922
     63          1           0      -11.730468   -3.219477   -0.004286
     64          1           0      -12.539621   -2.096434   -1.090025
     65          1           0        8.752921   -0.292275    0.454598
     66          1           0      -10.245162   -1.956521   -0.887952
     67          1           0       10.621971    1.386300   -2.095111
     68          1           0       12.199518    2.058420   -1.690365
     69          1           0       12.251098    0.874504   -2.858748
     70          1           0      -11.296872    2.510567   -2.086692
     71          1           0       -9.910973    1.374069   -2.059094
     72          1           0      -10.329656    2.500182   -0.912686
     73          1           0       14.707932   -3.119320    0.578394
     74          1           0      -15.122141    1.757446    1.879452
     75          1           0       10.299916    2.344241    0.175484
     76          1           0       -8.781875    0.662443    0.106301
     77          1           0        9.036797    3.966921    0.873125
     78          1           0        7.382477    4.335895   -0.049752
     79          1           0        7.233695    3.722970    1.621209
     80          1           0       -7.925434   -3.070463   -0.286206
     81          1           0       -8.488634   -2.711455   -1.949659
     82          1           0       -6.556785   -3.076772   -1.545424
     83          1           0        6.749686    0.509303   -0.165852
     84          1           0       -6.570638    0.634328   -0.124026
     85          1           0        5.758128    3.209677    0.269552
     86          1           0       -4.934773   -2.020320   -0.877901
     87          1           0        4.675470    0.206665   -0.201977
     88          1           0       -3.971894    0.584450    0.040135
     89          1           0        2.388823    3.017584    1.740987
     90          1           0        1.896827    3.715958   -0.189856
     91          1           0        4.026943    3.948812    0.384555
     92          1           0       -2.644915   -2.898844   -0.194244
     93          1           0       -2.502522   -2.222229   -1.928094
     94          1           0       -1.067785   -2.360990   -0.835669
     95          1           0        2.498224   -0.259990   -0.347568
     96          1           0       -1.893859    1.359395    0.321195
     97          1           0        0.348409    1.879451    0.780992
     98          1           0        0.377155   -0.695965   -1.067583
 ---------------------------------------------------------------------

 SCF Done:  E(RCAM-B3LYP) =  -1706.85121644     A.U. after   15 cycles

 Excitation energies and oscillator strengths:

 Excited State   1:      Singlet-A      2.0707 eV  598.76 nm  f=3.5039  <S**2>=0.000
     155 ->158        -0.15830
     156 ->157         0.68861
 This state for optimization and/or second-order correction.
 Total Energy, E(TD-HF/TD-DFT) =  -1706.77512082
 Copying the excited state density for this state as the 1-particle RhoCI density.

 The electronic state is 1-A.
 Alpha  occ. eigenvalues --  -19.21658 -19.20206 -10.32007 -10.30185 -10.29718
 Alpha  occ. eigenvalues --  -10.28057 -10.27977 -10.27883 -10.27710 -10.27674
 Alpha  occ. eigenvalues --  -10.27515 -10.27447 -10.27417 -10.27387 -10.27335
 Alpha  occ. eigenvalues --  -10.27231 -10.27223 -10.27114 -10.26997 -10.26872
 Alpha  occ. eigenvalues --  -10.26759 -10.26644 -10.26576 -10.26556 -10.26431
 Alpha  occ. eigenvalues --  -10.26395 -10.26288 -10.26234 -10.25973 -10.25966
 Alpha  occ. eigenvalues --  -10.25687 -10.25611 -10.25540 -10.25344 -10.25005
 Alpha  occ. eigenvalues --  -10.24724 -10.24722 -10.24380 -10.24151 -10.23657
 Alpha  occ. eigenvalues --  -10.23456 -10.23152  -1.11479  -1.09177  -0.94707
 Alpha  occ. eigenvalues --   -0.93661  -0.92530  -0.92085  -0.90552  -0.89919
 Alpha  occ. eigenvalues --   -0.87892  -0.87654  -0.87086  -0.86001  -0.84383
 Alpha  occ. eigenvalues --   -0.83366  -0.82347  -0.80589  -0.79693  -0.76988
 Alpha  occ. eigenvalues --   -0.76866  -0.76575  -0.76123  -0.76103  -0.75647
 Alpha  occ. eigenvalues --   -0.75588  -0.74416  -0.73758  -0.72875  -0.70494
 Alpha  occ. eigenvalues --   -0.69536  -0.67697  -0.66435  -0.65342  -0.64517
 Alpha  occ. eigenvalues --   -0.64156  -0.62974  -0.61276  -0.60601  -0.59899
 Alpha  occ. eigenvalues --   -0.58955  -0.58728  -0.58129  -0.57033  -0.55936
 Alpha  occ. eigenvalues --   -0.55123  -0.54814  -0.54592  -0.54383  -0.53909
 Alpha  occ. eigenvalues --   -0.53083  -0.52712  -0.52387  -0.51509  -0.50992
 Alpha  occ. eigenvalues --   -0.50493  -0.50112  -0.50100  -0.49697  -0.49389
 Alpha  occ. eigenvalues --   -0.49193  -0.48648  -0.48383  -0.48041  -0.47915
 Alpha  occ. eigenvalues --   -0.47314  -0.47098  -0.46675  -0.46450  -0.46232
 Alpha  occ. eigenvalues --   -0.46130  -0.46013  -0.45288  -0.45197  -0.44936
 Alpha  occ. eigenvalues --   -0.44347  -0.44011  -0.43686  -0.43530  -0.42942
 Alpha  occ. eigenvalues --   -0.42658  -0.42568  -0.42309  -0.41986  -0.41659
 Alpha  occ. eigenvalues --   -0.41541  -0.40953  -0.40719  -0.40677  -0.40406
 Alpha  occ. eigenvalues --   -0.40291  -0.40203  -0.39439  -0.39077  -0.38857
 Alpha  occ. eigenvalues --   -0.38504  -0.38425  -0.38324  -0.38013  -0.37387
 Alpha  occ. eigenvalues --   -0.37214  -0.36730  -0.36514  -0.36458  -0.35655
 Alpha  occ. eigenvalues --   -0.35393  -0.34665  -0.34387  -0.32389  -0.32113
 Alpha  occ. eigenvalues --   -0.30780  -0.29832  -0.28281  -0.26400  -0.22527
 Alpha  occ. eigenvalues --   -0.19168
 Alpha virt. eigenvalues --   -0.06152  -0.02071   0.02020   0.05644   0.07270
 Alpha virt. eigenvalues --    0.08061   0.08697   0.10325   0.10854   0.11277
 Alpha virt. eigenvalues --    0.11362   0.11735   0.12434   0.12682   0.13152

 Mulliken charges:
               1
     1  O   -0.564726
     2  O   -0.556732
     3  C   -0.009963
     4  C   -0.003692
     5  C   -0.179372
     6  C   -0.200446
     7  C    0.198518
     8  C    0.195121
     9  C    0.079544
    10  C    0.020520
    11  C   -0.221496
    12  C   -0.236209
    13  C    0.024013
    14  C    0.099455
    15  C   -0.310369
    16  C   -0.305776
    17  C   -0.274363
    18  C   -0.313244
    19  C   -0.122716
    20  C   -0.152778
    21  C   -0.360460
    22  C   -0.365605
    23  C   -0.123899
    24  C   -0.097927
    25  C    0.075109
    26  C    0.114418
    27  C   -0.375009
    28  C   -0.376662
    29  C   -0.074059
    30  C   -0.116536
    31  C   -0.040814
    32  C   -0.062700
    33  C   -0.165412
    34  C   -0.076558
    35  C    0.180434
    36  C    0.103896
    37  C   -0.306706
    38  C   -0.374631
    39  C   -0.154134
    40  C   -0.145223
    41  C   -0.094335
    42  C   -0.070175
    43  H    0.105665
    44  H    0.047114
    45  H    0.054369
    46  H    0.084988
    47  H    0.076796
    48  H    0.072467
    49  H    0.128465
    50  H    0.095498
    51  H    0.113668
    52  H    0.099024
    53  H    0.092165
    54  H    0.097988
    55  H    0.120546
    56  H    0.104216
    57  H    0.116115
    58  H    0.078494
    59  H    0.090081
    60  H    0.096184
    61  H    0.099591
    62  H    0.107071
    63  H    0.098469
    64  H    0.115151
    65  H    0.085255
    66  H    0.081142
    67  H    0.114644
    68  H    0.135413
    69  H    0.109776
    70  H    0.095209
    71  H    0.124060
    72  H    0.135156
    73  H    0.303722
    74  H    0.298852
    75  H    0.082342
    76  H    0.060769
    77  H    0.106094
    78  H    0.121068
    79  H    0.119605
    80  H    0.142877
    81  H    0.107733
    82  H    0.093415
    83  H    0.070129
    84  H    0.095852
    85  H    0.073046
    86  H    0.079052
    87  H    0.078143
    88  H    0.064687
    89  H    0.044319
    90  H    0.114686
    91  H    0.044710
    92  H    0.117745
    93  H    0.134243
    94  H    0.087958
    95  H    0.088988
    96  H    0.063535
    97  H    0.082017
    98  H    0.091328
 Sum of Mulliken charges =  -0.00000

 Dipole moment (field-independent basis, Debye):
    X=              0.3655    Y=             -1.5708    Z=              1.7950  Tot=              2.4131
 Quadrupole moment (field-independent basis, Debye-Ang):
   XX=           -258.8840   YY=           -244.7824   ZZ=           -260.4770
   XY=             -1.8334   XZ=             -7.1595   YZ=              1.9054

 Normal termination of Gaussian 16 at Wed Jul 10 01:05:52 2019.
