 Gaussian 16, Revision A.03,
 Gaussian 16:  ES64L-G16RevA.03 25-Dec-2016

 -------------------------------------
 # td=(NStates=1) CAM-B3LYP/6-31G(d,p)
 -------------------------------------

 --
 TD
 --
 Symbolic Z-matrix:
 Charge =  0 Multiplicity = 1

                         Standard orientation:
 ---------------------------------------------------------------------
 Center     Atomic      Atomic             Coordinates (Angstroms)
 Number     Number       Type             X           Y           Z
 ---------------------------------------------------------------------
      1          8           0       14.803532   -2.156451   -0.290165
      2          8           0      -14.777440    2.088227    1.013289
      3          6           0       11.304027   -1.347009    1.054583
      4          6           0      -12.358866   -0.990334    0.774237
      5          6           0       12.806434   -1.726032    1.047234
      6          6           0      -13.672444   -0.237897    0.759979
      7          6           0       13.466281   -1.787660   -0.301174
      8          6           0      -13.489939    1.289254    0.899570
      9          6           0       11.112139   -0.232077    0.064796
     10          6           0      -11.305424   -0.201109   -0.115952
     11          6           0       13.314628   -0.505288   -1.045678
     12          6           0      -12.783660    1.793627   -0.290545
     13          6           0       11.966210    0.095167   -0.893837
     14          6           0      -11.534305    1.026032   -0.600223
     15          6           0       10.930367   -0.840680    2.473700
     16          6           0       10.394999   -2.646756    0.650997
     17          6           0      -11.709233   -1.253720    2.199430
     18          6           0      -12.653908   -2.352034    0.129165
     19          6           0        9.777918    0.354050    0.169019
     20          6           0      -10.064264   -1.001385   -0.465310
     21          6           0       11.778400    1.212275   -1.926478
     22          6           0      -10.680861    1.754075   -1.566079
     23          6           0        9.345770    1.598887    0.003931
     24          6           0       -8.764999   -0.538794   -0.603993
     25          6           0        8.017551    2.232166    0.185141
     26          6           0       -7.634410   -1.394801   -0.709048
     27          6           0        7.873608    3.636048    0.520384
     28          6           0       -7.692585   -2.770957   -1.102715
     29          6           0        6.854740    1.481895   -0.021782
     30          6           0       -6.474065   -0.689845   -0.497166
     31          6           0        5.548800    1.952325    0.305059
     32          6           0       -5.121866   -1.188468   -0.558835
     33          6           0        4.398950    1.229620    0.046828
     34          6           0       -3.924936   -0.343605   -0.402905
     35          6           0        3.042678    1.676552    0.145266
     36          6           0       -2.674287   -0.792699   -0.578989
     37          6           0        2.706685    3.046110    0.498316
     38          6           0       -2.303279   -2.201205   -0.807231
     39          6           0        2.062390    0.690112   -0.091435
     40          6           0       -1.676378    0.161877   -0.343944
     41          6           0        0.633832    0.926687   -0.187614
     42          6           0       -0.270550   -0.101955   -0.492064
     43          1           0       13.378331   -0.913934    1.462139
     44          1           0       12.891628   -2.680307    1.714631
     45          1           0      -14.367749   -0.356405    1.508295
     46          1           0      -14.383840   -0.364476   -0.218688
     47          1           0       12.963750   -2.563633   -0.843423
     48          1           0      -12.816013    1.464708    1.651891
     49          1           0       14.040744    0.089172   -0.841283
     50          1           0       13.454487   -0.846116   -2.143433
     51          1           0      -13.529920    1.997885   -0.994800
     52          1           0      -12.435665    2.988747   -0.158436
     53          1           0       11.024973   -1.588747    3.077546
     54          1           0        9.845564   -0.525730    2.557525
     55          1           0       11.595268   -0.060647    2.832804
     56          1           0       10.921336   -3.134570   -0.128497
     57          1           0       10.258530   -3.241814    1.604699
     58          1           0        9.415735   -2.120251    0.494067
     59          1           0      -11.813679   -0.173781    2.800892
     60          1           0      -10.663031   -1.735955    2.392868
     61          1           0      -12.467548   -1.821027    2.624381
     62          1           0      -13.499188   -2.941222    0.452370
     63          1           0      -11.861745   -3.026823    0.238869
     64          1           0      -13.031880   -2.149718   -0.965313
     65          1           0        9.025348   -0.381077    0.740677
     66          1           0      -10.252247   -1.975937   -0.832477
     67          1           0       10.876231    1.497584   -2.138942
     68          1           0       12.450330    2.116403   -1.854089
     69          1           0       12.150407    0.747897   -2.954763
     70          1           0      -11.344848    2.353662   -2.310827
     71          1           0      -10.180338    1.032111   -2.145473
     72          1           0      -10.173784    2.385526   -1.022042
     73          1           0       14.896332   -2.992439    0.114819
     74          1           0      -15.358297    1.553827    1.568206
     75          1           0        9.992005    2.451438   -0.249480
     76          1           0       -8.668713    0.402471   -0.147253
     77          1           0        8.929668    4.324331    0.176939
     78          1           0        7.049213    4.140699   -0.126069
     79          1           0        7.557537    3.833978    1.575001
     80          1           0       -8.090787   -3.246625    0.021772
     81          1           0       -8.373116   -3.107412   -1.777209
     82          1           0       -6.593354   -3.171809   -1.219749
     83          1           0        7.078763    0.383132   -0.254004
     84          1           0       -6.566975    0.331273   -0.195692
     85          1           0        5.495987    2.973906    0.517630
     86          1           0       -4.967516   -2.186119   -1.122045
     87          1           0        4.665513    0.225155   -0.142039
     88          1           0       -4.147827    0.586553   -0.010917
     89          1           0        3.366837    3.362988    1.378181
     90          1           0        1.567880    3.102313    0.872614
     91          1           0        2.947729    3.845045   -0.135957
     92          1           0       -3.316140   -2.678354   -0.260759
     93          1           0       -2.289633   -2.535264   -1.858683
     94          1           0       -1.237812   -2.706474   -0.230196
     95          1           0        2.353375   -0.273024   -0.087530
     96          1           0       -1.811957    1.098871   -0.094495
     97          1           0        0.334796    1.772813    0.104904
     98          1           0        0.229685   -1.091716   -0.751985
 ---------------------------------------------------------------------

 SCF Done:  E(RCAM-B3LYP) =  -1706.92779042     A.U. after   15 cycles

 Excitation energies and oscillator strengths:

 Excited State   1:      Singlet-A      2.1043 eV  589.19 nm  f=3.6899  <S**2>=0.000
     155 ->158         0.14901
     156 ->157         0.69222
 This state for optimization and/or second-order correction.
 Total Energy, E(TD-HF/TD-DFT) =  -1706.85045865
 Copying the excited state density for this state as the 1-particle RhoCI density.

 The electronic state is 1-A.
 Alpha  occ. eigenvalues --  -19.21238 -19.20743 -10.29218 -10.29211 -10.28988
 Alpha  occ. eigenvalues --  -10.28426 -10.27940 -10.27694 -10.27505 -10.27366
 Alpha  occ. eigenvalues --  -10.27232 -10.27082 -10.26944 -10.26934 -10.26836
 Alpha  occ. eigenvalues --  -10.26762 -10.26665 -10.26634 -10.26428 -10.26284
 Alpha  occ. eigenvalues --  -10.26158 -10.26023 -10.25943 -10.25940 -10.25932
 Alpha  occ. eigenvalues --  -10.25866 -10.25792 -10.25756 -10.25742 -10.25594
 Alpha  occ. eigenvalues --  -10.25565 -10.25538 -10.25500 -10.25379 -10.25207
 Alpha  occ. eigenvalues --  -10.24928 -10.24914 -10.24872 -10.24716 -10.23883
 Alpha  occ. eigenvalues --  -10.23450 -10.23280  -1.11066  -1.06857  -0.94117
 Alpha  occ. eigenvalues --   -0.93629  -0.92636  -0.91869  -0.91386  -0.90139
 Alpha  occ. eigenvalues --   -0.87561  -0.87210  -0.87064  -0.85631  -0.85047
 Alpha  occ. eigenvalues --   -0.83147  -0.82033  -0.80402  -0.80113  -0.78448
 Alpha  occ. eigenvalues --   -0.77041  -0.76925  -0.76188  -0.76145  -0.76064
 Alpha  occ. eigenvalues --   -0.75936  -0.75746  -0.75449  -0.73137  -0.70925
 Alpha  occ. eigenvalues --   -0.69391  -0.67154  -0.66154  -0.65527  -0.64834
 Alpha  occ. eigenvalues --   -0.64449  -0.63676  -0.62769  -0.61019  -0.60286
 Alpha  occ. eigenvalues --   -0.59928  -0.59753  -0.58514  -0.58162  -0.56587
 Alpha  occ. eigenvalues --   -0.55818  -0.55345  -0.54939  -0.54771  -0.54219
 Alpha  occ. eigenvalues --   -0.53465  -0.52911  -0.52059  -0.51545  -0.51239
 Alpha  occ. eigenvalues --   -0.51101  -0.50550  -0.50262  -0.50139  -0.49555
 Alpha  occ. eigenvalues --   -0.49062  -0.48625  -0.48471  -0.48361  -0.48233
 Alpha  occ. eigenvalues --   -0.47798  -0.47569  -0.47033  -0.46722  -0.46265
 Alpha  occ. eigenvalues --   -0.46127  -0.45631  -0.45496  -0.45230  -0.45030
 Alpha  occ. eigenvalues --   -0.44855  -0.44559  -0.44308  -0.43926  -0.43341
 Alpha  occ. eigenvalues --   -0.43287  -0.43126  -0.43032  -0.42854  -0.42089
 Alpha  occ. eigenvalues --   -0.41799  -0.41630  -0.41430  -0.40853  -0.40479
 Alpha  occ. eigenvalues --   -0.40386  -0.40245  -0.40107  -0.39955  -0.39271
 Alpha  occ. eigenvalues --   -0.38891  -0.38847  -0.38516  -0.38218  -0.37995
 Alpha  occ. eigenvalues --   -0.37688  -0.36770  -0.36518  -0.36197  -0.35686
 Alpha  occ. eigenvalues --   -0.35352  -0.34924  -0.34355  -0.32760  -0.32150
 Alpha  occ. eigenvalues --   -0.31687  -0.30066  -0.28274  -0.26477  -0.23075
 Alpha  occ. eigenvalues --   -0.19010
 Alpha virt. eigenvalues --   -0.06085  -0.01110   0.02712   0.05521   0.07932
 Alpha virt. eigenvalues --    0.09735   0.10799   0.11417   0.11711   0.11994
 Alpha virt. eigenvalues --    0.12569   0.12699   0.13079   0.13385   0.13718

 Mulliken charges:
               1
     1  O   -0.552638
     2  O   -0.577515
     3  C   -0.057490
     4  C   -0.003277
     5  C   -0.202145
     6  C   -0.192637
     7  C    0.167510
     8  C    0.139541
     9  C    0.127538
    10  C    0.053241
    11  C   -0.206414
    12  C   -0.208152
    13  C    0.031032
    14  C    0.044166
    15  C   -0.294304
    16  C   -0.299674
    17  C   -0.301235
    18  C   -0.310310
    19  C   -0.128662
    20  C   -0.160050
    21  C   -0.346494
    22  C   -0.346668
    23  C   -0.099332
    24  C   -0.105836
    25  C    0.091455
    26  C    0.147164
    27  C   -0.379311
    28  C   -0.354822
    29  C   -0.113035
    30  C   -0.127805
    31  C   -0.095058
    32  C   -0.147548
    33  C   -0.099401
    34  C   -0.097022
    35  C    0.127997
    36  C    0.141259
    37  C   -0.386325
    38  C   -0.360754
    39  C   -0.124277
    40  C   -0.108985
    41  C   -0.052946
    42  C   -0.085714
    43  H    0.099418
    44  H    0.063923
    45  H    0.085540
    46  H    0.088588
    47  H    0.064713
    48  H    0.101967
    49  H    0.128596
    50  H    0.101566
    51  H    0.129560
    52  H    0.062089
    53  H    0.107298
    54  H    0.097208
    55  H    0.108565
    56  H    0.118186
    57  H    0.097436
    58  H    0.104679
    59  H    0.074465
    60  H    0.119493
    61  H    0.114834
    62  H    0.104281
    63  H    0.107579
    64  H    0.094100
    65  H    0.073801
    66  H    0.088142
    67  H    0.124809
    68  H    0.111960
    69  H    0.080455
    70  H    0.093018
    71  H    0.125958
    72  H    0.132405
    73  H    0.300781
    74  H    0.302353
    75  H    0.078542
    76  H    0.088932
    77  H    0.068687
    78  H    0.118849
    79  H    0.132399
    80  H    0.086111
    81  H    0.137470
    82  H    0.107963
    83  H    0.074299
    84  H    0.080301
    85  H    0.068994
    86  H    0.081533
    87  H    0.080381
    88  H    0.087702
    89  H    0.113010
    90  H    0.101247
    91  H    0.136699
    92  H    0.094320
    93  H    0.130916
    94  H    0.089453
    95  H    0.077359
    96  H    0.074140
    97  H    0.053272
    98  H    0.084589
 Sum of Mulliken charges =  -0.00000

 Dipole moment (field-independent basis, Debye):
    X=             -0.2089    Y=             -2.2607    Z=              1.4637  Tot=              2.7012
 Quadrupole moment (field-independent basis, Debye-Ang):
   XX=           -276.1994   YY=           -245.1657   ZZ=           -262.1934
   XY=             19.6287   XZ=              1.1835   YZ=              0.1002

 Normal termination of Gaussian 16 at Fri Jul 19 10:07:58 2019.
