 Gaussian 16, Revision A.03,
 Gaussian 16:  ES64L-G16RevA.03 25-Dec-2016

 -------------------------------------
 # td=(NStates=1) CAM-B3LYP/6-31G(d,p)
 -------------------------------------

 --
 TD
 --
 Symbolic Z-matrix:
 Charge =  0 Multiplicity = 1

                         Standard orientation:
 ---------------------------------------------------------------------
 Center     Atomic      Atomic             Coordinates (Angstroms)
 Number     Number       Type             X           Y           Z
 ---------------------------------------------------------------------
      1          8           0       14.631170   -2.546677   -0.259089
      2          8           0      -14.741850    1.612756    1.324695
      3          6           0       11.013093   -1.614740    1.001581
      4          6           0      -12.280735   -1.206165    0.707718
      5          6           0       12.555519   -2.033764    1.048689
      6          6           0      -13.656437   -0.432787    0.866175
      7          6           0       13.207342   -2.115570   -0.257521
      8          6           0      -13.567985    0.992764    1.232926
      9          6           0       10.923115   -0.294825    0.219225
     10          6           0      -11.321774   -0.285340   -0.107080
     11          6           0       13.160143   -0.599988   -0.752352
     12          6           0      -12.886155    1.672346    0.018711
     13          6           0       11.847943    0.151411   -0.673634
     14          6           0      -11.606315    1.002049   -0.441624
     15          6           0       10.604688   -1.462801    2.438962
     16          6           0       10.074343   -2.675775    0.304161
     17          6           0      -11.712323   -1.433609    2.156013
     18          6           0      -12.508413   -2.532338   -0.034325
     19          6           0        9.603750    0.346086    0.386941
     20          6           0       -9.953869   -0.827693   -0.484576
     21          6           0       11.791897    1.328884   -1.529353
     22          6           0      -10.713131    1.856381   -1.422688
     23          6           0        9.369494    1.684711    0.198270
     24          6           0       -8.692900   -0.251727   -0.559505
     25          6           0        8.111157    2.361204    0.160743
     26          6           0       -7.521426   -1.039421   -0.836485
     27          6           0        8.000534    3.887610    0.428013
     28          6           0       -7.728774   -2.579780   -1.346197
     29          6           0        6.921388    1.632633    0.100861
     30          6           0       -6.372586   -0.450535   -0.590714
     31          6           0        5.610565    2.199403    0.159238
     32          6           0       -5.036700   -0.917636   -0.847484
     33          6           0        4.553809    1.332113   -0.011166
     34          6           0       -3.961963   -0.161131   -0.556967
     35          6           0        3.185592    1.782892    0.071535
     36          6           0       -2.587660   -0.610489   -0.719168
     37          6           0        3.009483    3.205386    0.486160
     38          6           0       -2.251639   -1.977183   -1.155805
     39          6           0        2.183727    0.835042   -0.212676
     40          6           0       -1.571825    0.311868   -0.379886
     41          6           0        0.776281    1.105246   -0.202937
     42          6           0       -0.169346    0.095958   -0.492802
     43          1           0       13.042533   -1.346191    1.635316
     44          1           0       12.482839   -2.989276    1.343128
     45          1           0      -14.238401   -1.120104    1.335117
     46          1           0      -14.116683   -0.614872   -0.294380
     47          1           0       12.808802   -2.743304   -0.859892
     48          1           0      -12.989566    1.037307    2.082548
     49          1           0       14.168435   -0.124329   -0.349852
     50          1           0       13.659642   -0.582380   -1.849659
     51          1           0      -13.664367    1.655624   -0.813952
     52          1           0      -12.561587    2.721876    0.196320
     53          1           0       10.871648   -2.567590    2.903819
     54          1           0        9.708508   -1.076382    2.216421
     55          1           0       11.213702   -0.695928    2.970415
     56          1           0       10.550593   -2.977884   -0.726117
     57          1           0        9.798411   -3.561368    1.072948
     58          1           0        9.061282   -2.136259    0.194689
     59          1           0      -11.345202   -0.555066    2.630451
     60          1           0      -10.823130   -2.011877    1.982081
     61          1           0      -12.553564   -2.081717    2.696539
     62          1           0      -13.161876   -3.184497    0.565963
     63          1           0      -11.506309   -3.031633   -0.097661
     64          1           0      -13.049323   -2.183464   -1.073334
     65          1           0        8.796413   -0.307786    0.530725
     66          1           0       -9.875334   -1.856449   -0.644737
     67          1           0       10.864593    1.995608   -1.748575
     68          1           0       12.664841    2.055868   -1.226306
     69          1           0       11.851874    1.128735   -2.681253
     70          1           0      -11.254377    2.752471   -2.008593
     71          1           0      -10.089148    1.169212   -1.999466
     72          1           0       -9.884501    2.203326   -0.772089
     73          1           0       14.653874   -3.275236    0.343426
     74          1           0      -15.093857    1.648372    2.372784
     75          1           0       10.300078    2.427688    0.302178
     76          1           0       -8.522743    0.574190   -0.116324
     77          1           0        9.158487    4.324028    0.317109
     78          1           0        7.423672    4.326398   -0.364643
     79          1           0        7.552275    4.191999    1.344960
     80          1           0       -8.158761   -3.104632   -0.367024
     81          1           0       -8.439958   -2.853950   -2.213520
     82          1           0       -6.508753   -2.624011   -1.609595
     83          1           0        6.979718    0.511754   -0.021014
     84          1           0       -6.386487    0.475344   -0.148377
     85          1           0        5.700932    3.332874    0.132234
     86          1           0       -4.840831   -1.896761   -1.259271
     87          1           0        4.784618    0.367370   -0.413123
     88          1           0       -4.081606    0.831372   -0.215249
     89          1           0        3.318700    3.411886    1.344553
     90          1           0        1.921575    3.430584    0.570268
     91          1           0        3.526608    3.792256   -0.459239
     92          1           0       -2.326246   -2.788424   -0.283355
     93          1           0       -2.963935   -2.445517   -2.043379
     94          1           0       -1.038366   -2.074225   -1.499812
     95          1           0        2.461957   -0.087350   -0.523921
     96          1           0       -2.003040    1.222947   -0.153465
     97          1           0        0.407094    2.067345   -0.144753
     98          1           0        0.218238   -0.970754   -0.852763
 ---------------------------------------------------------------------

 SCF Done:  E(RCAM-B3LYP) =  -1706.89394172     A.U. after   14 cycles

 Excitation energies and oscillator strengths:

 Excited State   1:      Singlet-A      2.2319 eV  555.51 nm  f=3.5593  <S**2>=0.000
     155 ->158         0.16841
     156 ->157         0.68334
 This state for optimization and/or second-order correction.
 Total Energy, E(TD-HF/TD-DFT) =  -1706.81192166
 Copying the excited state density for this state as the 1-particle RhoCI density.

 The electronic state is 1-A.
 Alpha  occ. eigenvalues --  -19.22375 -19.20237 -10.29483 -10.29131 -10.29092
 Alpha  occ. eigenvalues --  -10.28624 -10.27880 -10.27814 -10.27758 -10.27523
 Alpha  occ. eigenvalues --  -10.27522 -10.27496 -10.27298 -10.27145 -10.27014
 Alpha  occ. eigenvalues --  -10.26830 -10.26788 -10.26693 -10.26667 -10.26634
 Alpha  occ. eigenvalues --  -10.26552 -10.26416 -10.26365 -10.26330 -10.26096
 Alpha  occ. eigenvalues --  -10.26044 -10.26022 -10.25992 -10.25959 -10.25933
 Alpha  occ. eigenvalues --  -10.25904 -10.25711 -10.25675 -10.25626 -10.25509
 Alpha  occ. eigenvalues --  -10.25192 -10.25156 -10.24909 -10.24853 -10.24338
 Alpha  occ. eigenvalues --  -10.24229 -10.23019  -1.11048  -1.07598  -0.93843
 Alpha  occ. eigenvalues --   -0.92598  -0.92046  -0.91751  -0.90438  -0.89698
 Alpha  occ. eigenvalues --   -0.87296  -0.86878  -0.85906  -0.85439  -0.84492
 Alpha  occ. eigenvalues --   -0.82961  -0.81922  -0.80253  -0.79237  -0.77936
 Alpha  occ. eigenvalues --   -0.76178  -0.75759  -0.75710  -0.75436  -0.75196
 Alpha  occ. eigenvalues --   -0.75009  -0.74594  -0.74460  -0.73218  -0.70789
 Alpha  occ. eigenvalues --   -0.69283  -0.67492  -0.66260  -0.65186  -0.63809
 Alpha  occ. eigenvalues --   -0.62921  -0.62649  -0.62231  -0.61333  -0.60909
 Alpha  occ. eigenvalues --   -0.60567  -0.58989  -0.58474  -0.57884  -0.56364
 Alpha  occ. eigenvalues --   -0.55635  -0.54999  -0.54894  -0.54513  -0.53956
 Alpha  occ. eigenvalues --   -0.53226  -0.52797  -0.52093  -0.51675  -0.50830
 Alpha  occ. eigenvalues --   -0.50745  -0.50499  -0.50017  -0.49108  -0.48786
 Alpha  occ. eigenvalues --   -0.48629  -0.48127  -0.48012  -0.47618  -0.47486
 Alpha  occ. eigenvalues --   -0.47328  -0.47007  -0.46780  -0.46426  -0.46248
 Alpha  occ. eigenvalues --   -0.45847  -0.45654  -0.45512  -0.45345  -0.44781
 Alpha  occ. eigenvalues --   -0.44688  -0.44306  -0.44210  -0.43914  -0.43798
 Alpha  occ. eigenvalues --   -0.43319  -0.42849  -0.42462  -0.42379  -0.42149
 Alpha  occ. eigenvalues --   -0.41906  -0.41274  -0.40556  -0.40458  -0.40046
 Alpha  occ. eigenvalues --   -0.39929  -0.39811  -0.39698  -0.39533  -0.39430
 Alpha  occ. eigenvalues --   -0.39322  -0.38760  -0.38583  -0.38244  -0.37940
 Alpha  occ. eigenvalues --   -0.37088  -0.36690  -0.36181  -0.35613  -0.35199
 Alpha  occ. eigenvalues --   -0.35007  -0.34570  -0.33917  -0.32544  -0.32314
 Alpha  occ. eigenvalues --   -0.31748  -0.30053  -0.28354  -0.25527  -0.23002
 Alpha  occ. eigenvalues --   -0.19550
 Alpha virt. eigenvalues --   -0.05573  -0.01210   0.01991   0.05336   0.07959
 Alpha virt. eigenvalues --    0.08683   0.09532   0.10858   0.11173   0.11523
 Alpha virt. eigenvalues --    0.11992   0.12465   0.12655   0.13087   0.13527

 Mulliken charges:
               1
     1  O   -0.578531
     2  O   -0.546754
     3  C   -0.067085
     4  C   -0.044937
     5  C   -0.174450
     6  C   -0.160499
     7  C    0.182503
     8  C    0.203761
     9  C    0.068601
    10  C    0.078845
    11  C   -0.265756
    12  C   -0.224725
    13  C    0.117097
    14  C    0.034301
    15  C   -0.255993
    16  C   -0.295758
    17  C   -0.289332
    18  C   -0.287983
    19  C   -0.120551
    20  C   -0.138189
    21  C   -0.377291
    22  C   -0.366117
    23  C   -0.120024
    24  C   -0.084733
    25  C    0.059564
    26  C    0.083145
    27  C   -0.373368
    28  C   -0.339929
    29  C   -0.102595
    30  C   -0.122278
    31  C   -0.082793
    32  C   -0.082480
    33  C   -0.118699
    34  C   -0.114601
    35  C    0.074858
    36  C    0.132043
    37  C   -0.335399
    38  C   -0.368565
    39  C   -0.104108
    40  C   -0.112403
    41  C   -0.084682
    42  C   -0.097341
    43  H    0.112457
    44  H    0.072328
    45  H    0.082606
    46  H    0.045551
    47  H    0.089139
    48  H    0.079286
    49  H    0.112359
    50  H    0.082265
    51  H    0.119541
    52  H    0.095845
    53  H    0.083605
    54  H    0.104074
    55  H    0.103908
    56  H    0.110032
    57  H    0.089830
    58  H    0.099162
    59  H    0.112615
    60  H    0.102410
    61  H    0.081821
    62  H    0.101209
    63  H    0.101001
    64  H    0.098386
    65  H    0.087295
    66  H    0.060854
    67  H    0.118403
    68  H    0.108318
    69  H    0.100659
    70  H    0.100439
    71  H    0.132925
    72  H    0.116534
    73  H    0.298158
    74  H    0.307212
    75  H    0.084718
    76  H    0.066367
    77  H    0.081380
    78  H    0.128191
    79  H    0.138745
    80  H    0.116038
    81  H    0.127727
    82  H    0.089969
    83  H    0.071469
    84  H    0.077680
    85  H    0.091270
    86  H    0.083084
    87  H    0.093899
    88  H    0.079698
    89  H    0.138413
    90  H    0.096660
    91  H    0.105280
    92  H    0.116776
    93  H    0.099750
    94  H    0.086248
    95  H    0.075912
    96  H    0.075891
    97  H    0.088519
    98  H    0.079316
 Sum of Mulliken charges =  -0.00000

 Dipole moment (field-independent basis, Debye):
    X=             -1.9760    Y=             -0.0584    Z=              2.4699  Tot=              3.1636
 Quadrupole moment (field-independent basis, Debye-Ang):
   XX=           -301.9652   YY=           -243.0302   ZZ=           -260.2554
   XY=              4.6802   XZ=            -15.7344   YZ=              1.3246

 Normal termination of Gaussian 16 at Mon Jul 15 08:08:20 2019.
