 Gaussian 16, Revision A.03,
 Gaussian 16:  ES64L-G16RevA.03 25-Dec-2016

 -------------------------------------
 # td=(NStates=1) CAM-B3LYP/6-31G(d,p)
 -------------------------------------

 --
 TD
 --
 Symbolic Z-matrix:
 Charge =  0 Multiplicity = 1

                         Standard orientation:
 ---------------------------------------------------------------------
 Center     Atomic      Atomic             Coordinates (Angstroms)
 Number     Number       Type             X           Y           Z
 ---------------------------------------------------------------------
      1          8           0       14.561963   -2.365021   -0.211461
      2          8           0      -14.509072    2.137185    1.324311
      3          6           0       11.139903   -1.415516    1.150573
      4          6           0      -12.262388   -1.042793    0.669368
      5          6           0       12.634000   -1.753302    1.054448
      6          6           0      -13.618742   -0.139639    0.792094
      7          6           0       13.222920   -1.885785   -0.301196
      8          6           0      -13.376172    1.312694    1.077051
      9          6           0       10.973906   -0.319822    0.066886
     10          6           0      -11.267057   -0.229975   -0.207991
     11          6           0       13.236367   -0.549984   -1.033735
     12          6           0      -12.658033    1.765516   -0.207692
     13          6           0       11.887093    0.043868   -0.939485
     14          6           0      -11.439298    0.980043   -0.665021
     15          6           0       10.766853   -0.897159    2.580583
     16          6           0       10.408695   -2.703402    0.781538
     17          6           0      -11.670639   -1.244083    2.076390
     18          6           0      -12.740080   -2.465342    0.026784
     19          6           0        9.577800    0.336397    0.115916
     20          6           0      -10.067420   -1.030342   -0.572743
     21          6           0       11.595352    1.088888   -1.961588
     22          6           0      -10.512019    1.634891   -1.656500
     23          6           0        9.380490    1.592832   -0.001681
     24          6           0       -8.799048   -0.625668   -0.420285
     25          6           0        8.065852    2.300340    0.132178
     26          6           0       -7.583861   -1.293418   -0.687389
     27          6           0        7.938875    3.747226    0.239135
     28          6           0       -7.676490   -2.714881   -1.202515
     29          6           0        6.858303    1.665700   -0.029895
     30          6           0       -6.331930   -0.692374   -0.569465
     31          6           0        5.512444    2.168117    0.202893
     32          6           0       -5.059515   -1.300278   -0.654792
     33          6           0        4.370574    1.381788    0.118497
     34          6           0       -3.946725   -0.471889   -0.600463
     35          6           0        3.020594    1.862995    0.238836
     36          6           0       -2.531950   -0.873164   -0.540282
     37          6           0        2.694266    3.352168    0.451534
     38          6           0       -2.161764   -2.297721   -0.752420
     39          6           0        2.088418    0.937673   -0.001352
     40          6           0       -1.601112    0.086508   -0.382029
     41          6           0        0.606662    1.009216   -0.008030
     42          6           0       -0.174116   -0.051615   -0.245795
     43          1           0       13.426303   -0.979830    1.443922
     44          1           0       13.135219   -2.647755    1.713220
     45          1           0      -14.198431   -0.465871    1.609525
     46          1           0      -14.327509   -0.246708   -0.121338
     47          1           0       12.765701   -2.804857   -0.936350
     48          1           0      -12.736315    1.415521    2.115926
     49          1           0       14.194414   -0.149347   -0.630400
     50          1           0       13.324697   -0.854475   -2.238666
     51          1           0      -13.422447    1.669371   -1.033116
     52          1           0      -12.185163    2.823024    0.214386
     53          1           0       11.136430   -1.635173    3.477565
     54          1           0        9.719897   -0.991211    2.753728
     55          1           0       10.940622    0.120206    2.549517
     56          1           0       10.718019   -2.729946   -0.131429
     57          1           0       10.781450   -3.772171    1.331941
     58          1           0        9.136682   -2.698490    0.977421
     59          1           0      -11.636011   -0.218342    2.589930
     60          1           0      -10.746931   -1.471775    2.135619
     61          1           0      -12.203735   -1.879822    2.682580
     62          1           0      -13.513894   -2.875475    0.643339
     63          1           0      -11.867481   -3.012430   -0.081054
     64          1           0      -13.073893   -2.176900   -1.086624
     65          1           0        8.852831   -0.489658    0.317015
     66          1           0      -10.230233   -2.074636   -1.037189
     67          1           0       10.406372    1.258512   -2.198486
     68          1           0       11.634491    2.285764   -1.781713
     69          1           0       12.246662    0.906081   -2.972555
     70          1           0      -11.041665    2.214755   -2.529963
     71          1           0       -9.863966    0.993666   -2.269492
     72          1           0      -10.036634    2.534505   -1.172536
     73          1           0       14.560059   -3.108234    0.643813
     74          1           0      -15.114779    1.577548    1.837652
     75          1           0       10.102111    2.504731   -0.371838
     76          1           0       -8.663742    0.358500   -0.092010
     77          1           0        8.941067    4.173667    0.529938
     78          1           0        7.600472    4.209406   -0.820138
     79          1           0        7.221512    4.045745    1.013479
     80          1           0       -8.119305   -3.256834   -0.133852
     81          1           0       -8.543860   -2.864814   -1.918882
     82          1           0       -6.809784   -3.088124   -1.542194
     83          1           0        6.901232    0.471545   -0.339321
     84          1           0       -6.342119    0.382161   -0.380232
     85          1           0        5.592014    3.290285    0.426378
     86          1           0       -4.954778   -2.499517   -0.588089
     87          1           0        4.446813    0.134512    0.054754
     88          1           0       -4.082198    0.610330   -0.234380
     89          1           0        3.643526    4.001715    1.017474
     90          1           0        1.767868    3.347163    1.008724
     91          1           0        2.568436    3.834659   -0.851767
     92          1           0       -2.805706   -2.809645   -0.200188
     93          1           0       -2.367356   -2.580970   -1.822415
     94          1           0       -0.936918   -2.615934   -0.766173
     95          1           0        2.489989   -0.105343   -0.319592
     96          1           0       -2.074036    1.138652   -0.234642
     97          1           0        0.102811    2.039673    0.525269
     98          1           0        0.112012   -1.026980   -0.473439
 ---------------------------------------------------------------------

 SCF Done:  E(RCAM-B3LYP) =  -1706.81642461     A.U. after   14 cycles

 Excitation energies and oscillator strengths:

 Excited State   1:      Singlet-A      2.6768 eV  463.18 nm  f=3.6091  <S**2>=0.000
     155 ->158         0.19501
     156 ->157         0.67383
 This state for optimization and/or second-order correction.
 Total Energy, E(TD-HF/TD-DFT) =  -1706.71805306
 Copying the excited state density for this state as the 1-particle RhoCI density.

 The electronic state is 1-A.
 Alpha  occ. eigenvalues --  -19.21575 -19.21501 -10.31136 -10.30594 -10.30318
 Alpha  occ. eigenvalues --  -10.28997 -10.28870 -10.28547 -10.28396 -10.28214
 Alpha  occ. eigenvalues --  -10.28204 -10.28092 -10.27795 -10.27695 -10.27546
 Alpha  occ. eigenvalues --  -10.27500 -10.27346 -10.27285 -10.27210 -10.27066
 Alpha  occ. eigenvalues --  -10.26952 -10.26943 -10.26849 -10.26789 -10.26705
 Alpha  occ. eigenvalues --  -10.26661 -10.26646 -10.26563 -10.26540 -10.26504
 Alpha  occ. eigenvalues --  -10.26462 -10.26438 -10.26404 -10.26334 -10.26277
 Alpha  occ. eigenvalues --  -10.26103 -10.25941 -10.25606 -10.25473 -10.25076
 Alpha  occ. eigenvalues --  -10.24948 -10.22931  -1.09583  -1.07187  -0.93828
 Alpha  occ. eigenvalues --   -0.93379  -0.92232  -0.91503  -0.90778  -0.90227
 Alpha  occ. eigenvalues --   -0.87356  -0.87172  -0.86312  -0.85688  -0.84985
 Alpha  occ. eigenvalues --   -0.83135  -0.81840  -0.80163  -0.79789  -0.77601
 Alpha  occ. eigenvalues --   -0.77265  -0.76976  -0.76186  -0.75756  -0.75259
 Alpha  occ. eigenvalues --   -0.74881  -0.74739  -0.74679  -0.73405  -0.70437
 Alpha  occ. eigenvalues --   -0.68497  -0.66763  -0.65033  -0.64558  -0.64001
 Alpha  occ. eigenvalues --   -0.63844  -0.62455  -0.61070  -0.59669  -0.59350
 Alpha  occ. eigenvalues --   -0.58123  -0.57961  -0.57367  -0.56919  -0.56020
 Alpha  occ. eigenvalues --   -0.55768  -0.55260  -0.54378  -0.53541  -0.53416
 Alpha  occ. eigenvalues --   -0.52517  -0.52174  -0.51411  -0.51220  -0.51077
 Alpha  occ. eigenvalues --   -0.50713  -0.50382  -0.50135  -0.49277  -0.49221
 Alpha  occ. eigenvalues --   -0.48749  -0.48498  -0.48318  -0.47944  -0.47775
 Alpha  occ. eigenvalues --   -0.47529  -0.47154  -0.47075  -0.46740  -0.46314
 Alpha  occ. eigenvalues --   -0.45907  -0.45802  -0.45684  -0.45418  -0.44789
 Alpha  occ. eigenvalues --   -0.44562  -0.44357  -0.43826  -0.43332  -0.43114
 Alpha  occ. eigenvalues --   -0.42976  -0.42862  -0.42821  -0.42358  -0.41831
 Alpha  occ. eigenvalues --   -0.41809  -0.41396  -0.40947  -0.40621  -0.40301
 Alpha  occ. eigenvalues --   -0.40127  -0.39592  -0.39530  -0.39412  -0.39277
 Alpha  occ. eigenvalues --   -0.38567  -0.38413  -0.38275  -0.37654  -0.37482
 Alpha  occ. eigenvalues --   -0.37105  -0.36771  -0.36336  -0.36147  -0.35645
 Alpha  occ. eigenvalues --   -0.35179  -0.34827  -0.33994  -0.32508  -0.31909
 Alpha  occ. eigenvalues --   -0.30895  -0.29853  -0.28561  -0.27255  -0.23799
 Alpha  occ. eigenvalues --   -0.20977
 Alpha virt. eigenvalues --   -0.04665  -0.01209   0.02359   0.04903   0.07255
 Alpha virt. eigenvalues --    0.08364   0.08944   0.09680   0.10369   0.10558
 Alpha virt. eigenvalues --    0.11109   0.11875   0.12141   0.12385   0.12507

 Mulliken charges:
               1
     1  O   -0.582703
     2  O   -0.553263
     3  C   -0.004064
     4  C   -0.013446
     5  C   -0.191514
     6  C   -0.208775
     7  C    0.186506
     8  C    0.179400
     9  C   -0.009802
    10  C    0.051863
    11  C   -0.217371
    12  C   -0.214635
    13  C    0.118883
    14  C    0.081165
    15  C   -0.297579
    16  C   -0.260315
    17  C   -0.295389
    18  C   -0.302249
    19  C   -0.123840
    20  C   -0.164179
    21  C   -0.366867
    22  C   -0.367628
    23  C   -0.054038
    24  C   -0.066923
    25  C    0.065095
    26  C    0.105634
    27  C   -0.383191
    28  C   -0.343231
    29  C   -0.093185
    30  C   -0.131236
    31  C   -0.103302
    32  C   -0.092954
    33  C   -0.118244
    34  C   -0.126731
    35  C    0.132536
    36  C    0.119780
    37  C   -0.312360
    38  C   -0.364633
    39  C   -0.132820
    40  C   -0.138580
    41  C   -0.097459
    42  C   -0.044280
    43  H    0.095621
    44  H    0.044434
    45  H    0.071101
    46  H    0.086812
    47  H    0.064989
    48  H    0.058650
    49  H    0.136437
    50  H    0.089854
    51  H    0.119844
    52  H    0.087149
    53  H    0.088689
    54  H    0.107410
    55  H    0.122949
    56  H    0.127078
    57  H    0.077700
    58  H    0.069654
    59  H    0.086893
    60  H    0.117991
    61  H    0.103405
    62  H    0.115538
    63  H    0.115418
    64  H    0.089585
    65  H    0.105173
    66  H    0.078392
    67  H    0.107668
    68  H    0.103430
    69  H    0.088760
    70  H    0.093092
    71  H    0.131592
    72  H    0.113534
    73  H    0.296107
    74  H    0.304871
    75  H    0.083854
    76  H    0.078475
    77  H    0.097136
    78  H    0.114042
    79  H    0.128908
    80  H    0.080605
    81  H    0.116279
    82  H    0.113444
    83  H    0.051835
    84  H    0.081917
    85  H    0.081945
    86  H    0.093952
    87  H    0.083114
    88  H    0.090053
    89  H    0.092863
    90  H    0.126979
    91  H    0.080848
    92  H    0.129290
    93  H    0.124268
    94  H    0.090474
    95  H    0.077290
    96  H    0.064752
    97  H    0.074795
    98  H    0.078988
 Sum of Mulliken charges =  -0.00000

 Dipole moment (field-independent basis, Debye):
    X=             -2.0409    Y=             -1.8634    Z=              1.4424  Tot=              3.1174
 Quadrupole moment (field-independent basis, Debye-Ang):
   XX=           -292.2351   YY=           -251.5578   ZZ=           -262.7572
   XY=             28.7903   XZ=              8.5571   YZ=             -3.2564

 Normal termination of Gaussian 16 at Thu Jul 11 19:51:06 2019.
