 Gaussian 16, Revision A.03,
 Gaussian 16:  ES64L-G16RevA.03 25-Dec-2016

 -------------------------------------
 # td=(NStates=1) CAM-B3LYP/6-31G(d,p)
 -------------------------------------

 --
 TD
 --
 Symbolic Z-matrix:
 Charge =  0 Multiplicity = 1

                         Standard orientation:
 ---------------------------------------------------------------------
 Center     Atomic      Atomic             Coordinates (Angstroms)
 Number     Number       Type             X           Y           Z
 ---------------------------------------------------------------------
      1          8           0       14.791495   -2.159431   -0.194161
      2          8           0      -14.810984    1.901670    1.080446
      3          6           0       11.136272   -1.542412    1.018369
      4          6           0      -12.371412   -1.008836    0.595780
      5          6           0       12.596420   -1.871959    1.109995
      6          6           0      -13.595848   -0.254486    0.698500
      7          6           0       13.416236   -1.758051   -0.223391
      8          6           0      -13.518513    1.223155    1.066485
      9          6           0       10.986441   -0.275439   -0.055868
     10          6           0      -11.273325   -0.154459   -0.107738
     11          6           0       13.354260   -0.356598   -0.862824
     12          6           0      -12.615286    1.936247   -0.105497
     13          6           0       11.958015    0.168043   -0.856303
     14          6           0      -11.448630    1.135736   -0.513178
     15          6           0       10.670653   -1.115467    2.363110
     16          6           0       10.362089   -2.700046    0.417349
     17          6           0      -11.888702   -1.570582    1.955688
     18          6           0      -12.716804   -2.236967   -0.339864
     19          6           0        9.686207    0.321145    0.117548
     20          6           0      -10.064874   -0.938882   -0.417536
     21          6           0       11.688967    1.217260   -1.915611
     22          6           0      -10.565540    2.011662   -1.219613
     23          6           0        9.343751    1.693543    0.087766
     24          6           0       -8.796335   -0.565817   -0.393441
     25          6           0        8.114467    2.333693    0.179167
     26          6           0       -7.619388   -1.256670   -0.586107
     27          6           0        7.919368    3.680377    0.629393
     28          6           0       -7.724502   -2.628899   -1.117828
     29          6           0        6.849201    1.591300    0.010426
     30          6           0       -6.351459   -0.535752   -0.349590
     31          6           0        5.580990    1.953058    0.134749
     32          6           0       -5.124193   -1.143656   -0.710486
     33          6           0        4.464944    1.167227   -0.098435
     34          6           0       -3.942571   -0.379055   -0.512930
     35          6           0        3.158384    1.569923    0.061187
     36          6           0       -2.563405   -0.879667   -0.532406
     37          6           0        2.903885    3.060994    0.393105
     38          6           0       -2.363459   -2.260268   -0.777597
     39          6           0        2.027661    0.730685   -0.168438
     40          6           0       -1.645713    0.102376   -0.327384
     41          6           0        0.705752    1.028821   -0.002255
     42          6           0       -0.217744   -0.019896   -0.397152
     43          1           0       13.169888   -1.142135    1.834980
     44          1           0       12.838056   -2.790975    1.625623
     45          1           0      -14.228639   -0.773005    1.572216
     46          1           0      -14.167310   -0.321235   -0.316288
     47          1           0       12.903511   -2.338227   -0.904652
     48          1           0      -12.939446    1.303424    2.042855
     49          1           0       14.051731    0.418303   -0.467679
     50          1           0       13.672851   -0.239468   -1.864630
     51          1           0      -13.269459    2.070897   -0.940120
     52          1           0      -12.300494    2.879679    0.096894
     53          1           0       10.920541   -2.012671    3.165383
     54          1           0        9.582683   -1.270179    2.180594
     55          1           0       10.924528   -0.221543    3.021646
     56          1           0       10.753322   -3.059801   -0.459720
     57          1           0       10.327812   -3.470237    1.358374
     58          1           0        9.293491   -2.387226    0.192666
     59          1           0      -11.804705   -0.724005    2.450695
     60          1           0      -10.829260   -2.008027    2.091225
     61          1           0      -12.470492   -2.391284    2.334599
     62          1           0      -13.669489   -2.721012   -0.105404
     63          1           0      -11.953744   -3.009970   -0.058587
     64          1           0      -12.753757   -2.087429   -1.345654
     65          1           0        8.847561   -0.296927    0.278701
     66          1           0      -10.226421   -1.905753   -0.806007
     67          1           0       10.600241    1.372900   -1.975273
     68          1           0       12.154764    2.087429   -1.277127
     69          1           0       12.066623    1.025665   -2.777193
     70          1           0      -11.070523    2.701603   -1.881903
     71          1           0      -10.006093    1.418701   -1.957209
     72          1           0       -9.663515    2.431207   -0.756104
     73          1           0       14.686239   -3.238638   -0.007979
     74          1           0      -15.341422    1.628327    1.964059
     75          1           0       10.119565    2.599573    0.136090
     76          1           0       -8.607569    0.493737   -0.334836
     77          1           0        8.816972    4.259698    0.238353
     78          1           0        6.968868    4.333828    0.096766
     79          1           0        7.969909    3.670918    1.810099
     80          1           0       -8.166527   -3.390508   -0.408321
     81          1           0       -8.339671   -2.703222   -2.048291
     82          1           0       -6.684087   -3.088144   -1.425001
     83          1           0        7.061839    0.533448   -0.208263
     84          1           0       -6.369470    0.410622    0.074275
     85          1           0        5.581349    3.086651    0.278999
     86          1           0       -4.994708   -2.213006   -1.087970
     87          1           0        4.677970    0.080427   -0.117841
     88          1           0       -3.995716    0.607204   -0.139131
     89          1           0        3.346983    3.314656    1.247032
     90          1           0        2.018882    3.360146    0.349896
     91          1           0        3.396142    3.568334   -0.568408
     92          1           0       -2.442278   -3.051507    0.270355
     93          1           0       -3.111419   -2.686480   -1.640405
     94          1           0       -1.179446   -2.470450   -0.998855
     95          1           0        2.375921   -0.335197   -0.493035
     96          1           0       -2.097662    0.935558   -0.006233
     97          1           0        0.354426    1.936990    0.359687
     98          1           0        0.259002   -0.947861   -0.267106
 ---------------------------------------------------------------------

 SCF Done:  E(RCAM-B3LYP) =  -1706.89850161     A.U. after   17 cycles

 Excitation energies and oscillator strengths:

 Excited State   1:      Singlet-A      1.7039 eV  727.67 nm  f=3.6217  <S**2>=0.000
     155 ->158         0.13792
     156 ->157         0.70094
     156 <-157        -0.12783
 This state for optimization and/or second-order correction.
 Total Energy, E(TD-HF/TD-DFT) =  -1706.83588627
 Copying the excited state density for this state as the 1-particle RhoCI density.

 The electronic state is 1-A.
 Alpha  occ. eigenvalues --  -19.22656 -19.22027 -10.31209 -10.30314 -10.29083
 Alpha  occ. eigenvalues --  -10.28175 -10.28008 -10.27318 -10.27225 -10.27169
 Alpha  occ. eigenvalues --  -10.27141 -10.27057 -10.26929 -10.26770 -10.26649
 Alpha  occ. eigenvalues --  -10.26627 -10.26615 -10.26539 -10.26520 -10.26361
 Alpha  occ. eigenvalues --  -10.26354 -10.26334 -10.26326 -10.25974 -10.25959
 Alpha  occ. eigenvalues --  -10.25847 -10.25738 -10.25672 -10.25661 -10.25603
 Alpha  occ. eigenvalues --  -10.25556 -10.25248 -10.25145 -10.25098 -10.24392
 Alpha  occ. eigenvalues --  -10.24357 -10.24211 -10.23907 -10.23865 -10.23700
 Alpha  occ. eigenvalues --  -10.23691 -10.23623  -1.07566  -1.06289  -0.93701
 Alpha  occ. eigenvalues --   -0.93688  -0.92225  -0.91807  -0.90669  -0.90218
 Alpha  occ. eigenvalues --   -0.88552  -0.88336  -0.87225  -0.85361  -0.84458
 Alpha  occ. eigenvalues --   -0.82977  -0.81920  -0.80169  -0.79661  -0.78342
 Alpha  occ. eigenvalues --   -0.76995  -0.76938  -0.76574  -0.76147  -0.76116
 Alpha  occ. eigenvalues --   -0.75932  -0.75342  -0.75135  -0.72702  -0.70198
 Alpha  occ. eigenvalues --   -0.69290  -0.67299  -0.66634  -0.65900  -0.63929
 Alpha  occ. eigenvalues --   -0.63313  -0.62595  -0.61989  -0.60361  -0.59653
 Alpha  occ. eigenvalues --   -0.58780  -0.58297  -0.57671  -0.57284  -0.56109
 Alpha  occ. eigenvalues --   -0.55701  -0.54954  -0.54895  -0.54307  -0.54049
 Alpha  occ. eigenvalues --   -0.53598  -0.53199  -0.52141  -0.51797  -0.51678
 Alpha  occ. eigenvalues --   -0.51295  -0.50756  -0.49973  -0.49854  -0.49637
 Alpha  occ. eigenvalues --   -0.49297  -0.49199  -0.49037  -0.48565  -0.48346
 Alpha  occ. eigenvalues --   -0.47960  -0.47367  -0.46889  -0.46769  -0.46451
 Alpha  occ. eigenvalues --   -0.45987  -0.45755  -0.45331  -0.45091  -0.44789
 Alpha  occ. eigenvalues --   -0.44667  -0.44425  -0.44172  -0.43824  -0.43582
 Alpha  occ. eigenvalues --   -0.43095  -0.42832  -0.42531  -0.42331  -0.42198
 Alpha  occ. eigenvalues --   -0.41718  -0.41388  -0.41280  -0.41122  -0.40818
 Alpha  occ. eigenvalues --   -0.40438  -0.40220  -0.39813  -0.39764  -0.39213
 Alpha  occ. eigenvalues --   -0.38895  -0.38590  -0.38079  -0.37946  -0.37422
 Alpha  occ. eigenvalues --   -0.37388  -0.37308  -0.36963  -0.36715  -0.35484
 Alpha  occ. eigenvalues --   -0.34304  -0.34082  -0.33485  -0.32450  -0.31924
 Alpha  occ. eigenvalues --   -0.31620  -0.29486  -0.28080  -0.25912  -0.22102
 Alpha  occ. eigenvalues --   -0.17711
 Alpha virt. eigenvalues --   -0.07257  -0.01999   0.01983   0.06299   0.07684
 Alpha virt. eigenvalues --    0.09353   0.09738   0.10811   0.11504   0.11527
 Alpha virt. eigenvalues --    0.11783   0.12068   0.12372   0.13460   0.13626

 Mulliken charges:
               1
     1  O   -0.559795
     2  O   -0.566967
     3  C    0.004941
     4  C    0.008925
     5  C   -0.194198
     6  C   -0.180531
     7  C    0.169511
     8  C    0.155267
     9  C    0.071455
    10  C    0.039673
    11  C   -0.215652
    12  C   -0.238345
    13  C    0.002764
    14  C    0.091449
    15  C   -0.286039
    16  C   -0.288162
    17  C   -0.305296
    18  C   -0.317977
    19  C   -0.135690
    20  C   -0.135350
    21  C   -0.330672
    22  C   -0.404992
    23  C   -0.106230
    24  C   -0.085511
    25  C    0.102029
    26  C    0.113732
    27  C   -0.375294
    28  C   -0.385335
    29  C   -0.109868
    30  C   -0.116945
    31  C   -0.052281
    32  C   -0.085160
    33  C   -0.134485
    34  C   -0.135094
    35  C    0.077527
    36  C    0.179717
    37  C   -0.329753
    38  C   -0.374947
    39  C   -0.116224
    40  C   -0.111074
    41  C   -0.074159
    42  C   -0.119352
    43  H    0.088026
    44  H    0.081077
    45  H    0.059732
    46  H    0.098345
    47  H    0.085798
    48  H    0.074741
    49  H    0.115904
    50  H    0.108820
    51  H    0.122756
    52  H    0.118524
    53  H    0.062206
    54  H    0.097185
    55  H    0.126318
    56  H    0.121511
    57  H    0.083112
    58  H    0.099903
    59  H    0.110961
    60  H    0.097328
    61  H    0.106541
    62  H    0.097962
    63  H    0.092905
    64  H    0.116010
    65  H    0.090482
    66  H    0.081275
    67  H    0.125177
    68  H    0.106972
    69  H    0.113713
    70  H    0.113349
    71  H    0.116225
    72  H    0.130016
    73  H    0.301607
    74  H    0.307591
    75  H    0.063452
    76  H    0.058974
    77  H    0.099040
    78  H    0.102076
    79  H    0.128894
    80  H    0.120269
    81  H    0.122362
    82  H    0.090382
    83  H    0.052680
    84  H    0.091214
    85  H    0.068650
    86  H    0.088886
    87  H    0.082883
    88  H    0.075713
    89  H    0.129017
    90  H    0.101724
    91  H    0.099382
    92  H    0.089536
    93  H    0.105322
    94  H    0.094391
    95  H    0.072396
    96  H    0.072904
    97  H    0.095118
    98  H    0.097051
 Sum of Mulliken charges =  -0.00000

 Dipole moment (field-independent basis, Debye):
    X=              0.7172    Y=             -1.4655    Z=              1.3912  Tot=              2.1442
 Quadrupole moment (field-independent basis, Debye-Ang):
   XX=           -281.1194   YY=           -242.4789   ZZ=           -258.8144
   XY=              4.3448   XZ=            -10.9770   YZ=              3.0347

 Normal termination of Gaussian 16 at Wed Jul 17 12:53:58 2019.
