 Gaussian 16, Revision A.03,
 Gaussian 16:  ES64L-G16RevA.03 25-Dec-2016

 -------------------------------------
 # td=(NStates=1) CAM-B3LYP/6-31G(d,p)
 -------------------------------------

 --
 TD
 --
 Symbolic Z-matrix:
 Charge =  0 Multiplicity = 1

                         Standard orientation:
 ---------------------------------------------------------------------
 Center     Atomic      Atomic             Coordinates (Angstroms)
 Number     Number       Type             X           Y           Z
 ---------------------------------------------------------------------
      1          8           0       14.701990   -2.358526   -0.268440
      2          8           0      -14.899085    1.868601    0.639739
      3          6           0       11.159057   -1.489508    0.964365
      4          6           0      -12.285902   -1.071389    0.548680
      5          6           0       12.598661   -1.868419    0.966483
      6          6           0      -13.729051   -0.350314    0.613290
      7          6           0       13.288129   -2.067681   -0.363688
      8          6           0      -13.561674    1.185954    0.796839
      9          6           0       10.841969   -0.374708   -0.115360
     10          6           0      -11.265585   -0.346715   -0.298290
     11          6           0       13.106906   -0.670241   -1.173472
     12          6           0      -12.665637    1.686656   -0.308991
     13          6           0       11.766016   -0.037982   -0.963758
     14          6           0      -11.468581    0.948948   -0.789296
     15          6           0       10.831143   -1.017291    2.408669
     16          6           0       10.326224   -2.759770    0.511610
     17          6           0      -11.756151   -1.261014    1.982399
     18          6           0      -12.604947   -2.561398    0.081868
     19          6           0        9.591372    0.304980    0.062166
     20          6           0       -9.949891   -1.122819   -0.460736
     21          6           0       11.566159    1.164195   -2.008080
     22          6           0      -10.416862    1.652982   -1.636105
     23          6           0        9.379936    1.677473    0.045418
     24          6           0       -8.794041   -0.461126   -0.294662
     25          6           0        8.100553    2.400307    0.137856
     26          6           0       -7.618077   -1.184092   -0.525933
     27          6           0        8.023337    3.863044    0.475686
     28          6           0       -7.631151   -2.660286   -0.790153
     29          6           0        6.906925    1.685786   -0.054887
     30          6           0       -6.403049   -0.531871   -0.394126
     31          6           0        5.664843    2.176465    0.235638
     32          6           0       -5.061165   -1.019719   -0.545765
     33          6           0        4.479325    1.424628    0.040080
     34          6           0       -3.915593   -0.234625   -0.271394
     35          6           0        3.048684    1.721308    0.348122
     36          6           0       -2.556975   -0.579403   -0.387343
     37          6           0        2.843153    3.216166    0.875439
     38          6           0       -2.266832   -1.976243   -0.833913
     39          6           0        2.158713    0.771321    0.034336
     40          6           0       -1.516725    0.299208   -0.197697
     41          6           0        0.730393    0.983434    0.265360
     42          6           0       -0.177554    0.033137   -0.145500
     43          1           0       13.333240   -1.045278    1.492867
     44          1           0       12.751144   -2.833602    1.538337
     45          1           0      -14.428002   -0.682315    1.395287
     46          1           0      -14.208326   -0.502634   -0.365981
     47          1           0       12.741545   -2.635706   -0.939915
     48          1           0      -13.103027    1.345406    1.843538
     49          1           0       13.940095    0.091630   -0.922350
     50          1           0       13.174386   -0.958505   -2.323974
     51          1           0      -13.249308    1.918377   -1.294835
     52          1           0      -12.382767    2.703339   -0.131806
     53          1           0       11.086038   -1.809825    3.063392
     54          1           0        9.809618   -0.849100    2.542587
     55          1           0       11.549470   -0.125642    2.708429
     56          1           0       10.625355   -2.876463   -0.623710
     57          1           0       10.371613   -3.631256    1.099746
     58          1           0        9.309141   -2.494082    0.385117
     59          1           0      -11.722564   -0.236996    2.502764
     60          1           0      -10.877329   -1.948672    1.998120
     61          1           0      -12.440341   -1.772354    2.633776
     62          1           0      -13.793277   -2.575230    0.478522
     63          1           0      -11.822993   -3.238611    0.304528
     64          1           0      -12.619866   -2.468460   -1.132826
     65          1           0        8.807430   -0.217145    0.542519
     66          1           0      -10.114277   -2.150352   -0.471370
     67          1           0       10.551756    1.317756   -2.302341
     68          1           0       11.952541    1.882258   -1.711234
     69          1           0       12.031857    0.965282   -2.952938
     70          1           0      -11.081950    2.246378   -2.445694
     71          1           0       -9.795113    0.943141   -2.281444
     72          1           0       -9.806791    2.433959   -1.038663
     73          1           0       14.922089   -3.392586   -0.240698
     74          1           0      -15.406360    1.693069    1.529943
     75          1           0       10.211339    2.371211   -0.164133
     76          1           0       -8.501905    0.594914   -0.016157
     77          1           0        9.087336    4.114929    0.868462
     78          1           0        7.706783    4.508360   -0.173503
     79          1           0        7.186077    4.061228    1.241168
     80          1           0       -7.750954   -3.397749    0.162348
     81          1           0       -8.349907   -2.669429   -1.351283
     82          1           0       -6.699455   -3.056931   -1.291994
     83          1           0        6.958464    0.608210   -0.252613
     84          1           0       -6.531403    0.711854   -0.363521
     85          1           0        5.627106    3.307117    0.551457
     86          1           0       -5.037381   -2.152746   -0.395746
     87          1           0        4.462631    0.451633   -0.271444
     88          1           0       -4.006759    0.950554   -0.080862
     89          1           0        2.941501    3.213533    1.813437
     90          1           0        1.723963    3.390277    0.634302
     91          1           0        3.337527    3.780306    0.338370
     92          1           0       -2.873822   -2.611519   -0.095844
     93          1           0       -2.567780   -2.229314   -1.742336
     94          1           0       -1.119331   -2.406482   -0.590446
     95          1           0        2.396601   -0.254596   -0.205501
     96          1           0       -1.903191    1.200344    0.379545
     97          1           0        0.433682    1.956440    0.585943
     98          1           0        0.144312   -0.914808   -0.440668
 ---------------------------------------------------------------------

 SCF Done:  E(RCAM-B3LYP) =  -1706.87460463     A.U. after   15 cycles

 Excitation energies and oscillator strengths:

 Excited State   1:      Singlet-A      2.2327 eV  555.30 nm  f=3.7654  <S**2>=0.000
     155 ->158        -0.18047
     156 ->157         0.68112
 This state for optimization and/or second-order correction.
 Total Energy, E(TD-HF/TD-DFT) =  -1706.79255259
 Copying the excited state density for this state as the 1-particle RhoCI density.

 The electronic state is 1-A.
 Alpha  occ. eigenvalues --  -19.22062 -19.21958 -10.31803 -10.29491 -10.27986
 Alpha  occ. eigenvalues --  -10.27674 -10.27610 -10.27576 -10.27568 -10.27462
 Alpha  occ. eigenvalues --  -10.27265 -10.27160 -10.27099 -10.27059 -10.26973
 Alpha  occ. eigenvalues --  -10.26948 -10.26632 -10.26586 -10.26505 -10.26427
 Alpha  occ. eigenvalues --  -10.26274 -10.26247 -10.26170 -10.26079 -10.25955
 Alpha  occ. eigenvalues --  -10.25934 -10.25907 -10.25832 -10.25800 -10.25602
 Alpha  occ. eigenvalues --  -10.25601 -10.25548 -10.25486 -10.25386 -10.25192
 Alpha  occ. eigenvalues --  -10.25099 -10.25011 -10.24865 -10.24765 -10.24353
 Alpha  occ. eigenvalues --  -10.23873 -10.21964  -1.06792  -1.05861  -0.93357
 Alpha  occ. eigenvalues --   -0.93042  -0.92309  -0.91374  -0.91018  -0.89932
 Alpha  occ. eigenvalues --   -0.87135  -0.86555  -0.86253  -0.85076  -0.84446
 Alpha  occ. eigenvalues --   -0.82849  -0.81993  -0.80240  -0.79970  -0.79402
 Alpha  occ. eigenvalues --   -0.77648  -0.76919  -0.76719  -0.76446  -0.75297
 Alpha  occ. eigenvalues --   -0.75143  -0.74540  -0.74298  -0.73371  -0.71249
 Alpha  occ. eigenvalues --   -0.69665  -0.67175  -0.66008  -0.65151  -0.63862
 Alpha  occ. eigenvalues --   -0.63139  -0.62865  -0.62442  -0.60292  -0.59392
 Alpha  occ. eigenvalues --   -0.58650  -0.58126  -0.57877  -0.57059  -0.56209
 Alpha  occ. eigenvalues --   -0.55487  -0.55000  -0.54579  -0.53874  -0.53619
 Alpha  occ. eigenvalues --   -0.53167  -0.52554  -0.52253  -0.51722  -0.51289
 Alpha  occ. eigenvalues --   -0.51001  -0.50619  -0.50522  -0.49708  -0.49332
 Alpha  occ. eigenvalues --   -0.49051  -0.48662  -0.48544  -0.48284  -0.48219
 Alpha  occ. eigenvalues --   -0.47606  -0.47491  -0.46983  -0.46450  -0.46038
 Alpha  occ. eigenvalues --   -0.45363  -0.45347  -0.45180  -0.45059  -0.45040
 Alpha  occ. eigenvalues --   -0.44799  -0.44565  -0.44092  -0.43990  -0.43190
 Alpha  occ. eigenvalues --   -0.43060  -0.42752  -0.42429  -0.42190  -0.41812
 Alpha  occ. eigenvalues --   -0.41720  -0.41067  -0.40847  -0.40740  -0.40584
 Alpha  occ. eigenvalues --   -0.40199  -0.39998  -0.39623  -0.39245  -0.39018
 Alpha  occ. eigenvalues --   -0.38806  -0.38607  -0.38473  -0.38245  -0.37880
 Alpha  occ. eigenvalues --   -0.37445  -0.37294  -0.37008  -0.36586  -0.36205
 Alpha  occ. eigenvalues --   -0.35706  -0.34958  -0.33834  -0.32904  -0.31837
 Alpha  occ. eigenvalues --   -0.31482  -0.29818  -0.28292  -0.25988  -0.22817
 Alpha  occ. eigenvalues --   -0.19618
 Alpha virt. eigenvalues --   -0.05756  -0.01773   0.02619   0.05750   0.08043
 Alpha virt. eigenvalues --    0.10088   0.10602   0.10730   0.11305   0.12112
 Alpha virt. eigenvalues --    0.12191   0.12399   0.12707   0.12889   0.13518

 Mulliken charges:
               1
     1  O   -0.574428
     2  O   -0.567377
     3  C   -0.016861
     4  C   -0.037973
     5  C   -0.162973
     6  C   -0.199591
     7  C    0.179910
     8  C    0.143451
     9  C    0.093409
    10  C    0.061322
    11  C   -0.238418
    12  C   -0.226276
    13  C    0.008606
    14  C    0.066371
    15  C   -0.291908
    16  C   -0.312655
    17  C   -0.284835
    18  C   -0.295518
    19  C   -0.124466
    20  C   -0.179558
    21  C   -0.342727
    22  C   -0.357209
    23  C   -0.103977
    24  C   -0.032187
    25  C    0.066416
    26  C    0.102160
    27  C   -0.368909
    28  C   -0.341614
    29  C   -0.085957
    30  C   -0.131846
    31  C   -0.092158
    32  C   -0.122591
    33  C   -0.113610
    34  C   -0.109075
    35  C    0.056937
    36  C    0.119863
    37  C   -0.321988
    38  C   -0.362481
    39  C   -0.128784
    40  C   -0.128441
    41  C   -0.085975
    42  C   -0.063559
    43  H    0.077103
    44  H    0.073165
    45  H    0.082562
    46  H    0.113765
    47  H    0.092644
    48  H    0.082017
    49  H    0.113549
    50  H    0.090506
    51  H    0.110578
    52  H    0.114138
    53  H    0.103991
    54  H    0.104012
    55  H    0.096625
    56  H    0.090275
    57  H    0.108705
    58  H    0.107638
    59  H    0.085715
    60  H    0.100078
    61  H    0.099175
    62  H    0.099530
    63  H    0.110472
    64  H    0.081105
    65  H    0.087933
    66  H    0.095250
    67  H    0.120588
    68  H    0.124598
    69  H    0.091362
    70  H    0.080468
    71  H    0.130995
    72  H    0.113130
    73  H    0.310606
    74  H    0.306590
    75  H    0.081142
    76  H    0.102571
    77  H    0.100498
    78  H    0.142441
    79  H    0.109402
    80  H    0.096522
    81  H    0.128678
    82  H    0.104412
    83  H    0.081363
    84  H    0.046160
    85  H    0.068505
    86  H    0.092644
    87  H    0.068412
    88  H    0.076147
    89  H    0.140726
    90  H    0.086990
    91  H    0.128158
    92  H    0.106995
    93  H    0.139784
    94  H    0.077972
    95  H    0.093197
    96  H    0.071821
    97  H    0.084613
    98  H    0.079455
 Sum of Mulliken charges =  -0.00000

 Dipole moment (field-independent basis, Debye):
    X=              0.3619    Y=             -1.8216    Z=              1.6428  Tot=              2.4795
 Quadrupole moment (field-independent basis, Debye-Ang):
   XX=           -286.1544   YY=           -239.1072   ZZ=           -261.5794
   XY=             -1.4297   XZ=            -23.0919   YZ=              3.8828

 Normal termination of Gaussian 16 at Mon Jul  8 17:33:42 2019.
