 Gaussian 16, Revision A.03,
 Gaussian 16:  ES64L-G16RevA.03 25-Dec-2016

 -------------------------------------
 # td=(NStates=1) CAM-B3LYP/6-31G(d,p)
 -------------------------------------

 --
 TD
 --
 Symbolic Z-matrix:
 Charge =  0 Multiplicity = 1

                         Standard orientation:
 ---------------------------------------------------------------------
 Center     Atomic      Atomic             Coordinates (Angstroms)
 Number     Number       Type             X           Y           Z
 ---------------------------------------------------------------------
      1          8           0       14.786073   -2.175610   -0.056469
      2          8           0      -14.658246    1.902012    1.286632
      3          6           0       11.121848   -1.631700    0.928673
      4          6           0      -12.324752   -1.044449    0.711859
      5          6           0       12.631473   -2.126494    0.940073
      6          6           0      -13.612723   -0.322260    0.907207
      7          6           0       13.464671   -1.802243   -0.414159
      8          6           0      -13.350916    1.258208    1.029663
      9          6           0       11.020065   -0.292133    0.060499
     10          6           0      -11.333848   -0.211169   -0.225690
     11          6           0       13.341612   -0.393060   -0.859618
     12          6           0      -12.667433    1.774167   -0.252605
     13          6           0       11.944323    0.187797   -0.711030
     14          6           0      -11.492192    1.017694   -0.622544
     15          6           0       10.638353   -1.331193    2.312337
     16          6           0       10.286379   -2.714682    0.334887
     17          6           0      -11.708996   -1.442326    2.076609
     18          6           0      -12.691677   -2.365190   -0.069996
     19          6           0        9.634886    0.371279    0.106350
     20          6           0      -10.079439   -1.050717   -0.498747
     21          6           0       11.702278    1.361988   -1.685203
     22          6           0      -10.666897    1.824082   -1.666664
     23          6           0        9.347453    1.573792    0.197150
     24          6           0       -8.874563   -0.450856   -0.432115
     25          6           0        8.062403    2.247671    0.277064
     26          6           0       -7.611759   -1.225596   -0.662857
     27          6           0        7.924305    3.727086    0.675673
     28          6           0       -7.650867   -2.732377   -0.981295
     29          6           0        6.843489    1.527459    0.121406
     30          6           0       -6.466144   -0.518765   -0.454915
     31          6           0        5.616040    2.115640    0.098649
     32          6           0       -5.104305   -0.931881   -0.625630
     33          6           0        4.527504    1.355489   -0.164353
     34          6           0       -3.974391   -0.177210   -0.417714
     35          6           0        3.173685    1.758800    0.008141
     36          6           0       -2.638949   -0.692928   -0.554982
     37          6           0        2.824630    3.066654    0.543231
     38          6           0       -2.523221   -2.088197   -1.157201
     39          6           0        2.150776    0.828302   -0.293159
     40          6           0       -1.566441    0.187715   -0.265745
     41          6           0        0.763065    0.857875   -0.100314
     42          6           0       -0.207196   -0.025236   -0.518798
     43          1           0       13.109225   -1.634269    1.898081
     44          1           0       12.860970   -3.194079    1.439954
     45          1           0      -14.247999   -0.884680    1.720775
     46          1           0      -14.153690   -0.650057   -0.068832
     47          1           0       13.038718   -2.626086   -1.308969
     48          1           0      -12.553248    1.370659    1.803281
     49          1           0       13.906054    0.377954   -0.375793
     50          1           0       13.719456   -0.059022   -1.967576
     51          1           0      -13.442946    1.803325   -0.960338
     52          1           0      -12.323305    2.929188   -0.102361
     53          1           0       11.281671   -2.189945    2.901616
     54          1           0        9.440314   -1.138755    2.417491
     55          1           0       11.242209   -0.455180    2.852157
     56          1           0       10.595414   -3.033974   -0.564389
     57          1           0       10.116352   -3.586085    1.024772
     58          1           0        9.230296   -2.161217    0.156004
     59          1           0      -11.189006   -0.735257    2.775922
     60          1           0      -10.744731   -2.227063    2.111100
     61          1           0      -12.507172   -1.786316    2.691831
     62          1           0      -13.607611   -2.806456    0.330326
     63          1           0      -11.995347   -3.187906   -0.138371
     64          1           0      -12.858551   -2.139980   -1.127619
     65          1           0        8.857261   -0.416205    0.331568
     66          1           0      -10.389869   -2.159167   -0.455167
     67          1           0       10.675544    1.438049   -2.069960
     68          1           0       11.925956    2.306284   -1.373132
     69          1           0       12.268503    1.211017   -2.675111
     70          1           0      -11.277629    2.490828   -2.090044
     71          1           0       -9.888467    1.133786   -2.495567
     72          1           0      -10.293317    2.552896   -1.159172
     73          1           0       14.781493   -3.010754    0.566194
     74          1           0      -15.007100    1.685166    2.149980
     75          1           0       10.260729    2.286665    0.301715
     76          1           0       -8.750376    0.605925   -0.005585
     77          1           0        9.007435    4.247410    0.713787
     78          1           0        7.474896    4.431259   -0.086749
     79          1           0        7.512552    3.731903    1.609049
     80          1           0       -7.991655   -3.189343   -0.142207
     81          1           0       -8.339726   -3.013997   -1.797194
     82          1           0       -6.783936   -3.248855   -1.056808
     83          1           0        6.979813    0.580390   -0.245762
     84          1           0       -6.635532    0.360059    0.084751
     85          1           0        5.409295    3.221590    0.393978
     86          1           0       -4.925608   -1.957519   -0.873019
     87          1           0        4.681970    0.302213   -0.236956
     88          1           0       -4.121955    0.892090   -0.076824
     89          1           0        2.777134    3.225824    1.837013
     90          1           0        1.724268    3.429982    0.448204
     91          1           0        3.449172    3.858886    0.120767
     92          1           0       -3.109691   -2.743491   -0.514599
     93          1           0       -2.785919   -2.071875   -2.165059
     94          1           0       -1.457869   -2.758753   -1.043128
     95          1           0        2.525784   -0.025278   -0.955874
     96          1           0       -1.803885    1.064879    0.140185
     97          1           0        0.298685    1.836837    0.570208
     98          1           0        0.177184   -0.920944   -1.264664
 ---------------------------------------------------------------------

 SCF Done:  E(RCAM-B3LYP) =  -1706.88049295     A.U. after   15 cycles

 Excitation energies and oscillator strengths:

 Excited State   1:      Singlet-A      2.2569 eV  549.36 nm  f=3.6635  <S**2>=0.000
     155 ->158         0.14646
     156 ->157         0.69233
 This state for optimization and/or second-order correction.
 Total Energy, E(TD-HF/TD-DFT) =  -1706.79755391
 Copying the excited state density for this state as the 1-particle RhoCI density.

 The electronic state is 1-A.
 Alpha  occ. eigenvalues --  -19.21508 -19.21080 -10.33732 -10.31967 -10.28250
 Alpha  occ. eigenvalues --  -10.28067 -10.27969 -10.27954 -10.27749 -10.27660
 Alpha  occ. eigenvalues --  -10.27602 -10.27595 -10.27491 -10.27475 -10.27389
 Alpha  occ. eigenvalues --  -10.26818 -10.26707 -10.26668 -10.26610 -10.26492
 Alpha  occ. eigenvalues --  -10.26422 -10.26411 -10.26362 -10.26172 -10.26077
 Alpha  occ. eigenvalues --  -10.26068 -10.25919 -10.25909 -10.25780 -10.25731
 Alpha  occ. eigenvalues --  -10.25543 -10.25435 -10.25433 -10.25405 -10.25186
 Alpha  occ. eigenvalues --  -10.25055 -10.24979 -10.24914 -10.24826 -10.24698
 Alpha  occ. eigenvalues --  -10.24635 -10.24352  -1.08225  -1.07506  -0.93654
 Alpha  occ. eigenvalues --   -0.93360  -0.92098  -0.91351  -0.90162  -0.89562
 Alpha  occ. eigenvalues --   -0.88032  -0.87743  -0.87162  -0.85647  -0.84227
 Alpha  occ. eigenvalues --   -0.82559  -0.81506  -0.80405  -0.79970  -0.78495
 Alpha  occ. eigenvalues --   -0.77697  -0.76392  -0.76293  -0.76130  -0.75918
 Alpha  occ. eigenvalues --   -0.75466  -0.74721  -0.74531  -0.73540  -0.70490
 Alpha  occ. eigenvalues --   -0.68738  -0.67432  -0.66194  -0.65209  -0.64269
 Alpha  occ. eigenvalues --   -0.63005  -0.61862  -0.60572  -0.60290  -0.59832
 Alpha  occ. eigenvalues --   -0.59442  -0.58389  -0.57693  -0.56594  -0.55727
 Alpha  occ. eigenvalues --   -0.55290  -0.55099  -0.54268  -0.54037  -0.53477
 Alpha  occ. eigenvalues --   -0.52866  -0.52181  -0.51489  -0.51338  -0.51159
 Alpha  occ. eigenvalues --   -0.50744  -0.50722  -0.50210  -0.49556  -0.49286
 Alpha  occ. eigenvalues --   -0.49124  -0.48627  -0.48320  -0.47887  -0.47749
 Alpha  occ. eigenvalues --   -0.47439  -0.47194  -0.46746  -0.46596  -0.46417
 Alpha  occ. eigenvalues --   -0.45973  -0.45766  -0.45244  -0.45116  -0.44923
 Alpha  occ. eigenvalues --   -0.44612  -0.44027  -0.43776  -0.43431  -0.42890
 Alpha  occ. eigenvalues --   -0.42450  -0.42409  -0.42192  -0.41888  -0.41820
 Alpha  occ. eigenvalues --   -0.41555  -0.41236  -0.40634  -0.40561  -0.40303
 Alpha  occ. eigenvalues --   -0.40036  -0.39800  -0.39616  -0.39508  -0.39340
 Alpha  occ. eigenvalues --   -0.39138  -0.38887  -0.38129  -0.37910  -0.37666
 Alpha  occ. eigenvalues --   -0.37586  -0.37468  -0.36400  -0.36077  -0.35847
 Alpha  occ. eigenvalues --   -0.35075  -0.34310  -0.33918  -0.32403  -0.31901
 Alpha  occ. eigenvalues --   -0.31283  -0.30268  -0.29057  -0.26726  -0.23672
 Alpha  occ. eigenvalues --   -0.19376
 Alpha virt. eigenvalues --   -0.05601  -0.00599   0.02936   0.06588   0.08608
 Alpha virt. eigenvalues --    0.10048   0.10346   0.10848   0.11188   0.11737
 Alpha virt. eigenvalues --    0.12441   0.12478   0.12598   0.13185   0.13297

 Mulliken charges:
               1
     1  O   -0.569062
     2  O   -0.574836
     3  C    0.005527
     4  C    0.002701
     5  C   -0.242638
     6  C   -0.197616
     7  C    0.226792
     8  C    0.158438
     9  C    0.067413
    10  C    0.035942
    11  C   -0.209671
    12  C   -0.231307
    13  C    0.028506
    14  C    0.049361
    15  C   -0.289188
    16  C   -0.264548
    17  C   -0.293684
    18  C   -0.338040
    19  C   -0.119360
    20  C   -0.118236
    21  C   -0.378694
    22  C   -0.318660
    23  C   -0.074189
    24  C   -0.111796
    25  C    0.055813
    26  C    0.098468
    27  C   -0.371956
    28  C   -0.370461
    29  C   -0.117276
    30  C   -0.129915
    31  C   -0.061462
    32  C   -0.093412
    33  C   -0.118735
    34  C   -0.104635
    35  C    0.137057
    36  C    0.087576
    37  C   -0.371717
    38  C   -0.368601
    39  C   -0.145227
    40  C   -0.109084
    41  C   -0.073632
    42  C   -0.070078
    43  H    0.088941
    44  H    0.070333
    45  H    0.075927
    46  H    0.096053
    47  H    0.047548
    48  H    0.092330
    49  H    0.138387
    50  H    0.093966
    51  H    0.137530
    52  H    0.076705
    53  H    0.075191
    54  H    0.104884
    55  H    0.096129
    56  H    0.116159
    57  H    0.099762
    58  H    0.066395
    59  H    0.102385
    60  H    0.072665
    61  H    0.102712
    62  H    0.103263
    63  H    0.106164
    64  H    0.116526
    65  H    0.072413
    66  H    0.090887
    67  H    0.128119
    68  H    0.128538
    69  H    0.089916
    70  H    0.109793
    71  H    0.103155
    72  H    0.117808
    73  H    0.315416
    74  H    0.309400
    75  H    0.076929
    76  H    0.105815
    77  H    0.081794
    78  H    0.121525
    79  H    0.146213
    80  H    0.134792
    81  H    0.115392
    82  H    0.114919
    83  H    0.083473
    84  H    0.073827
    85  H    0.090644
    86  H    0.075606
    87  H    0.088388
    88  H    0.081321
    89  H    0.076835
    90  H    0.109803
    91  H    0.120125
    92  H    0.130024
    93  H    0.143396
    94  H    0.079802
    95  H    0.076548
    96  H    0.074614
    97  H    0.056310
    98  H    0.080622
 Sum of Mulliken charges =  -0.00000

 Dipole moment (field-independent basis, Debye):
    X=             -1.1380    Y=             -1.3685    Z=              1.7786  Tot=              2.5162
 Quadrupole moment (field-independent basis, Debye-Ang):
   XX=           -280.5996   YY=           -241.6721   ZZ=           -259.3074
   XY=             14.2162   XZ=             -6.7824   YZ=              1.0071

 Normal termination of Gaussian 16 at Wed Jul 17 00:05:00 2019.
