 Gaussian 16, Revision A.03,
 Gaussian 16:  ES64L-G16RevA.03 25-Dec-2016

 -------------------------------------
 # td=(NStates=1) CAM-B3LYP/6-31G(d,p)
 -------------------------------------

 --
 TD
 --
 Symbolic Z-matrix:
 Charge =  0 Multiplicity = 1

                         Standard orientation:
 ---------------------------------------------------------------------
 Center     Atomic      Atomic             Coordinates (Angstroms)
 Number     Number       Type             X           Y           Z
 ---------------------------------------------------------------------
      1          8           0       14.655807   -2.441851   -0.052797
      2          8           0      -14.746424    1.839747    0.959692
      3          6           0       10.989217   -1.615049    0.873603
      4          6           0      -12.278483   -1.078624    0.650113
      5          6           0       12.520062   -1.937452    0.931635
      6          6           0      -13.620439   -0.367033    0.698269
      7          6           0       13.325478   -1.930688   -0.255718
      8          6           0      -13.507989    1.087153    1.010899
      9          6           0       10.866494   -0.276401   -0.010758
     10          6           0      -11.294610   -0.175898   -0.081805
     11          6           0       13.281862   -0.468773   -0.928669
     12          6           0      -12.806183    1.731582   -0.067192
     13          6           0       11.894313    0.109248   -0.780462
     14          6           0      -11.514717    1.044764   -0.532265
     15          6           0       10.628137   -1.376486    2.311963
     16          6           0       10.228339   -2.697112    0.308553
     17          6           0      -11.926974   -1.590636    2.073834
     18          6           0      -12.417217   -2.402138   -0.196769
     19          6           0        9.677767    0.385573    0.182006
     20          6           0      -10.060117   -0.921399   -0.436567
     21          6           0       11.724130    1.266954   -1.733972
     22          6           0      -10.568446    1.927317   -1.461936
     23          6           0        9.399728    1.744750    0.166552
     24          6           0       -8.743998   -0.468934   -0.243030
     25          6           0        8.132146    2.297057    0.329861
     26          6           0       -7.528008   -1.213575   -0.468385
     27          6           0        8.024665    3.757362    0.863861
     28          6           0       -7.690532   -2.606423   -0.854161
     29          6           0        6.905044    1.681009    0.038288
     30          6           0       -6.362294   -0.500569   -0.407016
     31          6           0        5.574915    2.148937    0.217687
     32          6           0       -4.992290   -1.012819   -0.666900
     33          6           0        4.480243    1.441393   -0.054520
     34          6           0       -3.889045   -0.291451   -0.487441
     35          6           0        3.054215    1.868045   -0.016177
     36          6           0       -2.530625   -0.760236   -0.688663
     37          6           0        2.724117    3.152194    0.447171
     38          6           0       -2.357450   -2.108950   -1.038360
     39          6           0        2.225127    0.970643   -0.467701
     40          6           0       -1.503366    0.144809   -0.384766
     41          6           0        0.812845    1.021955   -0.225324
     42          6           0       -0.042277   -0.057617   -0.597597
     43          1           0       12.828704   -1.126671    1.634996
     44          1           0       12.714867   -2.920136    1.477472
     45          1           0      -14.153599   -0.824003    1.495384
     46          1           0      -14.080741   -0.474291   -0.373789
     47          1           0       12.888485   -2.822324   -1.099414
     48          1           0      -13.028566    1.343971    1.915393
     49          1           0       13.955385    0.146354   -0.288502
     50          1           0       13.572335   -0.583279   -1.824894
     51          1           0      -13.484697    1.636326   -0.951667
     52          1           0      -12.577883    2.764398    0.288247
     53          1           0       10.775161   -2.199632    3.032496
     54          1           0        9.396183   -1.308641    2.577285
     55          1           0       10.943161   -0.295942    2.684424
     56          1           0       10.538262   -2.902257   -0.755121
     57          1           0       10.463500   -3.882656    0.861569
     58          1           0        9.154515   -2.380542    0.428360
     59          1           0      -11.867353   -0.586623    2.638923
     60          1           0      -10.926094   -2.087259    2.400525
     61          1           0      -12.671979   -2.401206    2.361179
     62          1           0      -13.536104   -2.807563    0.130354
     63          1           0      -11.530858   -3.155295    0.074822
     64          1           0      -12.445231   -2.068533   -1.458499
     65          1           0        8.713543   -0.172164    0.618740
     66          1           0      -10.002210   -1.930417   -0.767468
     67          1           0       10.639481    1.766614   -1.858518
     68          1           0       12.231195    2.226536   -1.395033
     69          1           0       11.877671    1.052232   -2.719437
     70          1           0      -11.139596    2.571194   -2.075327
     71          1           0       -9.804089    1.199273   -1.897554
     72          1           0      -10.073660    2.523578   -0.795872
     73          1           0       14.692018   -3.359749    0.484047
     74          1           0      -15.252546    1.467663    1.667234
     75          1           0       10.252603    2.403595    0.075377
     76          1           0       -8.808326    0.754422    0.283426
     77          1           0        8.978999    4.264621    0.708870
     78          1           0        7.193773    4.290732    0.239520
     79          1           0        7.700693    3.567249    1.944077
     80          1           0       -8.207173   -3.190514   -0.041302
     81          1           0       -8.335514   -2.580712   -1.698874
     82          1           0       -6.723783   -2.970033   -1.158862
     83          1           0        7.067849    0.699036   -0.461070
     84          1           0       -6.530301    0.573045   -0.077932
     85          1           0        5.580239    3.039218    0.931645
     86          1           0       -4.999579   -2.121681   -1.056162
     87          1           0        4.889289    0.495551   -0.448269
     88          1           0       -3.832185    0.744032    0.035773
     89          1           0        2.861007    3.323610    1.693369
     90          1           0        1.537975    3.534146   -0.167288
     91          1           0        3.709377    3.783334    0.084613
     92          1           0       -2.740344   -2.973373   -0.399140
     93          1           0       -2.795697   -2.214974   -2.032285
     94          1           0       -1.267425   -2.621330   -0.851274
     95          1           0        2.736161    0.152392   -0.835181
     96          1           0       -1.802451    1.072226    0.340338
     97          1           0        0.399456    1.924950    0.138336
     98          1           0        0.048323   -1.076545   -1.122098
 ---------------------------------------------------------------------

 SCF Done:  E(RCAM-B3LYP) =  -1706.85167981     A.U. after   14 cycles

 Excitation energies and oscillator strengths:

 Excited State   1:      Singlet-A      2.5245 eV  491.13 nm  f=3.3153  <S**2>=0.000
     155 ->158        -0.20029
     156 ->157         0.66969
 This state for optimization and/or second-order correction.
 Total Energy, E(TD-HF/TD-DFT) =  -1706.75890717
 Copying the excited state density for this state as the 1-particle RhoCI density.

 The electronic state is 1-A.
 Alpha  occ. eigenvalues --  -19.21436 -19.20810 -10.32280 -10.30016 -10.28964
 Alpha  occ. eigenvalues --  -10.28937 -10.28340 -10.27852 -10.27783 -10.27774
 Alpha  occ. eigenvalues --  -10.27579 -10.27525 -10.27367 -10.27293 -10.27179
 Alpha  occ. eigenvalues --  -10.26905 -10.26902 -10.26864 -10.26825 -10.26686
 Alpha  occ. eigenvalues --  -10.26680 -10.26674 -10.26603 -10.26551 -10.26474
 Alpha  occ. eigenvalues --  -10.26469 -10.26423 -10.26263 -10.26227 -10.26015
 Alpha  occ. eigenvalues --  -10.25889 -10.25821 -10.25679 -10.25427 -10.25421
 Alpha  occ. eigenvalues --  -10.25375 -10.25356 -10.25307 -10.25174 -10.24598
 Alpha  occ. eigenvalues --  -10.24512 -10.24253  -1.09538  -1.06936  -0.94511
 Alpha  occ. eigenvalues --   -0.94014  -0.93091  -0.92048  -0.90802  -0.90527
 Alpha  occ. eigenvalues --   -0.88215  -0.86988  -0.86510  -0.85631  -0.85001
 Alpha  occ. eigenvalues --   -0.83794  -0.82418  -0.80089  -0.79399  -0.78029
 Alpha  occ. eigenvalues --   -0.77037  -0.76501  -0.76359  -0.76073  -0.75362
 Alpha  occ. eigenvalues --   -0.75169  -0.74973  -0.73763  -0.73497  -0.70325
 Alpha  occ. eigenvalues --   -0.69126  -0.67319  -0.65112  -0.64755  -0.63616
 Alpha  occ. eigenvalues --   -0.63376  -0.62102  -0.60745  -0.59486  -0.59011
 Alpha  occ. eigenvalues --   -0.58933  -0.58048  -0.57179  -0.56766  -0.56610
 Alpha  occ. eigenvalues --   -0.56065  -0.55778  -0.55296  -0.54523  -0.53929
 Alpha  occ. eigenvalues --   -0.53298  -0.52586  -0.51963  -0.51269  -0.51089
 Alpha  occ. eigenvalues --   -0.50518  -0.50278  -0.49864  -0.49748  -0.49314
 Alpha  occ. eigenvalues --   -0.49186  -0.49065  -0.48567  -0.48361  -0.48135
 Alpha  occ. eigenvalues --   -0.47935  -0.47586  -0.47345  -0.47275  -0.46793
 Alpha  occ. eigenvalues --   -0.46407  -0.45699  -0.45397  -0.44800  -0.44243
 Alpha  occ. eigenvalues --   -0.43863  -0.43568  -0.43390  -0.43212  -0.43078
 Alpha  occ. eigenvalues --   -0.42998  -0.42805  -0.42216  -0.42127  -0.41504
 Alpha  occ. eigenvalues --   -0.41400  -0.41206  -0.40963  -0.40695  -0.39965
 Alpha  occ. eigenvalues --   -0.39745  -0.39332  -0.39327  -0.39009  -0.38948
 Alpha  occ. eigenvalues --   -0.38799  -0.38192  -0.37930  -0.37434  -0.37333
 Alpha  occ. eigenvalues --   -0.37246  -0.37174  -0.36524  -0.35786  -0.35163
 Alpha  occ. eigenvalues --   -0.34704  -0.34383  -0.34023  -0.33272  -0.32126
 Alpha  occ. eigenvalues --   -0.31040  -0.30154  -0.28956  -0.25978  -0.23166
 Alpha  occ. eigenvalues --   -0.20531
 Alpha virt. eigenvalues --   -0.04793  -0.01520   0.01968   0.05838   0.08085
 Alpha virt. eigenvalues --    0.09408   0.09817   0.10008   0.11081   0.11268
 Alpha virt. eigenvalues --    0.11663   0.11911   0.12349   0.12921   0.13054

 Mulliken charges:
               1
     1  O   -0.585736
     2  O   -0.551342
     3  C    0.006325
     4  C    0.000571
     5  C   -0.176067
     6  C   -0.194022
     7  C    0.206643
     8  C    0.148421
     9  C    0.090897
    10  C    0.064469
    11  C   -0.196150
    12  C   -0.208366
    13  C    0.025717
    14  C    0.023173
    15  C   -0.301223
    16  C   -0.260464
    17  C   -0.301551
    18  C   -0.273852
    19  C   -0.119933
    20  C   -0.147519
    21  C   -0.382290
    22  C   -0.350797
    23  C   -0.111108
    24  C   -0.104307
    25  C    0.061680
    26  C    0.106883
    27  C   -0.364401
    28  C   -0.375213
    29  C   -0.133960
    30  C   -0.115113
    31  C   -0.087384
    32  C   -0.118717
    33  C   -0.125060
    34  C   -0.089167
    35  C    0.177675
    36  C    0.137563
    37  C   -0.370678
    38  C   -0.392375
    39  C   -0.089546
    40  C   -0.149819
    41  C   -0.112894
    42  C   -0.080700
    43  H    0.099498
    44  H    0.063284
    45  H    0.083239
    46  H    0.102595
    47  H    0.019128
    48  H    0.089725
    49  H    0.131343
    50  H    0.122669
    51  H    0.118362
    52  H    0.101293
    53  H    0.115311
    54  H    0.057747
    55  H    0.103639
    56  H    0.108137
    57  H    0.049298
    58  H    0.101355
    59  H    0.093700
    60  H    0.100998
    61  H    0.102462
    62  H    0.079204
    63  H    0.101373
    64  H    0.072728
    65  H    0.087111
    66  H    0.075966
    67  H    0.103828
    68  H    0.110132
    69  H    0.123221
    70  H    0.115024
    71  H    0.124085
    72  H    0.129148
    73  H    0.312003
    74  H    0.294011
    75  H    0.089365
    76  H    0.050467
    77  H    0.106937
    78  H    0.113438
    79  H    0.126004
    80  H    0.123648
    81  H    0.136052
    82  H    0.104447
    83  H    0.070837
    84  H    0.083891
    85  H    0.078974
    86  H    0.084201
    87  H    0.086480
    88  H    0.083400
    89  H    0.105221
    90  H    0.078899
    91  H    0.106664
    92  H    0.127208
    93  H    0.128661
    94  H    0.089200
    95  H    0.081747
    96  H    0.073538
    97  H    0.097183
    98  H    0.101658
 Sum of Mulliken charges =  -0.00000

 Dipole moment (field-independent basis, Debye):
    X=              0.0466    Y=             -2.0178    Z=              1.9443  Tot=              2.8025
 Quadrupole moment (field-independent basis, Debye-Ang):
   XX=           -281.1548   YY=           -248.2151   ZZ=           -260.5537
   XY=             17.4608   XZ=             -8.7690   YZ=              1.2960

 Normal termination of Gaussian 16 at Tue Jul 16 05:02:11 2019.
