 Gaussian 16, Revision A.03,
 Gaussian 16:  ES64L-G16RevA.03 25-Dec-2016

 -------------------------------------
 # td=(NStates=1) CAM-B3LYP/6-31G(d,p)
 -------------------------------------

 --
 TD
 --
 Symbolic Z-matrix:
 Charge =  0 Multiplicity = 1

                         Standard orientation:
 ---------------------------------------------------------------------
 Center     Atomic      Atomic             Coordinates (Angstroms)
 Number     Number       Type             X           Y           Z
 ---------------------------------------------------------------------
      1          8           0       14.631003   -2.301216   -0.252974
      2          8           0      -14.635001    1.937050    1.096320
      3          6           0       11.166473   -1.428545    0.988729
      4          6           0      -12.292078   -1.076068    0.666330
      5          6           0       12.668099   -1.806180    1.025568
      6          6           0      -13.592684   -0.204713    0.694593
      7          6           0       13.318350   -1.977016   -0.382462
      8          6           0      -13.464508    1.247196    0.943809
      9          6           0       10.982532   -0.286578    0.071578
     10          6           0      -11.264653   -0.175048   -0.250778
     11          6           0       13.207781   -0.602501   -1.001039
     12          6           0      -12.770119    1.867492   -0.245726
     13          6           0       11.846794    0.039905   -0.866738
     14          6           0      -11.567036    1.073531   -0.720957
     15          6           0       10.652021   -0.916484    2.442417
     16          6           0       10.355405   -2.688520    0.584246
     17          6           0      -11.737066   -1.145365    2.143691
     18          6           0      -12.619589   -2.324492    0.044447
     19          6           0        9.649395    0.360721    0.174708
     20          6           0      -10.123686   -1.045643   -0.580125
     21          6           0       11.655263    1.142634   -1.905437
     22          6           0      -10.680724    1.761662   -1.638166
     23          6           0        9.367692    1.711652    0.090013
     24          6           0       -8.787463   -0.630494   -0.419200
     25          6           0        8.155210    2.365141    0.131388
     26          6           0       -7.558246   -1.328636   -0.641996
     27          6           0        8.121946    3.769088    0.573228
     28          6           0       -7.592081   -2.859681   -0.795074
     29          6           0        6.936696    1.561966   -0.066896
     30          6           0       -6.391231   -0.743200   -0.469267
     31          6           0        5.627663    2.104606    0.156328
     32          6           0       -5.081151   -1.218211   -0.577831
     33          6           0        4.414363    1.379855    0.013935
     34          6           0       -3.926078   -0.396394   -0.379583
     35          6           0        3.088873    1.725287    0.142960
     36          6           0       -2.593578   -0.801656   -0.463623
     37          6           0        2.755596    3.173442    0.548871
     38          6           0       -2.272518   -2.241683   -0.713785
     39          6           0        2.076191    0.694517   -0.230608
     40          6           0       -1.678585    0.262390   -0.264553
     41          6           0        0.658218    1.031536   -0.120254
     42          6           0       -0.316808    0.038027   -0.415301
     43          1           0       13.477697   -1.228181    1.763431
     44          1           0       12.607814   -2.742091    1.465573
     45          1           0      -14.380407   -0.624652    1.531743
     46          1           0      -14.151502   -0.264541   -0.140215
     47          1           0       13.001452   -2.789436   -1.051766
     48          1           0      -12.785332    1.381329    1.666255
     49          1           0       13.992418    0.025428   -0.545800
     50          1           0       13.522402   -0.414528   -1.966454
     51          1           0      -13.341116    2.070292   -1.181801
     52          1           0      -12.497998    2.673848   -0.067890
     53          1           0       11.051223   -1.722192    3.223850
     54          1           0        9.617829   -0.555805    2.535022
     55          1           0       11.444869    0.029932    2.461034
     56          1           0       10.826626   -3.066563   -0.269655
     57          1           0       10.498606   -3.534869    1.245103
     58          1           0        9.404099   -2.425325    0.514789
     59          1           0      -11.527904   -0.268649    2.546565
     60          1           0      -10.695291   -1.614359    2.019830
     61          1           0      -12.136453   -1.872899    2.838680
     62          1           0      -13.333933   -3.016117    0.570405
     63          1           0      -11.801312   -2.993203   -0.126121
     64          1           0      -13.092537   -2.249922   -0.912260
     65          1           0        8.798575   -0.344845    0.274396
     66          1           0      -10.133252   -2.118810   -0.522177
     67          1           0       10.536636    1.405617   -2.193832
     68          1           0       11.930211    2.096391   -1.497996
     69          1           0       12.050497    1.014015   -2.859703
     70          1           0      -11.249211    2.170287   -2.466276
     71          1           0      -10.003029    1.054153   -1.869461
     72          1           0      -10.108316    2.707444   -1.103108
     73          1           0       14.790954   -3.081097    0.293642
     74          1           0      -15.359229    1.792573    1.800152
     75          1           0       10.442988    2.215437    0.232474
     76          1           0       -8.505523    0.525580   -0.459586
     77          1           0        9.163035    4.195507    0.416155
     78          1           0        7.295949    4.363553    0.054518
     79          1           0        7.859136    3.816939    1.626733
     80          1           0       -7.902180   -3.463367   -0.024297
     81          1           0       -8.356440   -3.349744   -1.613850
     82          1           0       -6.601371   -3.191329   -1.149149
     83          1           0        7.077311    0.556390   -0.396802
     84          1           0       -6.472420    0.335198   -0.340902
     85          1           0        5.341578    3.060547    0.341735
     86          1           0       -5.059502   -2.292673   -0.879742
     87          1           0        4.572916    0.380557   -0.345541
     88          1           0       -4.207416    0.694020   -0.251837
     89          1           0        3.012423    3.628515    1.631733
     90          1           0        1.463977    3.310242    0.465163
     91          1           0        3.031301    3.927782   -0.267005
     92          1           0       -2.558212   -2.880890    0.131058
     93          1           0       -2.779629   -2.479318   -1.652820
     94          1           0       -1.249463   -2.502667   -0.907853
     95          1           0        2.444914   -0.181369   -0.476312
     96          1           0       -1.863648    1.286548   -0.019748
     97          1           0        0.492173    2.092267    0.160023
     98          1           0        0.066930   -1.108866   -0.721499
 ---------------------------------------------------------------------

 SCF Done:  E(RCAM-B3LYP) =  -1706.90707172     A.U. after   16 cycles

 Excitation energies and oscillator strengths:

 Excited State   1:      Singlet-A      1.7931 eV  691.46 nm  f=3.7061  <S**2>=0.000
     155 ->158        -0.13905
     156 ->157         0.69914
     156 <-157        -0.11785
 This state for optimization and/or second-order correction.
 Total Energy, E(TD-HF/TD-DFT) =  -1706.84117750
 Copying the excited state density for this state as the 1-particle RhoCI density.

 The electronic state is 1-A.
 Alpha  occ. eigenvalues --  -19.20689 -19.20475 -10.30609 -10.29381 -10.28477
 Alpha  occ. eigenvalues --  -10.28297 -10.27874 -10.27845 -10.27649 -10.27548
 Alpha  occ. eigenvalues --  -10.27539 -10.27397 -10.27050 -10.26948 -10.26859
 Alpha  occ. eigenvalues --  -10.26774 -10.26575 -10.26524 -10.26431 -10.26425
 Alpha  occ. eigenvalues --  -10.26417 -10.26401 -10.26302 -10.26191 -10.26123
 Alpha  occ. eigenvalues --  -10.26003 -10.25994 -10.25981 -10.25979 -10.25749
 Alpha  occ. eigenvalues --  -10.25571 -10.25374 -10.24951 -10.24918 -10.24690
 Alpha  occ. eigenvalues --  -10.24231 -10.24187 -10.23489 -10.23453 -10.23442
 Alpha  occ. eigenvalues --  -10.23163 -10.22121  -1.11384  -1.08841  -0.93933
 Alpha  occ. eigenvalues --   -0.92923  -0.92103  -0.91151  -0.90657  -0.89739
 Alpha  occ. eigenvalues --   -0.87653  -0.86753  -0.86509  -0.85198  -0.84461
 Alpha  occ. eigenvalues --   -0.82924  -0.81791  -0.79775  -0.79609  -0.78507
 Alpha  occ. eigenvalues --   -0.77214  -0.77143  -0.76557  -0.76423  -0.75917
 Alpha  occ. eigenvalues --   -0.75324  -0.75097  -0.74612  -0.72923  -0.71158
 Alpha  occ. eigenvalues --   -0.69518  -0.68238  -0.66996  -0.65690  -0.64426
 Alpha  occ. eigenvalues --   -0.63900  -0.62919  -0.61550  -0.60551  -0.60046
 Alpha  occ. eigenvalues --   -0.59810  -0.58886  -0.58445  -0.58422  -0.56579
 Alpha  occ. eigenvalues --   -0.56377  -0.55418  -0.55086  -0.54835  -0.54012
 Alpha  occ. eigenvalues --   -0.53456  -0.52355  -0.52088  -0.51701  -0.51019
 Alpha  occ. eigenvalues --   -0.50211  -0.50082  -0.50051  -0.49729  -0.49427
 Alpha  occ. eigenvalues --   -0.49151  -0.48873  -0.48538  -0.48244  -0.47997
 Alpha  occ. eigenvalues --   -0.47711  -0.47476  -0.47365  -0.46957  -0.46754
 Alpha  occ. eigenvalues --   -0.46211  -0.45656  -0.45401  -0.44970  -0.44808
 Alpha  occ. eigenvalues --   -0.44629  -0.44257  -0.43795  -0.43437  -0.43094
 Alpha  occ. eigenvalues --   -0.42878  -0.42709  -0.42378  -0.42159  -0.42006
 Alpha  occ. eigenvalues --   -0.41801  -0.41389  -0.41351  -0.40822  -0.40669
 Alpha  occ. eigenvalues --   -0.40271  -0.40100  -0.39851  -0.39502  -0.39285
 Alpha  occ. eigenvalues --   -0.38629  -0.38204  -0.37941  -0.37702  -0.37650
 Alpha  occ. eigenvalues --   -0.37253  -0.36972  -0.36334  -0.35706  -0.35379
 Alpha  occ. eigenvalues --   -0.34817  -0.34398  -0.33348  -0.31928  -0.31917
 Alpha  occ. eigenvalues --   -0.31753  -0.29814  -0.28307  -0.26018  -0.22677
 Alpha  occ. eigenvalues --   -0.18032
 Alpha virt. eigenvalues --   -0.07022  -0.01682   0.02316   0.05558   0.08200
 Alpha virt. eigenvalues --    0.09398   0.10662   0.12029   0.12103   0.12616
 Alpha virt. eigenvalues --    0.12869   0.13099   0.13285   0.13797   0.13905

 Mulliken charges:
               1
     1  O   -0.561816
     2  O   -0.592448
     3  C   -0.041969
     4  C    0.006427
     5  C   -0.212870
     6  C   -0.170835
     7  C    0.191401
     8  C    0.214566
     9  C    0.075257
    10  C    0.037732
    11  C   -0.209627
    12  C   -0.159454
    13  C    0.055194
    14  C    0.035453
    15  C   -0.291493
    16  C   -0.294408
    17  C   -0.305649
    18  C   -0.318442
    19  C   -0.114699
    20  C   -0.148856
    21  C   -0.381211
    22  C   -0.347370
    23  C   -0.117720
    24  C   -0.113221
    25  C    0.094183
    26  C    0.128660
    27  C   -0.372342
    28  C   -0.379214
    29  C   -0.119119
    30  C   -0.102151
    31  C   -0.069205
    32  C   -0.100825
    33  C   -0.128632
    34  C   -0.119997
    35  C    0.101123
    36  C    0.092490
    37  C   -0.367923
    38  C   -0.367443
    39  C   -0.087626
    40  C   -0.097312
    41  C   -0.091123
    42  C   -0.089668
    43  H    0.087650
    44  H    0.082178
    45  H    0.032475
    46  H    0.099394
    47  H    0.081344
    48  H    0.075078
    49  H    0.120241
    50  H    0.101178
    51  H    0.097449
    52  H    0.096765
    53  H    0.081544
    54  H    0.122382
    55  H    0.080195
    56  H    0.106838
    57  H    0.098770
    58  H    0.108900
    59  H    0.117995
    60  H    0.084624
    61  H    0.104821
    62  H    0.096027
    63  H    0.099632
    64  H    0.114566
    65  H    0.080451
    66  H    0.088798
    67  H    0.107364
    68  H    0.125433
    69  H    0.114033
    70  H    0.109081
    71  H    0.126458
    72  H    0.082575
    73  H    0.304127
    74  H    0.313636
    75  H    0.076588
    76  H    0.062887
    77  H    0.109738
    78  H    0.114469
    79  H    0.137537
    80  H    0.136510
    81  H    0.079329
    82  H    0.103177
    83  H    0.091341
    84  H    0.068154
    85  H    0.070698
    86  H    0.077677
    87  H    0.062487
    88  H    0.088661
    89  H    0.122180
    90  H    0.060380
    91  H    0.130059
    92  H    0.134663
    93  H    0.130190
    94  H    0.111706
    95  H    0.078464
    96  H    0.095801
    97  H    0.085028
    98  H    0.072453
 Sum of Mulliken charges =  -0.00000

 Dipole moment (field-independent basis, Debye):
    X=              1.1543    Y=             -1.5233    Z=              1.2372  Tot=              2.2768
 Quadrupole moment (field-independent basis, Debye-Ang):
   XX=           -262.9290   YY=           -238.0981   ZZ=           -262.7322
   XY=             -2.1201   XZ=             -6.3216   YZ=              0.9835

 Normal termination of Gaussian 16 at Wed Jul 10 12:56:26 2019.
