 Gaussian 16, Revision A.03,
 Gaussian 16:  ES64L-G16RevA.03 25-Dec-2016

 -------------------------------------
 # td=(NStates=1) CAM-B3LYP/6-31G(d,p)
 -------------------------------------

 --
 TD
 --
 Symbolic Z-matrix:
 Charge =  0 Multiplicity = 1

                         Standard orientation:
 ---------------------------------------------------------------------
 Center     Atomic      Atomic             Coordinates (Angstroms)
 Number     Number       Type             X           Y           Z
 ---------------------------------------------------------------------
      1          8           0       14.802606   -2.188493   -0.476846
      2          8           0      -14.926992    1.780812    0.806269
      3          6           0       11.197288   -1.484632    0.958574
      4          6           0      -12.381118   -1.036906    0.600140
      5          6           0       12.729311   -1.796369    0.973413
      6          6           0      -13.759206   -0.334937    0.491506
      7          6           0       13.335757   -1.825377   -0.354701
      8          6           0      -13.717525    1.072343    0.801722
      9          6           0       10.952197   -0.257915   -0.023581
     10          6           0      -11.294013   -0.215620   -0.245229
     11          6           0       13.278601   -0.512289   -1.036235
     12          6           0      -12.880986    1.770056   -0.246231
     13          6           0       11.892147    0.200066   -0.973864
     14          6           0      -11.514502    1.070772   -0.583508
     15          6           0       10.828102   -1.108242    2.463231
     16          6           0       10.435049   -2.726229    0.541506
     17          6           0      -11.916370   -1.384133    2.019465
     18          6           0      -12.452930   -2.344629   -0.083173
     19          6           0        9.646557    0.422162    0.225059
     20          6           0      -10.029225   -0.929070   -0.521251
     21          6           0       11.662847    1.285298   -1.992954
     22          6           0      -10.660095    1.906627   -1.471683
     23          6           0        9.373150    1.700597    0.140676
     24          6           0       -8.771816   -0.471342   -0.327026
     25          6           0        8.084115    2.280786    0.143883
     26          6           0       -7.556710   -1.096579   -0.703042
     27          6           0        7.968398    3.725510    0.486379
     28          6           0       -7.644000   -2.590667   -1.157243
     29          6           0        6.941507    1.474304   -0.048322
     30          6           0       -6.363576   -0.514998   -0.321617
     31          6           0        5.611460    2.050859    0.237013
     32          6           0       -5.042761   -1.111026   -0.421617
     33          6           0        4.478415    1.159806   -0.006101
     34          6           0       -3.959976   -0.269077   -0.060153
     35          6           0        3.138931    1.587927    0.147908
     36          6           0       -2.620301   -0.708839   -0.327874
     37          6           0        2.934684    2.994414    0.700828
     38          6           0       -2.326754   -2.106608   -0.791878
     39          6           0        2.175693    0.661120   -0.117594
     40          6           0       -1.616172    0.182990    0.019430
     41          6           0        0.809065    0.906332    0.110653
     42          6           0       -0.232996   -0.004167   -0.215675
     43          1           0       13.153905   -1.142713    1.779843
     44          1           0       12.788847   -2.873456    1.372912
     45          1           0      -14.517569   -0.762786    1.166126
     46          1           0      -14.211572   -0.455147   -0.460596
     47          1           0       12.824088   -2.622884   -1.172979
     48          1           0      -13.050862    1.439758    1.725432
     49          1           0       14.022595    0.315991   -0.620203
     50          1           0       13.719878   -0.282467   -2.114333
     51          1           0      -13.402351    1.958211   -1.203442
     52          1           0      -12.690893    2.680700    0.099605
     53          1           0       11.273872   -1.880874    2.965721
     54          1           0        9.646458   -1.161643    2.711747
     55          1           0       11.256230   -0.160448    2.664968
     56          1           0       10.916604   -3.195554   -0.487668
     57          1           0       10.522267   -3.456685    1.295942
     58          1           0        9.232674   -2.584779    0.461048
     59          1           0      -11.820349   -0.378246    2.650785
     60          1           0      -11.075203   -1.834267    2.286814
     61          1           0      -12.739408   -1.881187    2.695723
     62          1           0      -13.609337   -2.652474    0.167014
     63          1           0      -11.884761   -3.067776    0.237621
     64          1           0      -12.514940   -2.424119   -1.333003
     65          1           0        8.958914   -0.456299    0.589602
     66          1           0      -10.189381   -1.935654   -0.775083
     67          1           0       10.646056    1.533849   -2.116679
     68          1           0       12.314111    2.129017   -1.713837
     69          1           0       12.130164    0.962522   -3.089671
     70          1           0      -11.297221    2.110235   -2.490703
     71          1           0       -9.826587    1.349884   -1.884961
     72          1           0      -10.339651    2.914705   -1.056535
     73          1           0       14.966215   -3.071862   -0.231008
     74          1           0      -15.339081    1.333319    1.530250
     75          1           0       10.267454    2.404479    0.009381
     76          1           0       -8.636906    0.628686    0.184876
     77          1           0        8.991896    4.016383    0.791869
     78          1           0        7.545660    4.454899   -0.190449
     79          1           0        7.272445    3.756041    1.413201
     80          1           0       -8.241777   -3.310778   -0.292939
     81          1           0       -8.587882   -2.638768   -2.100216
     82          1           0       -6.588002   -2.997633   -1.313055
     83          1           0        7.040991    0.538417   -0.332907
     84          1           0       -6.631968    0.479895    0.180075
     85          1           0        5.266747    2.894155    0.626379
     86          1           0       -4.767397   -1.957334   -0.892744
     87          1           0        4.712447    0.066320   -0.362143
     88          1           0       -4.113821    0.692392    0.205557
     89          1           0        3.578990    3.171830    1.674190
     90          1           0        1.774763    3.079697    1.169154
     91          1           0        3.180690    3.656809   -0.093987
     92          1           0       -2.489644   -3.071348    0.039274
     93          1           0       -2.985551   -2.205707   -1.764072
     94          1           0       -1.256448   -2.374044   -1.336033
     95          1           0        2.584505   -0.231033   -0.639958
     96          1           0       -1.852836    1.133582    0.349973
     97          1           0        0.570441    2.059120    0.653981
     98          1           0        0.103130   -1.165393   -0.450251
 ---------------------------------------------------------------------

 SCF Done:  E(RCAM-B3LYP) =  -1706.88063154     A.U. after   15 cycles

 Excitation energies and oscillator strengths:

 Excited State   1:      Singlet-A      2.1266 eV  583.01 nm  f=3.6918  <S**2>=0.000
     155 ->158        -0.16129
     156 ->157         0.68724
 This state for optimization and/or second-order correction.
 Total Energy, E(TD-HF/TD-DFT) =  -1706.80247945
 Copying the excited state density for this state as the 1-particle RhoCI density.

 The electronic state is 1-A.
 Alpha  occ. eigenvalues --  -19.21550 -19.20414 -10.32894 -10.29897 -10.29585
 Alpha  occ. eigenvalues --  -10.29576 -10.28765 -10.28697 -10.28317 -10.28241
 Alpha  occ. eigenvalues --  -10.27954 -10.27804 -10.27709 -10.27240 -10.27078
 Alpha  occ. eigenvalues --  -10.27051 -10.27018 -10.27013 -10.26870 -10.26786
 Alpha  occ. eigenvalues --  -10.26712 -10.26603 -10.26479 -10.26414 -10.26376
 Alpha  occ. eigenvalues --  -10.26351 -10.26326 -10.26307 -10.26153 -10.26057
 Alpha  occ. eigenvalues --  -10.25905 -10.25730 -10.25692 -10.25622 -10.25556
 Alpha  occ. eigenvalues --  -10.25475 -10.25414 -10.25404 -10.25401 -10.25033
 Alpha  occ. eigenvalues --  -10.24900 -10.23125  -1.11427  -1.07270  -0.93333
 Alpha  occ. eigenvalues --   -0.93237  -0.92104  -0.91592  -0.90638  -0.89812
 Alpha  occ. eigenvalues --   -0.86951  -0.86825  -0.86377  -0.85452  -0.84688
 Alpha  occ. eigenvalues --   -0.83123  -0.81600  -0.80442  -0.79311  -0.77756
 Alpha  occ. eigenvalues --   -0.76522  -0.76342  -0.76029  -0.75725  -0.75662
 Alpha  occ. eigenvalues --   -0.75239  -0.74762  -0.74017  -0.73199  -0.70690
 Alpha  occ. eigenvalues --   -0.68471  -0.67005  -0.65318  -0.64433  -0.64166
 Alpha  occ. eigenvalues --   -0.63588  -0.63218  -0.61405  -0.60266  -0.59495
 Alpha  occ. eigenvalues --   -0.58773  -0.58202  -0.57494  -0.57274  -0.56048
 Alpha  occ. eigenvalues --   -0.55386  -0.55013  -0.54501  -0.54172  -0.53384
 Alpha  occ. eigenvalues --   -0.53172  -0.52936  -0.52255  -0.51555  -0.50956
 Alpha  occ. eigenvalues --   -0.50747  -0.50487  -0.50185  -0.49584  -0.48883
 Alpha  occ. eigenvalues --   -0.48565  -0.48523  -0.48243  -0.47919  -0.47663
 Alpha  occ. eigenvalues --   -0.47544  -0.46829  -0.46576  -0.46078  -0.45961
 Alpha  occ. eigenvalues --   -0.45542  -0.45215  -0.44749  -0.44452  -0.44303
 Alpha  occ. eigenvalues --   -0.43966  -0.43806  -0.43801  -0.43473  -0.43438
 Alpha  occ. eigenvalues --   -0.43039  -0.42655  -0.42337  -0.42196  -0.42101
 Alpha  occ. eigenvalues --   -0.41978  -0.41646  -0.41505  -0.41096  -0.40584
 Alpha  occ. eigenvalues --   -0.40362  -0.39917  -0.39894  -0.39215  -0.39139
 Alpha  occ. eigenvalues --   -0.38558  -0.38171  -0.37917  -0.37698  -0.37446
 Alpha  occ. eigenvalues --   -0.37348  -0.37130  -0.36714  -0.36291  -0.35875
 Alpha  occ. eigenvalues --   -0.35551  -0.34715  -0.33437  -0.32708  -0.32678
 Alpha  occ. eigenvalues --   -0.32110  -0.29558  -0.27912  -0.25961  -0.22955
 Alpha  occ. eigenvalues --   -0.19197
 Alpha virt. eigenvalues --   -0.05939  -0.01178   0.02323   0.05595   0.07784
 Alpha virt. eigenvalues --    0.09120   0.09567   0.10381   0.11150   0.11451
 Alpha virt. eigenvalues --    0.11713   0.12391   0.12487   0.12655   0.13095

 Mulliken charges:
               1
     1  O   -0.575805
     2  O   -0.534553
     3  C   -0.019088
     4  C    0.017558
     5  C   -0.192508
     6  C   -0.184606
     7  C    0.173510
     8  C    0.139285
     9  C    0.022037
    10  C    0.055773
    11  C   -0.207201
    12  C   -0.205310
    13  C    0.062557
    14  C    0.038249
    15  C   -0.304639
    16  C   -0.283441
    17  C   -0.308996
    18  C   -0.289628
    19  C   -0.083531
    20  C   -0.143905
    21  C   -0.361410
    22  C   -0.358888
    23  C   -0.138271
    24  C   -0.095664
    25  C    0.091378
    26  C    0.122788
    27  C   -0.373060
    28  C   -0.332520
    29  C   -0.086222
    30  C   -0.121605
    31  C   -0.080821
    32  C   -0.095273
    33  C   -0.135241
    34  C   -0.077317
    35  C    0.120359
    36  C    0.109349
    37  C   -0.367194
    38  C   -0.363605
    39  C   -0.102635
    40  C   -0.103438
    41  C   -0.093880
    42  C   -0.106583
    43  H    0.117080
    44  H    0.080053
    45  H    0.072684
    46  H    0.121517
    47  H    0.075482
    48  H    0.061308
    49  H    0.103752
    50  H    0.100497
    51  H    0.104083
    52  H    0.110706
    53  H    0.113057
    54  H    0.087880
    55  H    0.122534
    56  H    0.085771
    57  H    0.110912
    58  H    0.084008
    59  H    0.081296
    60  H    0.130728
    61  H    0.087242
    62  H    0.068645
    63  H    0.119444
    64  H    0.078287
    65  H    0.076912
    66  H    0.083885
    67  H    0.137608
    68  H    0.121147
    69  H    0.084588
    70  H    0.083033
    71  H    0.125135
    72  H    0.108718
    73  H    0.296473
    74  H    0.299969
    75  H    0.087493
    76  H    0.071691
    77  H    0.105001
    78  H    0.128508
    79  H    0.112021
    80  H    0.091400
    81  H    0.078562
    82  H    0.109055
    83  H    0.075510
    84  H    0.083839
    85  H    0.073813
    86  H    0.085344
    87  H    0.075429
    88  H    0.085612
    89  H    0.117914
    90  H    0.084680
    91  H    0.146786
    92  H    0.105101
    93  H    0.110899
    94  H    0.100837
    95  H    0.090786
    96  H    0.079690
    97  H    0.064821
    98  H    0.074766
 Sum of Mulliken charges =  -0.00000

 Dipole moment (field-independent basis, Debye):
    X=              1.7649    Y=             -1.5863    Z=              1.9783  Tot=              3.0895
 Quadrupole moment (field-independent basis, Debye-Ang):
   XX=           -287.5190   YY=           -244.7040   ZZ=           -262.1678
   XY=              9.0653   XZ=             -6.1988   YZ=              1.2128

 Normal termination of Gaussian 16 at Mon Jul 15 09:57:57 2019.
