 Gaussian 16, Revision A.03,
 Gaussian 16:  ES64L-G16RevA.03 25-Dec-2016

 -------------------------------------
 # td=(NStates=1) CAM-B3LYP/6-31G(d,p)
 -------------------------------------

 --
 TD
 --
 Symbolic Z-matrix:
 Charge =  0 Multiplicity = 1

                         Standard orientation:
 ---------------------------------------------------------------------
 Center     Atomic      Atomic             Coordinates (Angstroms)
 Number     Number       Type             X           Y           Z
 ---------------------------------------------------------------------
      1          8           0       14.480610   -2.549841   -0.534840
      2          8           0      -14.770616    1.782672    0.574252
      3          6           0       11.114607   -1.532237    0.912106
      4          6           0      -12.208523   -1.089022    0.836579
      5          6           0       12.513460   -2.010556    0.911442
      6          6           0      -13.578100   -0.353219    0.718844
      7          6           0       13.026635   -2.113581   -0.489623
      8          6           0      -13.510370    1.224779    0.654093
      9          6           0       10.816448   -0.292715    0.000375
     10          6           0      -11.173019   -0.443900   -0.157275
     11          6           0       13.015387   -0.696969   -1.096718
     12          6           0      -12.754929    1.708536   -0.576284
     13          6           0       11.791415    0.010289   -0.934028
     14          6           0      -11.371383    0.828026   -0.808709
     15          6           0       10.834833   -1.132982    2.499263
     16          6           0       10.050791   -2.603597    0.585290
     17          6           0      -11.637917   -0.975759    2.362816
     18          6           0      -12.488742   -2.542830    0.342706
     19          6           0        9.610335    0.294201    0.306724
     20          6           0       -9.956360   -1.136611   -0.214329
     21          6           0       11.512522    1.180515   -1.910918
     22          6           0      -10.547020    1.544569   -1.750655
     23          6           0        9.396215    1.767403    0.230120
     24          6           0       -8.709408   -0.573027   -0.320612
     25          6           0        8.130375    2.280320    0.345800
     26          6           0       -7.539824   -1.248420   -0.470530
     27          6           0        7.984073    3.790102    0.818978
     28          6           0       -7.533790   -2.724535   -0.697374
     29          6           0        6.894953    1.630459    0.054014
     30          6           0       -6.395694   -0.536915   -0.335633
     31          6           0        5.626495    2.232748    0.396803
     32          6           0       -4.979686   -1.029986   -0.602875
     33          6           0        4.498497    1.463011    0.071225
     34          6           0       -3.852401   -0.261528   -0.352578
     35          6           0        3.145462    1.896441    0.180221
     36          6           0       -2.577477   -0.531469   -0.610628
     37          6           0        2.816502    3.266245    0.717865
     38          6           0       -2.399314   -2.052135   -1.025724
     39          6           0        2.206870    1.003030   -0.219631
     40          6           0       -1.557520    0.420119   -0.449938
     41          6           0        0.762633    1.232663   -0.259353
     42          6           0       -0.146603    0.165216   -0.429207
     43          1           0       13.332610   -1.509252    1.435045
     44          1           0       12.598651   -3.034330    1.415479
     45          1           0      -14.076298   -0.590722    1.736258
     46          1           0      -14.240571   -0.528111    0.024967
     47          1           0       12.523702   -2.863405   -1.328746
     48          1           0      -12.832567    1.816013    1.520361
     49          1           0       14.140341   -0.216684   -0.676719
     50          1           0       13.215736   -0.702231   -2.209014
     51          1           0      -13.346671    1.668826   -1.466415
     52          1           0      -12.531398    2.795464   -0.512396
     53          1           0       11.224821   -1.940566    3.264828
     54          1           0        9.831315   -0.903718    2.693285
     55          1           0       11.309245   -0.108983    2.812852
     56          1           0       10.311595   -3.111945   -0.454107
     57          1           0        9.870223   -3.488888    1.061791
     58          1           0        9.017677   -2.330914    0.344529
     59          1           0      -11.547523    0.138000    2.805643
     60          1           0      -10.829145   -1.556204    2.652462
     61          1           0      -12.403250   -1.564289    3.009175
     62          1           0      -13.335731   -3.044868    0.966517
     63          1           0      -11.601768   -3.344519    0.615554
     64          1           0      -12.640201   -2.588697   -0.801608
     65          1           0        8.802663   -0.392267    0.642686
     66          1           0      -10.108945   -2.259498   -0.408020
     67          1           0       10.491328    1.628262   -2.081074
     68          1           0       12.163828    2.002644   -1.488687
     69          1           0       11.899681    0.876512   -2.926466
     70          1           0      -11.142617    1.861057   -2.814564
     71          1           0       -9.692325    0.888878   -2.260130
     72          1           0       -9.994062    2.464696   -1.494017
     73          1           0       14.537861   -3.488733   -0.118984
     74          1           0      -15.493804    1.410439    1.039989
     75          1           0       10.209442    2.347211    0.012204
     76          1           0       -8.690202    0.643473   -0.073229
     77          1           0        8.973391    4.248687    0.542127
     78          1           0        7.171398    4.598958    0.343683
     79          1           0        7.706514    3.902169    1.950236
     80          1           0       -7.816697   -3.296641    0.139831
     81          1           0       -8.368009   -2.898026   -1.483889
     82          1           0       -6.490862   -3.128512   -0.934599
     83          1           0        6.905700    0.629437   -0.469026
     84          1           0       -6.515696    0.559443   -0.156512
     85          1           0        5.589854    3.195439    0.810660
     86          1           0       -4.567397   -2.069226   -0.798835
     87          1           0        4.679071    0.572265   -0.282484
     88          1           0       -4.035451    0.751545    0.096077
     89          1           0        3.565353    3.340713    1.629166
     90          1           0        1.713274    3.381667    0.934107
     91          1           0        3.178563    3.762917   -0.234440
     92          1           0       -2.183801   -2.794974   -0.151953
     93          1           0       -3.159241   -2.520266   -1.690736
     94          1           0       -1.302559   -2.238697   -1.548951
     95          1           0        2.458345    0.138511   -0.517248
     96          1           0       -1.799038    1.357568   -0.016294
     97          1           0        0.334645    2.152717    0.051679
     98          1           0        0.326504   -0.821084   -0.863196
 ---------------------------------------------------------------------

 SCF Done:  E(RCAM-B3LYP) =  -1706.90402362     A.U. after   15 cycles

 Excitation energies and oscillator strengths:

 Excited State   1:      Singlet-A      2.0494 eV  604.98 nm  f=3.6575  <S**2>=0.000
     155 ->158        -0.18761
     156 ->157         0.67827
 This state for optimization and/or second-order correction.
 Total Energy, E(TD-HF/TD-DFT) =  -1706.82870999
 Copying the excited state density for this state as the 1-particle RhoCI density.

 The electronic state is 1-A.
 Alpha  occ. eigenvalues --  -19.21204 -19.20710 -10.32088 -10.31450 -10.29501
 Alpha  occ. eigenvalues --  -10.28868 -10.27997 -10.27942 -10.27823 -10.27820
 Alpha  occ. eigenvalues --  -10.27614 -10.27602 -10.27494 -10.27419 -10.27384
 Alpha  occ. eigenvalues --  -10.27269 -10.27065 -10.27006 -10.26917 -10.26895
 Alpha  occ. eigenvalues --  -10.26830 -10.26801 -10.26774 -10.26750 -10.26671
 Alpha  occ. eigenvalues --  -10.26466 -10.26405 -10.26345 -10.26334 -10.26230
 Alpha  occ. eigenvalues --  -10.26111 -10.26064 -10.25990 -10.25793 -10.25593
 Alpha  occ. eigenvalues --  -10.25574 -10.25351 -10.25260 -10.25119 -10.25029
 Alpha  occ. eigenvalues --  -10.24897 -10.24595  -1.10452  -1.05535  -0.94128
 Alpha  occ. eigenvalues --   -0.92640  -0.92331  -0.91579  -0.90461  -0.89766
 Alpha  occ. eigenvalues --   -0.87072  -0.86840  -0.85506  -0.85283  -0.84224
 Alpha  occ. eigenvalues --   -0.83102  -0.80979  -0.79310  -0.78916  -0.77925
 Alpha  occ. eigenvalues --   -0.76397  -0.76324  -0.75974  -0.75601  -0.75283
 Alpha  occ. eigenvalues --   -0.75001  -0.74589  -0.74443  -0.73145  -0.70486
 Alpha  occ. eigenvalues --   -0.69440  -0.67473  -0.65666  -0.64674  -0.64329
 Alpha  occ. eigenvalues --   -0.63851  -0.63667  -0.62300  -0.61255  -0.59296
 Alpha  occ. eigenvalues --   -0.58988  -0.58177  -0.57318  -0.56888  -0.56077
 Alpha  occ. eigenvalues --   -0.55827  -0.55131  -0.54721  -0.53836  -0.53779
 Alpha  occ. eigenvalues --   -0.53244  -0.52196  -0.51528  -0.51107  -0.50286
 Alpha  occ. eigenvalues --   -0.49753  -0.49609  -0.49212  -0.49041  -0.48649
 Alpha  occ. eigenvalues --   -0.48605  -0.48213  -0.47951  -0.47589  -0.47272
 Alpha  occ. eigenvalues --   -0.47052  -0.46713  -0.46599  -0.46320  -0.45951
 Alpha  occ. eigenvalues --   -0.45718  -0.45159  -0.44999  -0.44859  -0.44647
 Alpha  occ. eigenvalues --   -0.44488  -0.44219  -0.43349  -0.43129  -0.43041
 Alpha  occ. eigenvalues --   -0.42923  -0.42691  -0.42585  -0.42167  -0.42025
 Alpha  occ. eigenvalues --   -0.41684  -0.41210  -0.41010  -0.40684  -0.40443
 Alpha  occ. eigenvalues --   -0.40294  -0.40144  -0.39821  -0.39664  -0.39455
 Alpha  occ. eigenvalues --   -0.39211  -0.39113  -0.38650  -0.37904  -0.37533
 Alpha  occ. eigenvalues --   -0.37301  -0.36852  -0.36709  -0.35781  -0.35396
 Alpha  occ. eigenvalues --   -0.35076  -0.34382  -0.33640  -0.32197  -0.31828
 Alpha  occ. eigenvalues --   -0.31032  -0.30006  -0.28165  -0.25408  -0.22246
 Alpha  occ. eigenvalues --   -0.19164
 Alpha virt. eigenvalues --   -0.06087  -0.02541   0.01374   0.04683   0.07619
 Alpha virt. eigenvalues --    0.09245   0.10916   0.11426   0.11928   0.12243
 Alpha virt. eigenvalues --    0.12809   0.12913   0.13251   0.13459   0.13538

 Mulliken charges:
               1
     1  O   -0.587304
     2  O   -0.554452
     3  C   -0.008537
     4  C    0.016037
     5  C   -0.185355
     6  C   -0.187009
     7  C    0.151903
     8  C    0.190340
     9  C    0.104768
    10  C    0.037100
    11  C   -0.224762
    12  C   -0.210544
    13  C    0.065356
    14  C    0.059855
    15  C   -0.307932
    16  C   -0.322655
    17  C   -0.306786
    18  C   -0.312725
    19  C   -0.134683
    20  C   -0.129515
    21  C   -0.365385
    22  C   -0.375381
    23  C   -0.124088
    24  C   -0.114186
    25  C    0.080210
    26  C    0.171772
    27  C   -0.364098
    28  C   -0.369826
    29  C   -0.119853
    30  C   -0.156386
    31  C   -0.079286
    32  C   -0.110482
    33  C   -0.083832
    34  C   -0.102877
    35  C    0.083842
    36  C    0.147817
    37  C   -0.347836
    38  C   -0.394575
    39  C   -0.090195
    40  C   -0.143945
    41  C   -0.094186
    42  C   -0.086679
    43  H    0.128363
    44  H    0.081193
    45  H    0.074153
    46  H    0.110470
    47  H    0.078983
    48  H    0.038282
    49  H    0.100676
    50  H    0.108774
    51  H    0.112726
    52  H    0.107932
    53  H    0.085070
    54  H    0.110252
    55  H    0.090102
    56  H    0.074735
    57  H    0.116733
    58  H    0.110080
    59  H    0.107677
    60  H    0.124271
    61  H    0.081063
    62  H    0.095912
    63  H    0.079210
    64  H    0.118379
    65  H    0.101753
    66  H    0.083933
    67  H    0.128818
    68  H    0.116507
    69  H    0.097653
    70  H    0.075741
    71  H    0.104311
    72  H    0.127125
    73  H    0.302665
    74  H    0.303530
    75  H    0.094161
    76  H    0.082284
    77  H    0.101389
    78  H    0.089112
    79  H    0.114545
    80  H    0.132472
    81  H    0.106584
    82  H    0.105853
    83  H    0.084288
    84  H    0.086679
    85  H    0.092550
    86  H    0.082593
    87  H    0.068843
    88  H    0.066349
    89  H    0.114741
    90  H    0.113600
    91  H    0.135994
    92  H    0.120751
    93  H    0.131661
    94  H    0.081337
    95  H    0.055738
    96  H    0.088887
    97  H    0.076718
    98  H    0.082151
 Sum of Mulliken charges =  -0.00000

 Dipole moment (field-independent basis, Debye):
    X=             -0.7080    Y=             -2.1233    Z=              1.3700  Tot=              2.6242
 Quadrupole moment (field-independent basis, Debye-Ang):
   XX=           -269.4353   YY=           -243.7214   ZZ=           -264.6871
   XY=             11.1351   XZ=             -4.8658   YZ=             -0.1936

 Normal termination of Gaussian 16 at Sun Jul 14 01:44:02 2019.
