 Gaussian 16, Revision A.03,
 Gaussian 16:  ES64L-G16RevA.03 25-Dec-2016

 -------------------------------------
 # td=(NStates=1) CAM-B3LYP/6-31G(d,p)
 -------------------------------------

 --
 TD
 --
 Symbolic Z-matrix:
 Charge =  0 Multiplicity = 1

                         Standard orientation:
 ---------------------------------------------------------------------
 Center     Atomic      Atomic             Coordinates (Angstroms)
 Number     Number       Type             X           Y           Z
 ---------------------------------------------------------------------
      1          8           0       14.652974   -2.198238   -0.056519
      2          8           0      -14.728696    1.874287    1.012060
      3          6           0       11.133634   -1.602613    0.847525
      4          6           0      -12.365001   -1.060868    0.709610
      5          6           0       12.633848   -1.983534    0.986462
      6          6           0      -13.659684   -0.332462    0.695663
      7          6           0       13.273860   -1.893898   -0.360066
      8          6           0      -13.535632    1.113191    0.923013
      9          6           0       10.906451   -0.380017    0.086870
     10          6           0      -11.286271   -0.323643   -0.172451
     11          6           0       13.238195   -0.575188   -0.924635
     12          6           0      -12.769222    1.694946   -0.223875
     13          6           0       11.903371    0.135643   -0.753550
     14          6           0      -11.489933    0.937995   -0.691323
     15          6           0       10.689787   -1.235511    2.354896
     16          6           0       10.351044   -2.703145    0.282420
     17          6           0      -11.775576   -1.173687    2.121970
     18          6           0      -12.515423   -2.484122    0.171178
     19          6           0        9.608620    0.311657    0.116692
     20          6           0      -10.014295   -1.031294   -0.486029
     21          6           0       11.703846    1.177140   -1.799313
     22          6           0      -10.591403    1.733067   -1.552426
     23          6           0        9.306989    1.578362    0.129741
     24          6           0       -8.850608   -0.456988   -0.482057
     25          6           0        8.096693    2.158061    0.210273
     26          6           0       -7.533946   -1.241586   -0.728913
     27          6           0        8.068613    3.694228    0.711169
     28          6           0       -7.635941   -2.666372   -1.011665
     29          6           0        6.830152    1.658545    0.018317
     30          6           0       -6.434049   -0.603924   -0.553918
     31          6           0        5.583961    2.141302    0.169618
     32          6           0       -5.124837   -1.031890   -0.676700
     33          6           0        4.456581    1.420149   -0.100994
     34          6           0       -4.011988   -0.272902   -0.327968
     35          6           0        3.104904    1.810772    0.112704
     36          6           0       -2.582117   -0.579370   -0.408401
     37          6           0        2.863404    3.287449    0.380760
     38          6           0       -2.164822   -1.956519   -1.071961
     39          6           0        2.107056    0.867981   -0.073258
     40          6           0       -1.514466    0.239700   -0.069887
     41          6           0        0.755203    1.166810    0.048441
     42          6           0       -0.188846    0.032038   -0.196189
     43          1           0       12.980247   -1.043086    1.722324
     44          1           0       12.628583   -3.023801    1.363750
     45          1           0      -14.312645   -0.816709    1.515581
     46          1           0      -14.195032   -0.468264   -0.226810
     47          1           0       12.782066   -2.601505   -0.990476
     48          1           0      -12.879434    1.225203    1.847079
     49          1           0       14.134499   -0.054873   -0.340262
     50          1           0       13.543706   -0.618723   -2.081468
     51          1           0      -13.471482    1.615703   -1.275479
     52          1           0      -12.457104    2.764667   -0.074877
     53          1           0       10.826317   -2.037969    2.822187
     54          1           0        9.707518   -0.907282    2.385334
     55          1           0       11.365073   -0.445682    2.629165
     56          1           0       10.561838   -3.088920   -0.697709
     57          1           0       10.321191   -3.650979    0.868213
     58          1           0        9.175737   -2.655874    0.409674
     59          1           0      -11.584418   -0.251044    2.643176
     60          1           0      -10.991718   -1.728286    1.961742
     61          1           0      -12.559350   -1.708620    2.581146
     62          1           0      -13.297667   -2.974402    0.534411
     63          1           0      -11.484170   -3.097218    0.362537
     64          1           0      -12.678077   -2.422174   -0.821297
     65          1           0        8.767587   -0.420011    0.279122
     66          1           0      -10.291034   -2.175246   -0.823076
     67          1           0       10.652553    1.470569   -2.037652
     68          1           0       11.991436    2.217765   -1.624103
     69          1           0       12.182735    1.014199   -2.870149
     70          1           0      -11.078140    2.321362   -2.225002
     71          1           0      -10.090393    0.910582   -2.127381
     72          1           0       -9.918097    2.407001   -1.004584
     73          1           0       14.680408   -2.935931    0.463038
     74          1           0      -15.267099    1.431265    1.795702
     75          1           0       10.241952    2.229165    0.065636
     76          1           0       -8.573866    0.753786   -0.286633
     77          1           0        9.112696    4.247037    0.507247
     78          1           0        7.331525    4.078359   -0.018488
     79          1           0        7.489876    3.839098    1.499306
     80          1           0       -8.081325   -3.252190   -0.242609
     81          1           0       -8.330207   -3.037597   -1.762487
     82          1           0       -6.563243   -3.059768   -1.167051
     83          1           0        6.954223    0.598923   -0.345000
     84          1           0       -6.343502    0.450139   -0.093950
     85          1           0        5.514166    3.301545    0.287792
     86          1           0       -4.928849   -2.185581   -1.063843
     87          1           0        4.618236    0.307635   -0.255449
     88          1           0       -4.202161    0.601147    0.115136
     89          1           0        2.603951    3.456001    1.631076
     90          1           0        1.646303    3.720079   -0.323378
     91          1           0        3.841499    3.809678   -0.033064
     92          1           0       -2.289224   -2.798306   -0.208741
     93          1           0       -2.625796   -2.319606   -1.865592
     94          1           0       -1.060674   -2.066063   -1.384602
     95          1           0        2.454829   -0.007011   -0.331275
     96          1           0       -1.881079    1.192731    0.254696
     97          1           0        0.312432    1.929856    0.464815
     98          1           0        0.185475   -0.866185   -0.522171
 ---------------------------------------------------------------------

 SCF Done:  E(RCAM-B3LYP) =  -1706.85170243     A.U. after   15 cycles

 Excitation energies and oscillator strengths:

 Excited State   1:      Singlet-A      2.0201 eV  613.74 nm  f=3.5308  <S**2>=0.000
     155 ->158         0.12864
     156 ->157         0.69933
     156 <-157        -0.10648
 This state for optimization and/or second-order correction.
 Total Energy, E(TD-HF/TD-DFT) =  -1706.77746367
 Copying the excited state density for this state as the 1-particle RhoCI density.

 The electronic state is 1-A.
 Alpha  occ. eigenvalues --  -19.22259 -19.19789 -10.30810 -10.30253 -10.29357
 Alpha  occ. eigenvalues --  -10.28478 -10.27830 -10.27602 -10.27373 -10.27321
 Alpha  occ. eigenvalues --  -10.27096 -10.27054 -10.26912 -10.26779 -10.26746
 Alpha  occ. eigenvalues --  -10.26681 -10.26549 -10.26506 -10.26413 -10.26385
 Alpha  occ. eigenvalues --  -10.26383 -10.26376 -10.26363 -10.26267 -10.26145
 Alpha  occ. eigenvalues --  -10.25867 -10.25782 -10.25687 -10.25610 -10.25605
 Alpha  occ. eigenvalues --  -10.25585 -10.25572 -10.25485 -10.25237 -10.25135
 Alpha  occ. eigenvalues --  -10.25122 -10.25096 -10.25013 -10.24354 -10.24149
 Alpha  occ. eigenvalues --  -10.22656 -10.22457  -1.10011  -1.08699  -0.94784
 Alpha  occ. eigenvalues --   -0.94082  -0.92587  -0.92397  -0.91349  -0.90184
 Alpha  occ. eigenvalues --   -0.88097  -0.87470  -0.87170  -0.86308  -0.85126
 Alpha  occ. eigenvalues --   -0.83934  -0.82300  -0.81094  -0.80092  -0.78116
 Alpha  occ. eigenvalues --   -0.78080  -0.78020  -0.76905  -0.76601  -0.76215
 Alpha  occ. eigenvalues --   -0.75604  -0.75272  -0.74211  -0.73705  -0.71487
 Alpha  occ. eigenvalues --   -0.69701  -0.67419  -0.66254  -0.65287  -0.64682
 Alpha  occ. eigenvalues --   -0.64063  -0.63934  -0.61838  -0.60642  -0.60072
 Alpha  occ. eigenvalues --   -0.59652  -0.58500  -0.58165  -0.58024  -0.56879
 Alpha  occ. eigenvalues --   -0.56419  -0.55897  -0.55240  -0.54716  -0.54448
 Alpha  occ. eigenvalues --   -0.53387  -0.53117  -0.52293  -0.52171  -0.51960
 Alpha  occ. eigenvalues --   -0.50924  -0.50502  -0.50002  -0.49664  -0.49486
 Alpha  occ. eigenvalues --   -0.49200  -0.48824  -0.48544  -0.47938  -0.47821
 Alpha  occ. eigenvalues --   -0.47407  -0.47301  -0.47117  -0.47029  -0.46778
 Alpha  occ. eigenvalues --   -0.46571  -0.46292  -0.45942  -0.45472  -0.45153
 Alpha  occ. eigenvalues --   -0.45051  -0.44479  -0.44066  -0.43939  -0.43655
 Alpha  occ. eigenvalues --   -0.43461  -0.43235  -0.42898  -0.42156  -0.42031
 Alpha  occ. eigenvalues --   -0.41629  -0.41202  -0.40879  -0.40759  -0.40661
 Alpha  occ. eigenvalues --   -0.40181  -0.39931  -0.39864  -0.39646  -0.39452
 Alpha  occ. eigenvalues --   -0.38853  -0.38781  -0.38698  -0.38272  -0.38163
 Alpha  occ. eigenvalues --   -0.37518  -0.37092  -0.36978  -0.36826  -0.36024
 Alpha  occ. eigenvalues --   -0.35026  -0.34644  -0.34402  -0.33096  -0.32560
 Alpha  occ. eigenvalues --   -0.31487  -0.29728  -0.28146  -0.26159  -0.23990
 Alpha  occ. eigenvalues --   -0.18919
 Alpha virt. eigenvalues --   -0.06643  -0.00895   0.02548   0.05834   0.07186
 Alpha virt. eigenvalues --    0.09453   0.10216   0.10452   0.11053   0.11428
 Alpha virt. eigenvalues --    0.11564   0.12351   0.12868   0.13180   0.13252

 Mulliken charges:
               1
     1  O   -0.556871
     2  O   -0.557396
     3  C   -0.070678
     4  C   -0.038485
     5  C   -0.188869
     6  C   -0.182327
     7  C    0.189645
     8  C    0.187989
     9  C    0.097356
    10  C    0.050201
    11  C   -0.226706
    12  C   -0.205946
    13  C    0.061962
    14  C    0.042723
    15  C   -0.283000
    16  C   -0.320509
    17  C   -0.265775
    18  C   -0.303063
    19  C   -0.113953
    20  C   -0.159069
    21  C   -0.392483
    22  C   -0.363456
    23  C   -0.099721
    24  C   -0.078355
    25  C    0.085348
    26  C    0.130203
    27  C   -0.373556
    28  C   -0.384400
    29  C   -0.111119
    30  C   -0.112823
    31  C   -0.080055
    32  C   -0.070816
    33  C   -0.125826
    34  C   -0.125561
    35  C    0.115842
    36  C    0.095324
    37  C   -0.313908
    38  C   -0.367170
    39  C   -0.079629
    40  C   -0.117806
    41  C   -0.074232
    42  C   -0.068467
    43  H    0.087449
    44  H    0.090929
    45  H    0.060626
    46  H    0.101634
    47  H    0.089201
    48  H    0.067213
    49  H    0.119839
    50  H    0.095812
    51  H    0.075408
    52  H    0.103535
    53  H    0.102761
    54  H    0.108843
    55  H    0.104932
    56  H    0.118509
    57  H    0.093281
    58  H    0.089538
    59  H    0.105321
    60  H    0.111131
    61  H    0.093293
    62  H    0.108163
    63  H    0.079217
    64  H    0.119409
    65  H    0.077334
    66  H    0.084827
    67  H    0.118728
    68  H    0.117927
    69  H    0.095544
    70  H    0.114615
    71  H    0.123140
    72  H    0.116448
    73  H    0.290775
    74  H    0.303763
    75  H    0.085851
    76  H    0.089053
    77  H    0.096340
    78  H    0.112070
    79  H    0.136929
    80  H    0.130376
    81  H    0.119754
    82  H    0.098185
    83  H    0.063656
    84  H    0.077523
    85  H    0.071844
    86  H    0.071315
    87  H    0.080140
    88  H    0.070145
    89  H    0.100399
    90  H    0.044963
    91  H    0.111738
    92  H    0.091770
    93  H    0.128657
    94  H    0.095011
    95  H    0.068895
    96  H    0.072942
    97  H    0.085262
    98  H    0.083474
 Sum of Mulliken charges =  -0.00000

 Dipole moment (field-independent basis, Debye):
    X=             -2.0585    Y=             -3.0413    Z=              1.3232  Tot=              3.9036
 Quadrupole moment (field-independent basis, Debye-Ang):
   XX=           -280.4175   YY=           -245.8468   ZZ=           -261.6288
   XY=             10.7608   XZ=             -6.0153   YZ=              1.3603

 Normal termination of Gaussian 16 at Sun Jul 14 08:22:41 2019.
