 Gaussian 16, Revision A.03,
 Gaussian 16:  ES64L-G16RevA.03 25-Dec-2016

 -------------------------------------
 # td=(NStates=1) CAM-B3LYP/6-31G(d,p)
 -------------------------------------

 --
 TD
 --
 Symbolic Z-matrix:
 Charge =  0 Multiplicity = 1

                         Standard orientation:
 ---------------------------------------------------------------------
 Center     Atomic      Atomic             Coordinates (Angstroms)
 Number     Number       Type             X           Y           Z
 ---------------------------------------------------------------------
      1          8           0       14.865727   -2.042618   -0.192077
      2          8           0      -14.907190    1.882139    1.104009
      3          6           0       11.276915   -1.395174    0.982759
      4          6           0      -12.325301   -1.071322    0.687265
      5          6           0       12.728404   -1.717227    1.178949
      6          6           0      -13.669013   -0.381926    0.742125
      7          6           0       13.478982   -1.803710   -0.337704
      8          6           0      -13.578996    1.207348    0.996221
      9          6           0       11.093674   -0.319987    0.106466
     10          6           0      -11.190296   -0.209392   -0.045060
     11          6           0       13.301838   -0.434635   -0.980948
     12          6           0      -12.800496    1.770000   -0.100845
     13          6           0       11.923732    0.157340   -0.902207
     14          6           0      -11.513965    1.106729   -0.404415
     15          6           0       10.714992   -1.020497    2.446113
     16          6           0       10.566390   -2.786646    0.529932
     17          6           0      -11.770011   -1.317255    2.083707
     18          6           0      -12.577491   -2.428320   -0.000333
     19          6           0        9.705971    0.293043    0.189998
     20          6           0      -10.064329   -0.904524   -0.374054
     21          6           0       11.622495    1.252999   -1.849537
     22          6           0      -10.632711    1.915003   -1.413670
     23          6           0        9.375859    1.654169    0.170246
     24          6           0       -8.752119   -0.412085   -0.398567
     25          6           0        8.036461    2.334213    0.235326
     26          6           0       -7.575790   -1.123570   -0.698053
     27          6           0        7.943313    3.747484    0.382201
     28          6           0       -7.684884   -2.518158   -1.240399
     29          6           0        6.849954    1.508210    0.252351
     30          6           0       -6.423367   -0.513480   -0.475672
     31          6           0        5.535161    1.974598    0.127344
     32          6           0       -5.090076   -1.123540   -0.688574
     33          6           0        4.507874    1.129622   -0.125372
     34          6           0       -4.037632   -0.340934   -0.553082
     35          6           0        3.077541    1.586591    0.025969
     36          6           0       -2.652072   -0.792639   -0.691545
     37          6           0        2.792326    3.032075    0.484418
     38          6           0       -2.416527   -2.197980   -1.052987
     39          6           0        2.043014    0.585777   -0.046889
     40          6           0       -1.595249    0.118034   -0.360933
     41          6           0        0.683323    0.918106   -0.107245
     42          6           0       -0.223042   -0.159125   -0.395983
     43          1           0       13.249807   -1.021387    1.725563
     44          1           0       12.871544   -2.704031    1.576772
     45          1           0      -14.252885   -0.801603    1.477286
     46          1           0      -14.312428   -0.499226   -0.236997
     47          1           0       13.083098   -2.625232   -1.071157
     48          1           0      -12.927676    1.441997    1.910321
     49          1           0       14.058620    0.150739   -0.519882
     50          1           0       13.503898   -0.587115   -2.060348
     51          1           0      -13.377186    2.066381   -0.998873
     52          1           0      -12.670168    2.900089    0.148865
     53          1           0       10.694632   -2.001389    3.075258
     54          1           0        9.727276   -0.719443    2.347577
     55          1           0       11.268651   -0.089363    2.841214
     56          1           0       10.747055   -3.291387   -0.420617
     57          1           0       10.629228   -3.551036    1.207256
     58          1           0        9.336273   -2.672325    0.373085
     59          1           0      -11.612497   -0.487726    2.721684
     60          1           0      -10.741143   -1.804117    2.000466
     61          1           0      -12.511939   -1.995653    2.615888
     62          1           0      -13.432956   -2.920649    0.568720
     63          1           0      -11.651402   -3.244960   -0.143679
     64          1           0      -12.901085   -2.319995   -0.997447
     65          1           0        8.689064   -0.397675    0.437761
     66          1           0      -10.372293   -1.805233   -0.649628
     67          1           0       10.619428    1.177617   -2.060710
     68          1           0       11.842416    2.176313   -1.459893
     69          1           0       12.334056    1.083211   -2.744140
     70          1           0      -11.372987    2.330310   -2.170829
     71          1           0       -9.763956    1.465684   -1.941615
     72          1           0      -10.237752    2.687009   -1.004723
     73          1           0       14.866831   -2.956201    0.443771
     74          1           0      -15.368996    0.918280    1.468084
     75          1           0       10.099387    2.332384    0.055124
     76          1           0       -8.659808    0.541734   -0.213385
     77          1           0        9.060433    3.977265    0.572617
     78          1           0        7.678610    4.297047   -0.575160
     79          1           0        7.372106    4.191671    1.260229
     80          1           0       -8.217443   -3.119771   -0.413842
     81          1           0       -8.228202   -2.449722   -2.115663
     82          1           0       -6.862619   -2.993364   -1.272576
     83          1           0        6.769019    0.352145    0.300614
     84          1           0       -6.488509    0.402207   -0.161952
     85          1           0        5.407047    3.072146    0.202012
     86          1           0       -4.919063   -2.069732   -0.991177
     87          1           0        4.689214   -0.002942    0.101974
     88          1           0       -4.190584    0.715246   -0.293326
     89          1           0        3.314045    3.186326    1.536935
     90          1           0        1.757553    3.404379    0.449386
     91          1           0        3.360424    3.847603   -0.095208
     92          1           0       -2.675852   -2.774212   -0.178377
     93          1           0       -2.972915   -2.457565   -2.066526
     94          1           0       -1.365574   -2.547271   -1.256338
     95          1           0        2.522838   -0.340120   -0.191392
     96          1           0       -1.851255    1.156816   -0.263938
     97          1           0        0.303176    1.883788    0.200733
     98          1           0        0.306014   -1.139400   -0.609141
 ---------------------------------------------------------------------

 SCF Done:  E(RCAM-B3LYP) =  -1706.94572075     A.U. after   15 cycles

 Excitation energies and oscillator strengths:

 Excited State   1:      Singlet-A      2.2191 eV  558.71 nm  f=3.5504  <S**2>=0.000
     155 ->158         0.16034
     156 ->157         0.68429
 This state for optimization and/or second-order correction.
 Total Energy, E(TD-HF/TD-DFT) =  -1706.86416991
 Copying the excited state density for this state as the 1-particle RhoCI density.

 The electronic state is 1-A.
 Alpha  occ. eigenvalues --  -19.22908 -19.22355 -10.31236 -10.31107 -10.28405
 Alpha  occ. eigenvalues --  -10.28167 -10.28064 -10.27900 -10.27766 -10.27396
 Alpha  occ. eigenvalues --  -10.27323 -10.27317 -10.27057 -10.27007 -10.26921
 Alpha  occ. eigenvalues --  -10.26913 -10.26740 -10.26642 -10.26567 -10.26451
 Alpha  occ. eigenvalues --  -10.26342 -10.26144 -10.26128 -10.25991 -10.25895
 Alpha  occ. eigenvalues --  -10.25872 -10.25789 -10.25697 -10.25441 -10.25422
 Alpha  occ. eigenvalues --  -10.25413 -10.25384 -10.24845 -10.24758 -10.24728
 Alpha  occ. eigenvalues --  -10.24592 -10.24524 -10.24238 -10.24145 -10.24133
 Alpha  occ. eigenvalues --  -10.24111 -10.23523  -1.07704  -1.05867  -0.93839
 Alpha  occ. eigenvalues --   -0.93784  -0.92174  -0.91133  -0.90507  -0.89236
 Alpha  occ. eigenvalues --   -0.87365  -0.87275  -0.86988  -0.85846  -0.84148
 Alpha  occ. eigenvalues --   -0.83103  -0.81714  -0.79941  -0.79522  -0.78464
 Alpha  occ. eigenvalues --   -0.77852  -0.76829  -0.76577  -0.76032  -0.75811
 Alpha  occ. eigenvalues --   -0.75299  -0.75236  -0.74946  -0.72742  -0.70110
 Alpha  occ. eigenvalues --   -0.68422  -0.67256  -0.65727  -0.64910  -0.64105
 Alpha  occ. eigenvalues --   -0.63827  -0.63070  -0.62308  -0.61799  -0.60257
 Alpha  occ. eigenvalues --   -0.59891  -0.57943  -0.57791  -0.56986  -0.55763
 Alpha  occ. eigenvalues --   -0.55236  -0.54914  -0.54346  -0.53950  -0.53600
 Alpha  occ. eigenvalues --   -0.52585  -0.52046  -0.51622  -0.51533  -0.51412
 Alpha  occ. eigenvalues --   -0.50945  -0.50367  -0.49929  -0.49609  -0.49564
 Alpha  occ. eigenvalues --   -0.49273  -0.48939  -0.48860  -0.48399  -0.48117
 Alpha  occ. eigenvalues --   -0.47527  -0.47374  -0.47157  -0.46900  -0.46348
 Alpha  occ. eigenvalues --   -0.46189  -0.46068  -0.45630  -0.45211  -0.44915
 Alpha  occ. eigenvalues --   -0.44794  -0.44611  -0.44215  -0.43955  -0.43605
 Alpha  occ. eigenvalues --   -0.42896  -0.42630  -0.42438  -0.42342  -0.42135
 Alpha  occ. eigenvalues --   -0.41975  -0.41771  -0.41404  -0.41245  -0.41138
 Alpha  occ. eigenvalues --   -0.40705  -0.40544  -0.40494  -0.40117  -0.40055
 Alpha  occ. eigenvalues --   -0.39837  -0.39292  -0.39177  -0.38919  -0.38576
 Alpha  occ. eigenvalues --   -0.38200  -0.37468  -0.37073  -0.36805  -0.35701
 Alpha  occ. eigenvalues --   -0.34957  -0.34598  -0.34060  -0.32526  -0.32057
 Alpha  occ. eigenvalues --   -0.30623  -0.29666  -0.28059  -0.24870  -0.22680
 Alpha  occ. eigenvalues --   -0.19041
 Alpha virt. eigenvalues --   -0.05228  -0.01104   0.01644   0.05344   0.07501
 Alpha virt. eigenvalues --    0.09136   0.09298   0.09942   0.10979   0.11890
 Alpha virt. eigenvalues --    0.12440   0.12802   0.13170   0.13611   0.13724

 Mulliken charges:
               1
     1  O   -0.557485
     2  O   -0.559076
     3  C   -0.024537
     4  C   -0.014338
     5  C   -0.191154
     6  C   -0.228499
     7  C    0.150669
     8  C    0.157513
     9  C    0.102747
    10  C    0.043504
    11  C   -0.218336
    12  C   -0.234031
    13  C    0.038070
    14  C    0.048704
    15  C   -0.300387
    16  C   -0.315933
    17  C   -0.285612
    18  C   -0.309371
    19  C   -0.146169
    20  C   -0.099090
    21  C   -0.352812
    22  C   -0.361302
    23  C   -0.080430
    24  C   -0.101109
    25  C    0.079853
    26  C    0.114364
    27  C   -0.388107
    28  C   -0.337367
    29  C   -0.114897
    30  C   -0.114516
    31  C   -0.048176
    32  C   -0.079012
    33  C   -0.150053
    34  C   -0.093068
    35  C    0.081078
    36  C    0.088261
    37  C   -0.370405
    38  C   -0.383187
    39  C   -0.111176
    40  C   -0.134084
    41  C   -0.084353
    42  C   -0.078795
    43  H    0.110465
    44  H    0.075499
    45  H    0.090834
    46  H    0.097155
    47  H    0.069249
    48  H    0.089333
    49  H    0.129370
    50  H    0.100390
    51  H    0.120222
    52  H    0.098500
    53  H    0.088313
    54  H    0.120671
    55  H    0.100059
    56  H    0.112645
    57  H    0.114779
    58  H    0.063544
    59  H    0.113579
    60  H    0.106038
    61  H    0.080211
    62  H    0.096097
    63  H    0.083133
    64  H    0.121692
    65  H    0.076310
    66  H    0.071570
    67  H    0.139864
    68  H    0.133676
    69  H    0.091245
    70  H    0.095327
    71  H    0.112753
    72  H    0.130543
    73  H    0.304359
    74  H    0.307099
    75  H    0.063696
    76  H    0.066618
    77  H    0.100379
    78  H    0.126844
    79  H    0.129290
    80  H    0.099242
    81  H    0.128859
    82  H    0.107702
    83  H    0.071134
    84  H    0.059260
    85  H    0.083559
    86  H    0.080199
    87  H    0.085073
    88  H    0.076770
    89  H    0.114628
    90  H    0.112180
    91  H    0.107964
    92  H    0.134421
    93  H    0.109399
    94  H    0.107844
    95  H    0.082036
    96  H    0.084057
    97  H    0.095066
    98  H    0.091360
 Sum of Mulliken charges =  -0.00000

 Dipole moment (field-independent basis, Debye):
    X=              0.6236    Y=             -1.9560    Z=              0.7385  Tot=              2.1818
 Quadrupole moment (field-independent basis, Debye-Ang):
   XX=           -290.4993   YY=           -240.6478   ZZ=           -264.3242
   XY=             22.5562   XZ=             11.6048   YZ=             -1.6312

 Normal termination of Gaussian 16 at Wed Jul 17 16:58:12 2019.
