 Gaussian 16, Revision A.03,
 Gaussian 16:  ES64L-G16RevA.03 25-Dec-2016

 -------------------------------------
 # td=(NStates=1) CAM-B3LYP/6-31G(d,p)
 -------------------------------------

 --
 TD
 --
 Symbolic Z-matrix:
 Charge =  0 Multiplicity = 1

                         Standard orientation:
 ---------------------------------------------------------------------
 Center     Atomic      Atomic             Coordinates (Angstroms)
 Number     Number       Type             X           Y           Z
 ---------------------------------------------------------------------
      1          8           0       14.605776   -2.591836   -0.402690
      2          8           0      -14.915977    1.670123    1.053204
      3          6           0       11.131435   -1.580072    0.900254
      4          6           0      -12.369643   -1.138717    0.647176
      5          6           0       12.640319   -2.076659    1.037481
      6          6           0      -13.686154   -0.442089    0.621336
      7          6           0       13.262343   -2.060299   -0.349486
      8          6           0      -13.616911    1.018199    0.886553
      9          6           0       10.955037   -0.306883    0.011494
     10          6           0      -11.299231   -0.334765   -0.108578
     11          6           0       13.255785   -0.573048   -0.947649
     12          6           0      -12.853049    1.741632   -0.214880
     13          6           0       11.881451    0.117411   -0.945246
     14          6           0      -11.477804    0.994245   -0.523694
     15          6           0       10.648053   -1.178935    2.408352
     16          6           0       10.301977   -2.746415    0.439051
     17          6           0      -11.903213   -1.374039    2.135274
     18          6           0      -12.591120   -2.562019   -0.108032
     19          6           0        9.618471    0.373041    0.180316
     20          6           0      -10.002306   -0.977474   -0.306692
     21          6           0       11.698624    1.312142   -1.841999
     22          6           0      -10.664819    1.722663   -1.495930
     23          6           0        9.429632    1.690397    0.071716
     24          6           0       -8.815664   -0.312247   -0.317643
     25          6           0        8.150758    2.358194    0.321940
     26          6           0       -7.601758   -1.065116   -0.618358
     27          6           0        8.014646    3.775506    0.640528
     28          6           0       -7.549255   -2.524812   -1.095006
     29          6           0        7.032584    1.582980    0.076841
     30          6           0       -6.292699   -0.493315   -0.534764
     31          6           0        5.702471    2.061903    0.159982
     32          6           0       -5.034570   -0.873537   -0.744647
     33          6           0        4.508856    1.399597    0.066390
     34          6           0       -3.894859   -0.151781   -0.513428
     35          6           0        3.159553    1.771487    0.110330
     36          6           0       -2.591530   -0.615426   -0.593308
     37          6           0        2.989171    3.248551    0.512969
     38          6           0       -2.248144   -1.973132   -0.956623
     39          6           0        2.092930    0.804548   -0.066118
     40          6           0       -1.667263    0.353218   -0.242685
     41          6           0        0.803732    1.178841   -0.049087
     42          6           0       -0.171719    0.179677   -0.288579
     43          1           0       13.103837   -1.549004    1.809895
     44          1           0       12.367037   -3.042191    1.745833
     45          1           0      -14.267142   -0.952369    1.563424
     46          1           0      -14.199877   -0.680221   -0.363628
     47          1           0       12.685816   -2.706429   -1.028711
     48          1           0      -12.970268    1.103881    1.785632
     49          1           0       14.025510    0.085551   -0.225169
     50          1           0       13.731057   -0.683711   -1.874835
     51          1           0      -13.198618    1.816552   -1.230375
     52          1           0      -12.521946    2.786690    0.178517
     53          1           0       10.707192   -2.128393    3.169334
     54          1           0        9.454895   -1.073008    2.428183
     55          1           0       11.214095   -0.322779    2.752202
     56          1           0       10.720091   -3.085075   -0.415807
     57          1           0       10.486618   -3.432874    1.160865
     58          1           0        9.222133   -2.465185    0.407044
     59          1           0      -11.530985   -0.524451    2.664992
     60          1           0      -10.898396   -2.030007    1.991203
     61          1           0      -12.571639   -1.994464    2.491844
     62          1           0      -13.363247   -3.196369    0.181866
     63          1           0      -11.534547   -3.136102   -0.048364
     64          1           0      -12.825982   -2.271449   -1.181414
     65          1           0        8.716071   -0.258384    0.561316
     66          1           0      -10.117869   -2.137151   -0.400889
     67          1           0       10.555478    1.545786   -1.828774
     68          1           0       12.287800    2.217568   -1.404207
     69          1           0       12.141734    1.135041   -2.882673
     70          1           0      -11.362185    2.439101   -2.210006
     71          1           0      -10.082822    1.203559   -2.196250
     72          1           0       -9.782848    2.221677   -0.931758
     73          1           0       14.684867   -3.396778    0.134382
     74          1           0      -15.304034    1.311115    1.797893
     75          1           0       10.144208    2.568082    0.021211
     76          1           0       -8.618399    0.631301    0.140493
     77          1           0        8.949226    4.114233    1.299908
     78          1           0        7.470563    4.260315   -0.247703
     79          1           0        7.340136    4.019112    1.369307
     80          1           0       -8.009167   -3.075249   -0.253673
     81          1           0       -8.409351   -2.814517   -1.914594
     82          1           0       -6.472297   -2.850387   -1.209939
     83          1           0        7.005568    0.610784   -0.359849
     84          1           0       -6.373971    0.500496   -0.331455
     85          1           0        5.618920    3.091930    0.533510
     86          1           0       -4.928951   -2.072580   -1.237679
     87          1           0        4.520975    0.254403   -0.261022
     88          1           0       -4.007006    0.947641   -0.150255
     89          1           0        3.719877    3.398632    1.395237
     90          1           0        1.924532    3.377390    0.803795
     91          1           0        3.230712    4.044930   -0.346153
     92          1           0       -2.646420   -2.604058    0.039774
     93          1           0       -2.704817   -2.252204   -1.956793
     94          1           0       -1.246465   -2.150074   -0.844649
     95          1           0        2.289410   -0.135667   -0.332584
     96          1           0       -2.182480    1.358264    0.078857
     97          1           0        0.361497    2.235130    0.251034
     98          1           0        0.256747   -0.825034   -0.485768
 ---------------------------------------------------------------------

 SCF Done:  E(RCAM-B3LYP) =  -1706.93405900     A.U. after   15 cycles

 Excitation energies and oscillator strengths:

 Excited State   1:      Singlet-A      2.0053 eV  618.27 nm  f=3.9074  <S**2>=0.000
     155 ->158        -0.15633
     156 ->157         0.69040
 This state for optimization and/or second-order correction.
 Total Energy, E(TD-HF/TD-DFT) =  -1706.86036447
 Copying the excited state density for this state as the 1-particle RhoCI density.

 The electronic state is 1-A.
 Alpha  occ. eigenvalues --  -19.20728 -19.20562 -10.31575 -10.30926 -10.28278
 Alpha  occ. eigenvalues --  -10.27977 -10.27896 -10.27726 -10.27693 -10.27662
 Alpha  occ. eigenvalues --  -10.27591 -10.27515 -10.27213 -10.27152 -10.27080
 Alpha  occ. eigenvalues --  -10.27024 -10.27006 -10.26999 -10.26884 -10.26868
 Alpha  occ. eigenvalues --  -10.26822 -10.26780 -10.26692 -10.26620 -10.26613
 Alpha  occ. eigenvalues --  -10.26549 -10.26519 -10.26495 -10.26477 -10.26440
 Alpha  occ. eigenvalues --  -10.26420 -10.26287 -10.26261 -10.26237 -10.26216
 Alpha  occ. eigenvalues --  -10.26170 -10.25904 -10.25670 -10.24857 -10.24819
 Alpha  occ. eigenvalues --  -10.24465 -10.23002  -1.09246  -1.07961  -0.93659
 Alpha  occ. eigenvalues --   -0.92696  -0.92621  -0.91626  -0.90747  -0.90032
 Alpha  occ. eigenvalues --   -0.87381  -0.86990  -0.86395  -0.85927  -0.84219
 Alpha  occ. eigenvalues --   -0.83194  -0.81589  -0.80237  -0.79859  -0.78237
 Alpha  occ. eigenvalues --   -0.76826  -0.76677  -0.76416  -0.75964  -0.75498
 Alpha  occ. eigenvalues --   -0.75156  -0.74956  -0.73966  -0.72854  -0.70391
 Alpha  occ. eigenvalues --   -0.68988  -0.67386  -0.66053  -0.65136  -0.64130
 Alpha  occ. eigenvalues --   -0.62985  -0.62492  -0.61585  -0.59396  -0.59246
 Alpha  occ. eigenvalues --   -0.58912  -0.58596  -0.57785  -0.57417  -0.55865
 Alpha  occ. eigenvalues --   -0.55831  -0.55583  -0.54477  -0.54329  -0.53928
 Alpha  occ. eigenvalues --   -0.53332  -0.52775  -0.51993  -0.51672  -0.51365
 Alpha  occ. eigenvalues --   -0.50775  -0.50400  -0.50099  -0.49764  -0.49345
 Alpha  occ. eigenvalues --   -0.48950  -0.48821  -0.48565  -0.48129  -0.47911
 Alpha  occ. eigenvalues --   -0.47586  -0.46896  -0.46768  -0.46370  -0.46267
 Alpha  occ. eigenvalues --   -0.46042  -0.45850  -0.45707  -0.45496  -0.45084
 Alpha  occ. eigenvalues --   -0.44577  -0.44077  -0.43965  -0.43347  -0.42933
 Alpha  occ. eigenvalues --   -0.42814  -0.42427  -0.42366  -0.41716  -0.41347
 Alpha  occ. eigenvalues --   -0.41177  -0.41116  -0.41000  -0.40943  -0.40659
 Alpha  occ. eigenvalues --   -0.40500  -0.40429  -0.40202  -0.39797  -0.39182
 Alpha  occ. eigenvalues --   -0.39079  -0.38658  -0.38501  -0.38127  -0.37782
 Alpha  occ. eigenvalues --   -0.36720  -0.36672  -0.36470  -0.36306  -0.36029
 Alpha  occ. eigenvalues --   -0.35292  -0.35089  -0.34548  -0.32877  -0.32544
 Alpha  occ. eigenvalues --   -0.31797  -0.29556  -0.27859  -0.25894  -0.22705
 Alpha  occ. eigenvalues --   -0.18634
 Alpha virt. eigenvalues --   -0.06234  -0.01644   0.02026   0.05013   0.07422
 Alpha virt. eigenvalues --    0.09523   0.10149   0.11057   0.11212   0.11927
 Alpha virt. eigenvalues --    0.12354   0.12525   0.12568   0.13015   0.13180

 Mulliken charges:
               1
     1  O   -0.582776
     2  O   -0.555603
     3  C   -0.052741
     4  C   -0.035566
     5  C   -0.195181
     6  C   -0.165128
     7  C    0.181866
     8  C    0.166633
     9  C    0.074702
    10  C    0.080377
    11  C   -0.211691
    12  C   -0.206206
    13  C    0.050879
    14  C    0.013055
    15  C   -0.302497
    16  C   -0.263556
    17  C   -0.283635
    18  C   -0.310906
    19  C   -0.126722
    20  C   -0.113305
    21  C   -0.356313
    22  C   -0.354640
    23  C   -0.093226
    24  C   -0.112406
    25  C    0.060231
    26  C    0.106121
    27  C   -0.393423
    28  C   -0.363697
    29  C   -0.086816
    30  C   -0.132369
    31  C   -0.104090
    32  C   -0.072720
    33  C   -0.115231
    34  C   -0.131977
    35  C    0.094331
    36  C    0.168548
    37  C   -0.362334
    38  C   -0.352468
    39  C   -0.099276
    40  C   -0.150808
    41  C   -0.050192
    42  C   -0.137051
    43  H    0.110672
    44  H    0.059771
    45  H    0.053240
    46  H    0.096295
    47  H    0.089479
    48  H    0.082507
    49  H    0.090692
    50  H    0.119972
    51  H    0.124346
    52  H    0.107346
    53  H    0.070804
    54  H    0.088072
    55  H    0.119335
    56  H    0.108458
    57  H    0.104943
    58  H    0.094468
    59  H    0.119622
    60  H    0.076172
    61  H    0.113454
    62  H    0.118025
    63  H    0.080704
    64  H    0.108449
    65  H    0.100204
    66  H    0.078358
    67  H    0.123820
    68  H    0.108059
    69  H    0.101558
    70  H    0.085080
    71  H    0.139358
    72  H    0.108556
    73  H    0.308027
    74  H    0.297014
    75  H    0.094001
    76  H    0.101715
    77  H    0.102404
    78  H    0.137902
    79  H    0.145351
    80  H    0.116092
    81  H    0.099085
    82  H    0.107054
    83  H    0.083530
    84  H    0.058564
    85  H    0.057763
    86  H    0.049500
    87  H    0.044587
    88  H    0.081488
    89  H    0.115926
    90  H    0.101895
    91  H    0.109199
    92  H    0.101040
    93  H    0.127000
    94  H    0.118870
    95  H    0.083617
    96  H    0.078911
    97  H    0.090521
    98  H    0.084931
 Sum of Mulliken charges =  -0.00000

 Dipole moment (field-independent basis, Debye):
    X=             -0.9607    Y=             -1.3184    Z=              2.0526  Tot=              2.6219
 Quadrupole moment (field-independent basis, Debye-Ang):
   XX=           -284.9247   YY=           -246.1852   ZZ=           -261.2561
   XY=             17.7619   XZ=              1.3249   YZ=              0.5980

 Normal termination of Gaussian 16 at Thu Jul 18 21:11:54 2019.
