 Gaussian 16, Revision A.03,
 Gaussian 16:  ES64L-G16RevA.03 25-Dec-2016

 -------------------------------------
 # td=(NStates=1) CAM-B3LYP/6-31G(d,p)
 -------------------------------------

 --
 TD
 --
 Symbolic Z-matrix:
 Charge =  0 Multiplicity = 1

                         Standard orientation:
 ---------------------------------------------------------------------
 Center     Atomic      Atomic             Coordinates (Angstroms)
 Number     Number       Type             X           Y           Z
 ---------------------------------------------------------------------
      1          8           0       14.650835   -2.470005   -0.140605
      2          8           0      -14.734817    1.784880    1.398080
      3          6           0       11.230397   -1.410035    1.136440
      4          6           0      -12.390152   -1.094525    0.690457
      5          6           0       12.658860   -1.808763    1.194701
      6          6           0      -13.732856   -0.286038    0.837467
      7          6           0       13.330935   -1.973110   -0.224014
      8          6           0      -13.537471    1.131436    1.116759
      9          6           0       11.001844   -0.301940    0.094319
     10          6           0      -11.309839   -0.247593   -0.171298
     11          6           0       13.325147   -0.573036   -0.806375
     12          6           0      -12.806704    1.707598   -0.024481
     13          6           0       11.912220    0.129813   -0.757213
     14          6           0      -11.627408    1.038203   -0.543939
     15          6           0       10.792399   -0.934334    2.553846
     16          6           0       10.379514   -2.609263    0.672635
     17          6           0      -11.694080   -1.284418    2.085258
     18          6           0      -12.586184   -2.488719    0.053247
     19          6           0        9.630609    0.356111    0.208497
     20          6           0      -10.048205   -0.975243   -0.461510
     21          6           0       11.763557    1.207164   -1.808501
     22          6           0      -10.614074    1.936977   -1.221454
     23          6           0        9.338683    1.654916   -0.018173
     24          6           0       -8.790485   -0.531209   -0.395775
     25          6           0        8.088252    2.284631    0.109848
     26          6           0       -7.589438   -1.149778   -0.841775
     27          6           0        8.028473    3.721476    0.535792
     28          6           0       -7.705397   -2.631774   -1.267842
     29          6           0        6.811446    1.637560    0.009475
     30          6           0       -6.428101   -0.512310   -0.523312
     31          6           0        5.578547    1.982989   -0.008721
     32          6           0       -5.098245   -0.942971   -0.750244
     33          6           0        4.453704    1.297799   -0.198072
     34          6           0       -3.947898   -0.310399   -0.547378
     35          6           0        3.154852    1.632244   -0.048073
     36          6           0       -2.629220   -0.695562   -0.727464
     37          6           0        2.808871    3.002517    0.450394
     38          6           0       -2.238783   -2.118329   -1.173138
     39          6           0        2.100909    0.688060   -0.240674
     40          6           0       -1.634650    0.203421   -0.549970
     41          6           0        0.676643    1.029114   -0.220044
     42          6           0       -0.238352    0.045154   -0.629802
     43          1           0       13.322644   -1.147965    1.661651
     44          1           0       12.995591   -2.499211    1.776241
     45          1           0      -14.418748   -0.736147    1.407677
     46          1           0      -14.385327   -0.256428   -0.015259
     47          1           0       12.740009   -2.844624   -0.853835
     48          1           0      -12.832881    1.298106    2.037868
     49          1           0       13.910114    0.244747   -0.149495
     50          1           0       13.718788   -0.534030   -1.696287
     51          1           0      -13.487283    1.668826   -0.892254
     52          1           0      -12.515861    2.703154    0.064968
     53          1           0       11.077529   -1.737571    3.306519
     54          1           0        9.637441   -0.878478    2.731970
     55          1           0       11.211784    0.095942    2.851980
     56          1           0       10.598926   -2.784052   -0.324099
     57          1           0       10.554826   -3.432230    1.591621
     58          1           0        9.321363   -2.170800    0.717791
     59          1           0      -11.693392   -0.193621    2.476843
     60          1           0      -10.653587   -1.579929    2.058795
     61          1           0      -12.245280   -1.925340    2.708720
     62          1           0      -13.369026   -3.048974    0.656859
     63          1           0      -11.794702   -3.254905    0.199844
     64          1           0      -13.015917   -2.319186   -1.103632
     65          1           0        8.894946   -0.311674    0.515501
     66          1           0      -10.311422   -1.954964   -1.024788
     67          1           0       10.609049    1.351165   -2.027661
     68          1           0       12.198317    2.257250   -1.398602
     69          1           0       12.246460    1.008558   -2.772808
     70          1           0      -11.079768    2.474253   -1.946718
     71          1           0      -10.038289    1.339761   -1.903512
     72          1           0       -9.862476    2.541892   -0.726983
     73          1           0       14.813331   -3.334256    0.314116
     74          1           0      -15.080073    1.363082    2.213961
     75          1           0       10.144944    2.162998   -0.036128
     76          1           0       -8.499656    0.442071    0.282308
     77          1           0        9.034593    4.265660    0.306860
     78          1           0        7.372245    4.223278   -0.337932
     79          1           0        7.606295    3.882331    1.497585
     80          1           0       -8.014899   -3.175205   -0.199177
     81          1           0       -8.698631   -2.553813   -1.829159
     82          1           0       -6.822226   -3.010550   -1.592204
     83          1           0        7.172760    0.592829   -0.141617
     84          1           0       -6.265958    0.367817    0.062511
     85          1           0        5.582013    3.089608    0.208789
     86          1           0       -4.961584   -2.118893   -1.249125
     87          1           0        4.656616    0.233733   -0.639285
     88          1           0       -3.937348    0.726483   -0.070708
     89          1           0        3.111576    3.217023    1.351245
     90          1           0        1.780326    3.300711    0.333614
     91          1           0        3.297038    3.554880   -0.359696
     92          1           0       -2.187390   -3.146615   -0.479053
     93          1           0       -2.911264   -2.447409   -2.010784
     94          1           0       -1.237399   -2.274396   -1.660275
     95          1           0        2.366317   -0.388214   -0.438079
     96          1           0       -1.839875    1.209984   -0.001159
     97          1           0        0.184971    2.079233    0.040234
     98          1           0        0.161380   -1.001907   -1.094899
 ---------------------------------------------------------------------

 SCF Done:  E(RCAM-B3LYP) =  -1706.90424077     A.U. after   15 cycles

 Excitation energies and oscillator strengths:

 Excited State   1:      Singlet-A      2.0557 eV  603.14 nm  f=3.6231  <S**2>=0.000
     155 ->158         0.14029
     156 ->157         0.69528
 This state for optimization and/or second-order correction.
 Total Energy, E(TD-HF/TD-DFT) =  -1706.82869675
 Copying the excited state density for this state as the 1-particle RhoCI density.

 The electronic state is 1-A.
 Alpha  occ. eigenvalues --  -19.21491 -19.21077 -10.32175 -10.30070 -10.28373
 Alpha  occ. eigenvalues --  -10.28170 -10.27708 -10.27592 -10.27465 -10.27416
 Alpha  occ. eigenvalues --  -10.27399 -10.27284 -10.27223 -10.27180 -10.27171
 Alpha  occ. eigenvalues --  -10.27117 -10.27077 -10.26741 -10.26632 -10.26614
 Alpha  occ. eigenvalues --  -10.26565 -10.26535 -10.26500 -10.26294 -10.26242
 Alpha  occ. eigenvalues --  -10.26104 -10.26104 -10.26081 -10.25999 -10.25830
 Alpha  occ. eigenvalues --  -10.25821 -10.25803 -10.25605 -10.25181 -10.24693
 Alpha  occ. eigenvalues --  -10.24618 -10.24108 -10.23742 -10.23644 -10.23583
 Alpha  occ. eigenvalues --  -10.23034 -10.22838  -1.10562  -1.08729  -0.94122
 Alpha  occ. eigenvalues --   -0.93062  -0.92885  -0.92211  -0.90905  -0.90518
 Alpha  occ. eigenvalues --   -0.87737  -0.86964  -0.86681  -0.86198  -0.84961
 Alpha  occ. eigenvalues --   -0.83725  -0.82709  -0.80408  -0.79902  -0.77844
 Alpha  occ. eigenvalues --   -0.77110  -0.76930  -0.76748  -0.76173  -0.75853
 Alpha  occ. eigenvalues --   -0.75378  -0.75132  -0.74952  -0.73350  -0.71011
 Alpha  occ. eigenvalues --   -0.69645  -0.68124  -0.66781  -0.66377  -0.64360
 Alpha  occ. eigenvalues --   -0.63937  -0.63202  -0.60939  -0.60164  -0.59183
 Alpha  occ. eigenvalues --   -0.58879  -0.58664  -0.58118  -0.57873  -0.56472
 Alpha  occ. eigenvalues --   -0.56174  -0.55841  -0.55274  -0.54626  -0.53991
 Alpha  occ. eigenvalues --   -0.53718  -0.52239  -0.52079  -0.51822  -0.51328
 Alpha  occ. eigenvalues --   -0.51073  -0.50972  -0.50163  -0.49745  -0.49139
 Alpha  occ. eigenvalues --   -0.48918  -0.48459  -0.48140  -0.47940  -0.47884
 Alpha  occ. eigenvalues --   -0.47311  -0.47194  -0.46739  -0.46638  -0.46322
 Alpha  occ. eigenvalues --   -0.45843  -0.45696  -0.45521  -0.45221  -0.45006
 Alpha  occ. eigenvalues --   -0.44383  -0.44187  -0.44114  -0.43954  -0.43601
 Alpha  occ. eigenvalues --   -0.43146  -0.42955  -0.42751  -0.42201  -0.41759
 Alpha  occ. eigenvalues --   -0.41733  -0.41455  -0.41250  -0.41086  -0.40698
 Alpha  occ. eigenvalues --   -0.40062  -0.39994  -0.39952  -0.39893  -0.39511
 Alpha  occ. eigenvalues --   -0.39106  -0.38416  -0.38202  -0.37858  -0.37663
 Alpha  occ. eigenvalues --   -0.37206  -0.36654  -0.36176  -0.35829  -0.35693
 Alpha  occ. eigenvalues --   -0.35641  -0.34236  -0.33749  -0.32354  -0.31937
 Alpha  occ. eigenvalues --   -0.31408  -0.29994  -0.28433  -0.26615  -0.23461
 Alpha  occ. eigenvalues --   -0.18984
 Alpha virt. eigenvalues --   -0.06395  -0.01471   0.02914   0.06163   0.07892
 Alpha virt. eigenvalues --    0.09960   0.10853   0.11429   0.11814   0.12169
 Alpha virt. eigenvalues --    0.12360   0.12473   0.12685   0.13178   0.13579

 Mulliken charges:
               1
     1  O   -0.583759
     2  O   -0.559822
     3  C   -0.006665
     4  C    0.002573
     5  C   -0.169309
     6  C   -0.185012
     7  C    0.186398
     8  C    0.178183
     9  C    0.060486
    10  C    0.030176
    11  C   -0.180925
    12  C   -0.211001
    13  C    0.020905
    14  C    0.041885
    15  C   -0.304090
    16  C   -0.269139
    17  C   -0.302436
    18  C   -0.307397
    19  C   -0.094820
    20  C   -0.168333
    21  C   -0.369071
    22  C   -0.373757
    23  C   -0.085915
    24  C   -0.055585
    25  C    0.060381
    26  C    0.076771
    27  C   -0.376407
    28  C   -0.327379
    29  C   -0.089250
    30  C   -0.104211
    31  C   -0.060749
    32  C   -0.096000
    33  C   -0.115971
    34  C   -0.110023
    35  C    0.096770
    36  C    0.154631
    37  C   -0.352817
    38  C   -0.378688
    39  C   -0.138236
    40  C   -0.145299
    41  C   -0.101257
    42  C   -0.068533
    43  H    0.098151
    44  H    0.065879
    45  H    0.079387
    46  H    0.101972
    47  H    0.052794
    48  H    0.054103
    49  H    0.103347
    50  H    0.105501
    51  H    0.110720
    52  H    0.114993
    53  H    0.093217
    54  H    0.090890
    55  H    0.107586
    56  H    0.121132
    57  H    0.078115
    58  H    0.090552
    59  H    0.088695
    60  H    0.116519
    61  H    0.098965
    62  H    0.087119
    63  H    0.110413
    64  H    0.083406
    65  H    0.086054
    66  H    0.090662
    67  H    0.119840
    68  H    0.099558
    69  H    0.115695
    70  H    0.108112
    71  H    0.119027
    72  H    0.122018
    73  H    0.312087
    74  H    0.311335
    75  H    0.078222
    76  H    0.078406
    77  H    0.096641
    78  H    0.104521
    79  H    0.142057
    80  H    0.104037
    81  H    0.119188
    82  H    0.119007
    83  H    0.046835
    84  H    0.082117
    85  H    0.066837
    86  H    0.044917
    87  H    0.072664
    88  H    0.073574
    89  H    0.134633
    90  H    0.103487
    91  H    0.119031
    92  H    0.098839
    93  H    0.112095
    94  H    0.110791
    95  H    0.091521
    96  H    0.071763
    97  H    0.096877
    98  H    0.076791
 Sum of Mulliken charges =  -0.00000

 Dipole moment (field-independent basis, Debye):
    X=              1.9893    Y=             -1.2979    Z=              1.8553  Tot=              3.0140
 Quadrupole moment (field-independent basis, Debye-Ang):
   XX=           -257.7590   YY=           -245.8980   ZZ=           -258.8297
   XY=             11.5710   XZ=             -2.6050   YZ=             -0.3890

 Normal termination of Gaussian 16 at Thu Jul 11 21:31:38 2019.
