 Gaussian 16, Revision A.03,
 Gaussian 16:  ES64L-G16RevA.03 25-Dec-2016

 -------------------------------------
 # td=(NStates=1) CAM-B3LYP/6-31G(d,p)
 -------------------------------------

 --
 TD
 --
 Symbolic Z-matrix:
 Charge =  0 Multiplicity = 1

                         Standard orientation:
 ---------------------------------------------------------------------
 Center     Atomic      Atomic             Coordinates (Angstroms)
 Number     Number       Type             X           Y           Z
 ---------------------------------------------------------------------
      1          8           0       14.483853   -2.495073   -0.348317
      2          8           0      -14.757821    1.797612    1.099451
      3          6           0       11.159146   -1.396869    1.034428
      4          6           0      -12.402320   -1.080739    0.430643
      5          6           0       12.623265   -1.925504    1.024057
      6          6           0      -13.797658   -0.341390    0.446842
      7          6           0       13.158334   -2.016012   -0.352616
      8          6           0      -13.517079    1.115550    0.923915
      9          6           0       10.914546   -0.259286    0.098137
     10          6           0      -11.249528   -0.230200   -0.166458
     11          6           0       13.278940   -0.629503   -0.887770
     12          6           0      -12.664006    1.909993   -0.076133
     13          6           0       11.963394    0.168079   -0.731881
     14          6           0      -11.358362    1.092701   -0.505022
     15          6           0       10.872277   -0.992078    2.410168
     16          6           0       10.294775   -2.542033    0.461716
     17          6           0      -12.045203   -1.597425    1.810275
     18          6           0      -12.606867   -2.374137   -0.358638
     19          6           0        9.603613    0.458924    0.198517
     20          6           0       -9.963976   -0.878261   -0.414294
     21          6           0       11.762114    1.091180   -1.851954
     22          6           0      -10.511356    1.836602   -1.411174
     23          6           0        9.395684    1.711334   -0.026847
     24          6           0       -8.714192   -0.432036   -0.225137
     25          6           0        7.971557    2.277311    0.099336
     26          6           0       -7.582318   -1.158142   -0.534954
     27          6           0        7.867418    3.821160    0.329466
     28          6           0       -7.740207   -2.496508   -1.140390
     29          6           0        6.894903    1.479008   -0.036736
     30          6           0       -6.281329   -0.626478   -0.349071
     31          6           0        5.609202    2.056650    0.071618
     32          6           0       -4.989355   -1.178182   -0.371697
     33          6           0        4.440768    1.231677   -0.105986
     34          6           0       -3.912100   -0.351352   -0.119983
     35          6           0        3.168696    1.791336    0.181331
     36          6           0       -2.561717   -0.713115   -0.346614
     37          6           0        2.941369    3.138955    0.481888
     38          6           0       -2.281679   -2.079493   -0.754250
     39          6           0        2.147465    0.808681   -0.154494
     40          6           0       -1.525779    0.260143   -0.056006
     41          6           0        0.768528    0.980838   -0.009410
     42          6           0       -0.213340    0.094969   -0.249105
     43          1           0       12.928580   -1.301940    1.945692
     44          1           0       12.698244   -2.989794    1.413420
     45          1           0      -14.237466   -0.823667    1.342891
     46          1           0      -14.234276   -0.268877   -0.472446
     47          1           0       12.381369   -2.834522   -0.699171
     48          1           0      -12.909239    1.134277    1.929744
     49          1           0       14.305277   -0.144121   -0.371059
     50          1           0       13.666508   -0.580716   -2.050605
     51          1           0      -13.161880    2.184251   -0.900538
     52          1           0      -12.294082    2.899885    0.248377
     53          1           0       11.076743   -1.718301    3.256966
     54          1           0        9.765518   -0.713135    2.679030
     55          1           0       11.472967   -0.243927    2.584271
     56          1           0       10.491784   -2.972239   -0.570177
     57          1           0       10.444957   -3.286082    1.073723
     58          1           0        9.273657   -2.373113    0.657885
     59          1           0      -11.985110   -0.633194    2.470384
     60          1           0      -10.958410   -2.007010    1.789396
     61          1           0      -12.678501   -2.610786    2.283259
     62          1           0      -13.463059   -3.006917   -0.074590
     63          1           0      -11.694034   -2.958037   -0.261256
     64          1           0      -12.889295   -2.179678   -1.467476
     65          1           0        8.905134   -0.264638    0.481598
     66          1           0       -9.819576   -1.954901   -0.839874
     67          1           0       10.798820    1.623097   -1.908856
     68          1           0       12.399020    2.047305   -1.821267
     69          1           0       12.138544    0.542103   -2.942726
     70          1           0      -11.010105    2.542572   -1.961163
     71          1           0       -9.800548    1.175577   -2.033250
     72          1           0       -9.972794    2.493329   -0.891171
     73          1           0       14.574907   -3.326521    0.079788
     74          1           0      -15.225861    1.255404    1.751937
     75          1           0       10.099310    2.463697   -0.083444
     76          1           0       -8.588679    0.593610    0.067665
     77          1           0        8.885379    4.338367    0.360735
     78          1           0        7.371036    4.132269   -0.615124
     79          1           0        7.371371    4.140125    1.389990
     80          1           0       -8.511603   -3.103989   -0.472585
     81          1           0       -8.172493   -2.525424   -2.162707
     82          1           0       -6.716166   -3.030760   -1.152091
     83          1           0        6.722654    0.479311   -0.678216
     84          1           0       -6.566367    0.358752    0.106955
     85          1           0        5.348057    3.094065    0.411615
     86          1           0       -4.925079   -2.242332   -0.595074
     87          1           0        4.536758    0.174038   -0.279240
     88          1           0       -4.043267    0.755867   -0.042523
     89          1           0        3.683324    3.631281    1.397027
     90          1           0        1.755008    3.289807    0.979212
     91          1           0        3.022362    3.627205   -0.531272
     92          1           0       -2.794189   -2.774700   -0.164229
     93          1           0       -2.670664   -2.361117   -1.820766
     94          1           0       -1.201443   -2.559755   -0.888993
     95          1           0        2.371650   -0.130339   -0.423757
     96          1           0       -1.922297    1.187257    0.446567
     97          1           0        0.408285    1.959440    0.395199
     98          1           0        0.235264   -0.780742   -0.971058
 ---------------------------------------------------------------------

 SCF Done:  E(RCAM-B3LYP) =  -1706.90611068     A.U. after   15 cycles

 Excitation energies and oscillator strengths:

 Excited State   1:      Singlet-A      1.9778 eV  626.88 nm  f=3.7940  <S**2>=0.000
     155 ->158        -0.13598
     156 ->157         0.69737
     156 <-157        -0.10431
 This state for optimization and/or second-order correction.
 Total Energy, E(TD-HF/TD-DFT) =  -1706.83342804
 Copying the excited state density for this state as the 1-particle RhoCI density.

 The electronic state is 1-A.
 Alpha  occ. eigenvalues --  -19.20830 -19.20576 -10.31059 -10.30989 -10.29467
 Alpha  occ. eigenvalues --  -10.28102 -10.27871 -10.27860 -10.27516 -10.27495
 Alpha  occ. eigenvalues --  -10.27486 -10.27099 -10.27029 -10.26867 -10.26824
 Alpha  occ. eigenvalues --  -10.26681 -10.26666 -10.26458 -10.26413 -10.26362
 Alpha  occ. eigenvalues --  -10.26317 -10.26291 -10.26266 -10.26221 -10.26180
 Alpha  occ. eigenvalues --  -10.26155 -10.26141 -10.26026 -10.25974 -10.25679
 Alpha  occ. eigenvalues --  -10.25627 -10.25600 -10.25501 -10.25361 -10.25340
 Alpha  occ. eigenvalues --  -10.24987 -10.24816 -10.24622 -10.24581 -10.24505
 Alpha  occ. eigenvalues --  -10.23616 -10.23368  -1.10107  -1.09084  -0.94641
 Alpha  occ. eigenvalues --   -0.93309  -0.92576  -0.91829  -0.90898  -0.90270
 Alpha  occ. eigenvalues --   -0.88111  -0.87580  -0.87018  -0.85893  -0.84694
 Alpha  occ. eigenvalues --   -0.82844  -0.82203  -0.80439  -0.79959  -0.79110
 Alpha  occ. eigenvalues --   -0.78907  -0.76860  -0.75966  -0.75758  -0.75591
 Alpha  occ. eigenvalues --   -0.75579  -0.74669  -0.74162  -0.73152  -0.70503
 Alpha  occ. eigenvalues --   -0.68558  -0.66865  -0.65699  -0.64602  -0.64246
 Alpha  occ. eigenvalues --   -0.63820  -0.62583  -0.60970  -0.60239  -0.59937
 Alpha  occ. eigenvalues --   -0.59420  -0.58731  -0.58291  -0.57888  -0.56262
 Alpha  occ. eigenvalues --   -0.55890  -0.55301  -0.54807  -0.54314  -0.54115
 Alpha  occ. eigenvalues --   -0.52991  -0.52387  -0.52221  -0.51654  -0.51201
 Alpha  occ. eigenvalues --   -0.50331  -0.50236  -0.50178  -0.49918  -0.49544
 Alpha  occ. eigenvalues --   -0.49484  -0.49006  -0.48759  -0.48236  -0.47651
 Alpha  occ. eigenvalues --   -0.47600  -0.47460  -0.47301  -0.47063  -0.46378
 Alpha  occ. eigenvalues --   -0.45585  -0.45551  -0.45358  -0.45139  -0.44880
 Alpha  occ. eigenvalues --   -0.44458  -0.44037  -0.43791  -0.43721  -0.43179
 Alpha  occ. eigenvalues --   -0.42939  -0.42796  -0.42558  -0.42414  -0.41931
 Alpha  occ. eigenvalues --   -0.41464  -0.41319  -0.41195  -0.41055  -0.40801
 Alpha  occ. eigenvalues --   -0.40350  -0.40310  -0.39677  -0.38996  -0.38837
 Alpha  occ. eigenvalues --   -0.38530  -0.38215  -0.38099  -0.37784  -0.37762
 Alpha  occ. eigenvalues --   -0.37230  -0.37050  -0.36593  -0.36494  -0.36168
 Alpha  occ. eigenvalues --   -0.35006  -0.34891  -0.34316  -0.32451  -0.31600
 Alpha  occ. eigenvalues --   -0.31333  -0.29570  -0.27821  -0.26008  -0.23236
 Alpha  occ. eigenvalues --   -0.18407
 Alpha virt. eigenvalues --   -0.06398  -0.00918   0.02215   0.05283   0.07692
 Alpha virt. eigenvalues --    0.09411   0.10873   0.11425   0.11722   0.11819
 Alpha virt. eigenvalues --    0.12159   0.12706   0.12746   0.13220   0.13369

 Mulliken charges:
               1
     1  O   -0.558005
     2  O   -0.559114
     3  C   -0.039610
     4  C   -0.018869
     5  C   -0.182007
     6  C   -0.173325
     7  C    0.204403
     8  C    0.151176
     9  C    0.069206
    10  C    0.075768
    11  C   -0.215015
    12  C   -0.222257
    13  C    0.057345
    14  C    0.038202
    15  C   -0.323388
    16  C   -0.314028
    17  C   -0.291864
    18  C   -0.293842
    19  C   -0.041725
    20  C   -0.165305
    21  C   -0.357858
    22  C   -0.367125
    23  C   -0.106915
    24  C   -0.068875
    25  C    0.039791
    26  C    0.108857
    27  C   -0.360328
    28  C   -0.385436
    29  C   -0.116989
    30  C   -0.118309
    31  C   -0.104428
    32  C   -0.096087
    33  C   -0.114267
    34  C   -0.118299
    35  C    0.142101
    36  C    0.130178
    37  C   -0.379514
    38  C   -0.393145
    39  C   -0.113315
    40  C   -0.134635
    41  C   -0.074273
    42  C   -0.070025
    43  H    0.084879
    44  H    0.064987
    45  H    0.094191
    46  H    0.114984
    47  H    0.075063
    48  H    0.065752
    49  H    0.108166
    50  H    0.085097
    51  H    0.124821
    52  H    0.104343
    53  H    0.094295
    54  H    0.092381
    55  H    0.131758
    56  H    0.112197
    57  H    0.108790
    58  H    0.097546
    59  H    0.089149
    60  H    0.105024
    61  H    0.074713
    62  H    0.100916
    63  H    0.100534
    64  H    0.081499
    65  H    0.089961
    66  H    0.070032
    67  H    0.111521
    68  H    0.098577
    69  H    0.079824
    70  H    0.113809
    71  H    0.121786
    72  H    0.127863
    73  H    0.295397
    74  H    0.303078
    75  H    0.093070
    76  H    0.076061
    77  H    0.104288
    78  H    0.136999
    79  H    0.111273
    80  H    0.102179
    81  H    0.130097
    82  H    0.091739
    83  H    0.097388
    84  H    0.067108
    85  H    0.087402
    86  H    0.096110
    87  H    0.087183
    88  H    0.093065
    89  H    0.100045
    90  H    0.090714
    91  H    0.148898
    92  H    0.133819
    93  H    0.104345
    94  H    0.101064
    95  H    0.070631
    96  H    0.084263
    97  H    0.061387
    98  H    0.069086
 Sum of Mulliken charges =  -0.00000

 Dipole moment (field-independent basis, Debye):
    X=              0.8390    Y=             -0.9783    Z=              1.0213  Tot=              1.6444
 Quadrupole moment (field-independent basis, Debye-Ang):
   XX=           -291.4332   YY=           -240.7951   ZZ=           -262.2931
   XY=              9.5166   XZ=              9.7091   YZ=             -0.5978

 Normal termination of Gaussian 16 at Tue Jul 16 08:28:34 2019.
