 Gaussian 16, Revision A.03,
 Gaussian 16:  ES64L-G16RevA.03 25-Dec-2016

 -------------------------------------
 # td=(NStates=1) CAM-B3LYP/6-31G(d,p)
 -------------------------------------

 --
 TD
 --
 Symbolic Z-matrix:
 Charge =  0 Multiplicity = 1

                         Standard orientation:
 ---------------------------------------------------------------------
 Center     Atomic      Atomic             Coordinates (Angstroms)
 Number     Number       Type             X           Y           Z
 ---------------------------------------------------------------------
      1          8           0       14.784723   -2.319375    0.020829
      2          8           0      -14.846746    1.826061    1.206103
      3          6           0       11.212009   -1.398429    1.002445
      4          6           0      -12.538035   -1.122842    0.542633
      5          6           0       12.716493   -1.970678    1.148749
      6          6           0      -13.763540   -0.277646    0.632091
      7          6           0       13.399433   -1.922625   -0.178112
      8          6           0      -13.566973    1.161989    1.112124
      9          6           0       11.049177   -0.298881    0.013353
     10          6           0      -11.370206   -0.354213   -0.163936
     11          6           0       13.388792   -0.487763   -0.876382
     12          6           0      -12.718384    1.851425    0.095117
     13          6           0       11.967607    0.112412   -0.871780
     14          6           0      -11.529960    1.063918   -0.399386
     15          6           0       10.668859   -1.020417    2.377378
     16          6           0       10.325631   -2.581246    0.511809
     17          6           0      -12.010782   -1.661444    1.851988
     18          6           0      -12.678236   -2.339379   -0.464533
     19          6           0        9.706505    0.319908    0.064990
     20          6           0      -10.027948   -0.973577   -0.459480
     21          6           0       11.693771    1.139933   -1.922713
     22          6           0      -10.662170    1.939687   -1.336853
     23          6           0        9.385830    1.658148   -0.083505
     24          6           0       -8.742574   -0.469159   -0.322424
     25          6           0        8.097276    2.263801    0.032069
     26          6           0       -7.579890   -1.165324   -0.706894
     27          6           0        7.989798    3.823419    0.201215
     28          6           0       -7.646962   -2.603387   -1.310271
     29          6           0        6.940219    1.548468    0.059246
     30          6           0       -6.330482   -0.528819   -0.279587
     31          6           0        5.611135    2.005546    0.219215
     32          6           0       -5.052813   -1.064578   -0.437697
     33          6           0        4.437300    1.262199   -0.046459
     34          6           0       -3.931121   -0.303007   -0.233841
     35          6           0        3.100872    1.644885    0.068642
     36          6           0       -2.556144   -0.632664   -0.504479
     37          6           0        2.881925    3.124587    0.499856
     38          6           0       -2.256155   -2.019008   -1.006916
     39          6           0        2.135677    0.737253   -0.066029
     40          6           0       -1.522952    0.237221   -0.308440
     41          6           0        0.739157    1.035855    0.021149
     42          6           0       -0.175187    0.150058   -0.277760
     43          1           0       13.255986   -1.164915    1.786651
     44          1           0       12.657966   -3.046686    1.691182
     45          1           0      -14.529694   -0.787322    1.262003
     46          1           0      -14.130896   -0.179749   -0.504080
     47          1           0       12.867885   -2.597424   -0.772220
     48          1           0      -13.172902    1.237946    2.232463
     49          1           0       14.043076    0.243917   -0.531336
     50          1           0       13.913706   -0.687121   -1.717689
     51          1           0      -13.358290    1.838137   -0.881710
     52          1           0      -12.616977    2.764774    0.544357
     53          1           0       10.758464   -1.935823    3.102255
     54          1           0        9.513773   -0.938834    2.313511
     55          1           0       11.200745   -0.154677    2.527648
     56          1           0       10.691830   -2.966483   -0.381695
     57          1           0       10.434227   -3.428654    1.206952
     58          1           0        9.319025   -2.428889    0.581170
     59          1           0      -12.071275   -0.989306    2.741033
     60          1           0      -10.969911   -2.307614    1.791283
     61          1           0      -12.978002   -2.268654    2.205497
     62          1           0      -13.669766   -2.898815   -0.116319
     63          1           0      -11.808227   -2.996030   -0.604407
     64          1           0      -12.977455   -2.133764   -1.541288
     65          1           0        8.812347   -0.468990   -0.047768
     66          1           0      -10.084999   -2.011628   -0.855086
     67          1           0       10.555274    1.325055   -1.944135
     68          1           0       12.229827    2.030354   -1.476744
     69          1           0       12.112248    0.972643   -2.853007
     70          1           0      -11.261790    2.471090   -2.097476
     71          1           0       -9.927667    1.345552   -2.005416
     72          1           0       -9.971461    2.909121   -0.925608
     73          1           0       14.786128   -3.259346    0.304230
     74          1           0      -15.346305    1.455223    2.037407
     75          1           0       10.086661    2.301842    0.199072
     76          1           0       -8.840848    0.450900    0.196497
     77          1           0        9.025328    4.153514   -0.137079
     78          1           0        7.304151    4.137924   -0.470105
     79          1           0        7.706659    3.971377    1.270599
     80          1           0       -8.043798   -3.576320   -0.653917
     81          1           0       -8.231670   -2.581340   -2.069101
     82          1           0       -6.592328   -2.926223   -1.697005
     83          1           0        7.004297    0.378531   -0.096665
     84          1           0       -6.338846    0.594887    0.107394
     85          1           0        5.262511    2.977076    0.640257
     86          1           0       -4.771585   -2.108596   -0.645909
     87          1           0        4.786522    0.165038   -0.312844
     88          1           0       -4.126001    0.795612   -0.010181
     89          1           0        2.892069    3.135140    1.688965
     90          1           0        1.911447    3.444858    0.127298
     91          1           0        3.845772    3.599419    0.172955
     92          1           0       -2.851204   -2.818462   -0.522998
     93          1           0       -2.643114   -2.211924   -2.139968
     94          1           0       -1.083630   -2.216465   -1.057572
     95          1           0        2.463408   -0.261983   -0.549023
     96          1           0       -1.870944    1.117705    0.235054
     97          1           0        0.458856    2.067159    0.282893
     98          1           0        0.143878   -0.900001   -0.625283
 ---------------------------------------------------------------------

 SCF Done:  E(RCAM-B3LYP) =  -1706.96783204     A.U. after   15 cycles

 Excitation energies and oscillator strengths:

 Excited State   1:      Singlet-A      2.2583 eV  549.01 nm  f=3.8859  <S**2>=0.000
     155 ->158         0.18709
     156 ->157         0.67885
 This state for optimization and/or second-order correction.
 Total Energy, E(TD-HF/TD-DFT) =  -1706.88483974
 Copying the excited state density for this state as the 1-particle RhoCI density.

 The electronic state is 1-A.
 Alpha  occ. eigenvalues --  -19.21569 -19.20894 -10.31351 -10.30379 -10.28936
 Alpha  occ. eigenvalues --  -10.28358 -10.28193 -10.28016 -10.27863 -10.27570
 Alpha  occ. eigenvalues --  -10.27564 -10.27444 -10.27102 -10.27066 -10.26979
 Alpha  occ. eigenvalues --  -10.26965 -10.26930 -10.26930 -10.26900 -10.26889
 Alpha  occ. eigenvalues --  -10.26854 -10.26817 -10.26633 -10.26586 -10.26556
 Alpha  occ. eigenvalues --  -10.26424 -10.26377 -10.26331 -10.26325 -10.26252
 Alpha  occ. eigenvalues --  -10.26240 -10.25887 -10.25789 -10.25668 -10.25637
 Alpha  occ. eigenvalues --  -10.25423 -10.25181 -10.25179 -10.24853 -10.24852
 Alpha  occ. eigenvalues --  -10.24632 -10.23148  -1.07958  -1.07725  -0.93755
 Alpha  occ. eigenvalues --   -0.92980  -0.92899  -0.91744  -0.90545  -0.89927
 Alpha  occ. eigenvalues --   -0.87974  -0.87113  -0.86477  -0.85481  -0.84592
 Alpha  occ. eigenvalues --   -0.82987  -0.82112  -0.80002  -0.79071  -0.78233
 Alpha  occ. eigenvalues --   -0.76801  -0.76274  -0.76116  -0.76084  -0.75740
 Alpha  occ. eigenvalues --   -0.75289  -0.75086  -0.74575  -0.73734  -0.70793
 Alpha  occ. eigenvalues --   -0.69174  -0.67506  -0.65781  -0.65229  -0.64009
 Alpha  occ. eigenvalues --   -0.63164  -0.62956  -0.61358  -0.60431  -0.60120
 Alpha  occ. eigenvalues --   -0.59085  -0.58413  -0.57664  -0.57236  -0.56227
 Alpha  occ. eigenvalues --   -0.55522  -0.55188  -0.54975  -0.54441  -0.53415
 Alpha  occ. eigenvalues --   -0.53101  -0.52555  -0.52432  -0.51870  -0.50981
 Alpha  occ. eigenvalues --   -0.50440  -0.50092  -0.49734  -0.49642  -0.48984
 Alpha  occ. eigenvalues --   -0.48905  -0.48353  -0.48180  -0.47823  -0.47645
 Alpha  occ. eigenvalues --   -0.47575  -0.47230  -0.47110  -0.46579  -0.46148
 Alpha  occ. eigenvalues --   -0.45842  -0.45399  -0.45304  -0.44973  -0.44654
 Alpha  occ. eigenvalues --   -0.44295  -0.44028  -0.43881  -0.43463  -0.43359
 Alpha  occ. eigenvalues --   -0.43177  -0.43103  -0.42381  -0.42062  -0.41991
 Alpha  occ. eigenvalues --   -0.41617  -0.41533  -0.41233  -0.40892  -0.40601
 Alpha  occ. eigenvalues --   -0.40303  -0.40204  -0.40059  -0.39885  -0.39442
 Alpha  occ. eigenvalues --   -0.39029  -0.38728  -0.38586  -0.37963  -0.37832
 Alpha  occ. eigenvalues --   -0.37739  -0.37088  -0.36931  -0.36422  -0.36114
 Alpha  occ. eigenvalues --   -0.35657  -0.34970  -0.34154  -0.32261  -0.31925
 Alpha  occ. eigenvalues --   -0.31841  -0.29492  -0.27994  -0.26218  -0.22849
 Alpha  occ. eigenvalues --   -0.19853
 Alpha virt. eigenvalues --   -0.05861  -0.01960   0.02074   0.05246   0.07301
 Alpha virt. eigenvalues --    0.09188   0.10275   0.11424   0.11622   0.11996
 Alpha virt. eigenvalues --    0.12249   0.12374   0.12629   0.13144   0.13468

 Mulliken charges:
               1
     1  O   -0.570341
     2  O   -0.569406
     3  C   -0.057424
     4  C    0.023303
     5  C   -0.174023
     6  C   -0.197590
     7  C    0.161061
     8  C    0.167152
     9  C    0.087416
    10  C    0.053211
    11  C   -0.224277
    12  C   -0.202695
    13  C    0.032629
    14  C    0.029842
    15  C   -0.276001
    16  C   -0.300620
    17  C   -0.282289
    18  C   -0.307052
    19  C   -0.113089
    20  C   -0.154631
    21  C   -0.355478
    22  C   -0.353687
    23  C   -0.112601
    24  C   -0.059186
    25  C    0.043241
    26  C    0.060796
    27  C   -0.351936
    28  C   -0.347132
    29  C   -0.109335
    30  C   -0.130734
    31  C   -0.102469
    32  C   -0.052804
    33  C   -0.113769
    34  C   -0.127520
    35  C    0.106627
    36  C    0.141989
    37  C   -0.359901
    38  C   -0.383800
    39  C   -0.121537
    40  C   -0.140167
    41  C   -0.083981
    42  C   -0.051911
    43  H    0.093014
    44  H    0.070378
    45  H    0.076123
    46  H    0.097296
    47  H    0.090883
    48  H    0.063682
    49  H    0.123227
    50  H    0.120354
    51  H    0.117267
    52  H    0.121374
    53  H    0.087253
    54  H    0.095529
    55  H    0.111493
    56  H    0.104064
    57  H    0.084379
    58  H    0.107613
    59  H    0.106365
    60  H    0.107365
    61  H    0.068974
    62  H    0.077675
    63  H    0.114377
    64  H    0.104025
    65  H    0.083807
    66  H    0.062924
    67  H    0.122851
    68  H    0.105006
    69  H    0.114219
    70  H    0.111478
    71  H    0.112825
    72  H    0.079177
    73  H    0.303268
    74  H    0.309130
    75  H    0.088550
    76  H    0.096271
    77  H    0.099357
    78  H    0.138417
    79  H    0.131117
    80  H    0.096666
    81  H    0.142634
    82  H    0.101382
    83  H    0.068133
    84  H    0.092643
    85  H    0.075803
    86  H    0.082926
    87  H    0.064097
    88  H    0.075016
    89  H    0.115892
    90  H    0.120133
    91  H    0.117181
    92  H    0.123497
    93  H    0.099695
    94  H    0.102401
    95  H    0.086166
    96  H    0.067722
    97  H    0.084955
    98  H    0.062065
 Sum of Mulliken charges =  -0.00000

 Dipole moment (field-independent basis, Debye):
    X=             -0.3713    Y=             -1.7531    Z=              0.8150  Tot=              1.9686
 Quadrupole moment (field-independent basis, Debye-Ang):
   XX=           -278.9284   YY=           -245.2210   ZZ=           -260.6083
   XY=              7.8838   XZ=            -14.4360   YZ=              4.3015

 Normal termination of Gaussian 16 at Wed Jul 10 02:16:16 2019.
