 Gaussian 16, Revision A.03,
 Gaussian 16:  ES64L-G16RevA.03 25-Dec-2016

 -------------------------------------
 # td=(NStates=1) CAM-B3LYP/6-31G(d,p)
 -------------------------------------

 --
 TD
 --
 Symbolic Z-matrix:
 Charge =  0 Multiplicity = 1

                         Standard orientation:
 ---------------------------------------------------------------------
 Center     Atomic      Atomic             Coordinates (Angstroms)
 Number     Number       Type             X           Y           Z
 ---------------------------------------------------------------------
      1          8           0       14.575774   -2.254079   -0.437327
      2          8           0      -14.722159    1.951723    0.861526
      3          6           0       11.222718   -1.346460    1.081675
      4          6           0      -12.331882   -0.900778    0.677618
      5          6           0       12.692990   -1.722569    1.033806
      6          6           0      -13.711821   -0.199613    0.815026
      7          6           0       13.223598   -1.964364   -0.334455
      8          6           0      -13.502807    1.341772    0.822063
      9          6           0       11.025057   -0.183273    0.043911
     10          6           0      -11.282128   -0.256444   -0.259127
     11          6           0       13.226315   -0.666233   -1.161131
     12          6           0      -12.644240    1.827587   -0.354234
     13          6           0       11.848927   -0.006172   -0.992914
     14          6           0      -11.567153    0.950466   -0.807428
     15          6           0       10.804292   -0.804729    2.550641
     16          6           0       10.325491   -2.528766    0.668810
     17          6           0      -11.750623   -1.001033    2.110248
     18          6           0      -12.624448   -2.284816    0.118149
     19          6           0        9.654483    0.407967    0.148069
     20          6           0      -10.017318   -1.116615   -0.592856
     21          6           0       11.699898    1.229411   -1.928459
     22          6           0      -10.671377    1.639273   -1.693032
     23          6           0        9.366817    1.676250   -0.045578
     24          6           0       -8.882749   -0.498634   -0.257828
     25          6           0        8.031174    2.267195    0.114766
     26          6           0       -7.553760   -1.309074   -0.402977
     27          6           0        8.025620    3.760706    0.379705
     28          6           0       -7.538551   -2.733636   -1.003809
     29          6           0        6.957666    1.525802   -0.054210
     30          6           0       -6.421058   -0.642721   -0.354041
     31          6           0        5.613861    1.949607    0.230387
     32          6           0       -5.109514   -1.133358   -0.507858
     33          6           0        4.459499    1.204251   -0.028431
     34          6           0       -3.893412   -0.385853   -0.323893
     35          6           0        3.109461    1.502672    0.219224
     36          6           0       -2.623582   -0.833959   -0.463436
     37          6           0        2.803060    2.895933    0.718006
     38          6           0       -2.310556   -2.241103   -0.764674
     39          6           0        2.025472    0.672693   -0.143791
     40          6           0       -1.606048    0.161601   -0.340599
     41          6           0        0.729502    0.914547    0.022282
     42          6           0       -0.263173   -0.019504   -0.320212
     43          1           0       13.361049   -1.050696    1.680290
     44          1           0       12.927724   -2.697754    1.585639
     45          1           0      -14.085557   -0.534313    1.661329
     46          1           0      -14.375482   -0.546347    0.002074
     47          1           0       12.712359   -2.665894   -0.935231
     48          1           0      -12.928764    1.462746    1.828151
     49          1           0       13.958253    0.007408   -0.682749
     50          1           0       13.466304   -0.802426   -2.138802
     51          1           0      -13.540665    1.954926   -1.177600
     52          1           0      -12.213464    2.827640    0.009815
     53          1           0       11.214259   -1.674745    3.338857
     54          1           0        9.966845   -0.227896    2.763913
     55          1           0       11.537101   -0.016014    2.882847
     56          1           0       10.524529   -2.876955   -0.492447
     57          1           0       10.693471   -3.262651    1.449031
     58          1           0        9.314560   -2.391176    0.997165
     59          1           0      -11.439228    0.007418    2.512972
     60          1           0      -10.953954   -1.672482    1.937796
     61          1           0      -12.521840   -1.626402    2.592287
     62          1           0      -13.359349   -2.766392    0.918304
     63          1           0      -11.758706   -2.933494    0.046309
     64          1           0      -12.926935   -2.247959   -0.886799
     65          1           0        8.905951   -0.195840    0.459029
     66          1           0      -10.112221   -2.213421   -1.130690
     67          1           0       10.655549    1.520055   -2.271358
     68          1           0       12.107623    1.986680   -1.309476
     69          1           0       12.398475    1.237366   -2.930987
     70          1           0      -11.090728    2.002949   -2.831127
     71          1           0       -9.802062    0.869735   -2.062156
     72          1           0      -10.352989    2.842253   -1.362999
     73          1           0       14.663189   -2.948133    0.372714
     74          1           0      -15.351180    1.462902    1.436809
     75          1           0       10.137466    2.393914   -0.219693
     76          1           0       -8.985117    0.569030    0.348159
     77          1           0        9.077165    4.141611    0.378712
     78          1           0        7.352151    4.458618   -0.233269
     79          1           0        7.419523    4.027562    1.286156
     80          1           0       -8.299228   -3.511510   -0.429184
     81          1           0       -8.063202   -2.831208   -2.039676
     82          1           0       -6.623998   -3.146705   -0.932082
     83          1           0        7.062513    0.461215   -0.361322
     84          1           0       -6.521282    0.475196    0.083991
     85          1           0        5.482378    3.036742    0.494155
     86          1           0       -4.904357   -2.183850   -0.561139
     87          1           0        4.689725    0.415468   -0.678833
     88          1           0       -3.973984    0.769271   -0.191818
     89          1           0        3.321000    3.140606    1.684023
     90          1           0        1.690907    3.062527    0.934777
     91          1           0        3.162059    3.753492    0.154840
     92          1           0       -2.742836   -2.906430   -0.015823
     93          1           0       -2.843494   -2.791521   -1.630680
     94          1           0       -1.232653   -2.500419   -0.942188
     95          1           0        2.413760   -0.303225   -0.612742
     96          1           0       -2.058209    1.129849    0.077632
     97          1           0        0.653259    2.074009    0.422119
     98          1           0        0.125202   -1.034613   -0.389089
 ---------------------------------------------------------------------

 SCF Done:  E(RCAM-B3LYP) =  -1706.94582397     A.U. after   15 cycles

 Excitation energies and oscillator strengths:

 Excited State   1:      Singlet-A      2.0206 eV  613.60 nm  f=3.5670  <S**2>=0.000
     155 ->158        -0.11739
     156 ->157         0.70461
     156 <-157        -0.12664
 This state for optimization and/or second-order correction.
 Total Energy, E(TD-HF/TD-DFT) =  -1706.87156851
 Copying the excited state density for this state as the 1-particle RhoCI density.

 The electronic state is 1-A.
 Alpha  occ. eigenvalues --  -19.22091 -19.21024 -10.30295 -10.29465 -10.28853
 Alpha  occ. eigenvalues --  -10.28169 -10.27833 -10.27776 -10.27656 -10.27479
 Alpha  occ. eigenvalues --  -10.27430 -10.27232 -10.27103 -10.27072 -10.26993
 Alpha  occ. eigenvalues --  -10.26860 -10.26843 -10.26780 -10.26702 -10.26679
 Alpha  occ. eigenvalues --  -10.26614 -10.26552 -10.26519 -10.26509 -10.26509
 Alpha  occ. eigenvalues --  -10.26469 -10.26422 -10.26387 -10.26379 -10.26166
 Alpha  occ. eigenvalues --  -10.26089 -10.26041 -10.25805 -10.25698 -10.25601
 Alpha  occ. eigenvalues --  -10.25441 -10.25227 -10.25076 -10.24677 -10.24187
 Alpha  occ. eigenvalues --  -10.24150 -10.23293  -1.10607  -1.09994  -0.93507
 Alpha  occ. eigenvalues --   -0.93210  -0.92667  -0.91906  -0.91056  -0.90062
 Alpha  occ. eigenvalues --   -0.87607  -0.87388  -0.86426  -0.85359  -0.84751
 Alpha  occ. eigenvalues --   -0.82766  -0.81193  -0.80111  -0.79454  -0.78793
 Alpha  occ. eigenvalues --   -0.76601  -0.76542  -0.76198  -0.76105  -0.76046
 Alpha  occ. eigenvalues --   -0.75392  -0.75163  -0.74415  -0.73267  -0.71408
 Alpha  occ. eigenvalues --   -0.68589  -0.66953  -0.66242  -0.65512  -0.63979
 Alpha  occ. eigenvalues --   -0.62430  -0.62062  -0.60975  -0.60103  -0.59624
 Alpha  occ. eigenvalues --   -0.58947  -0.58450  -0.58087  -0.57709  -0.56585
 Alpha  occ. eigenvalues --   -0.56071  -0.55659  -0.55220  -0.54822  -0.54176
 Alpha  occ. eigenvalues --   -0.53362  -0.52585  -0.52285  -0.51435  -0.51069
 Alpha  occ. eigenvalues --   -0.50567  -0.50248  -0.49774  -0.49218  -0.49039
 Alpha  occ. eigenvalues --   -0.48730  -0.48410  -0.47926  -0.47383  -0.47333
 Alpha  occ. eigenvalues --   -0.47128  -0.46858  -0.46676  -0.46391  -0.46169
 Alpha  occ. eigenvalues --   -0.45963  -0.45875  -0.45157  -0.45025  -0.44886
 Alpha  occ. eigenvalues --   -0.44264  -0.44154  -0.43956  -0.43931  -0.43753
 Alpha  occ. eigenvalues --   -0.43607  -0.43382  -0.42839  -0.42572  -0.42274
 Alpha  occ. eigenvalues --   -0.42002  -0.41787  -0.41078  -0.40998  -0.40750
 Alpha  occ. eigenvalues --   -0.40205  -0.39975  -0.39561  -0.39308  -0.39279
 Alpha  occ. eigenvalues --   -0.39157  -0.38452  -0.38296  -0.38251  -0.37882
 Alpha  occ. eigenvalues --   -0.37613  -0.37413  -0.37034  -0.36207  -0.35521
 Alpha  occ. eigenvalues --   -0.35095  -0.34328  -0.33744  -0.32425  -0.32085
 Alpha  occ. eigenvalues --   -0.30555  -0.29934  -0.28029  -0.26650  -0.24621
 Alpha  occ. eigenvalues --   -0.18834
 Alpha virt. eigenvalues --   -0.07001  -0.00120   0.03395   0.05571   0.07010
 Alpha virt. eigenvalues --    0.08914   0.10327   0.10926   0.11446   0.11699
 Alpha virt. eigenvalues --    0.12208   0.12259   0.12744   0.12824   0.13195

 Mulliken charges:
               1
     1  O   -0.551256
     2  O   -0.552008
     3  C   -0.004492
     4  C   -0.049966
     5  C   -0.211256
     6  C   -0.188575
     7  C    0.179311
     8  C    0.193773
     9  C    0.051217
    10  C    0.022317
    11  C   -0.191185
    12  C   -0.226201
    13  C    0.013660
    14  C    0.130093
    15  C   -0.328700
    16  C   -0.284622
    17  C   -0.288778
    18  C   -0.301966
    19  C   -0.085578
    20  C   -0.130905
    21  C   -0.362178
    22  C   -0.360595
    23  C   -0.112517
    24  C   -0.084396
    25  C    0.119147
    26  C    0.070302
    27  C   -0.389041
    28  C   -0.351388
    29  C   -0.124225
    30  C   -0.080587
    31  C   -0.091654
    32  C   -0.117681
    33  C   -0.132289
    34  C   -0.137776
    35  C    0.115851
    36  C    0.175544
    37  C   -0.389932
    38  C   -0.401615
    39  C   -0.090450
    40  C   -0.127399
    41  C   -0.068185
    42  C   -0.116287
    43  H    0.105657
    44  H    0.059883
    45  H    0.087117
    46  H    0.089057
    47  H    0.087868
    48  H    0.043553
    49  H    0.118979
    50  H    0.114785
    51  H    0.103520
    52  H    0.108899
    53  H    0.075725
    54  H    0.130374
    55  H    0.102457
    56  H    0.100167
    57  H    0.093802
    58  H    0.117372
    59  H    0.108345
    60  H    0.111803
    61  H    0.089866
    62  H    0.075333
    63  H    0.093723
    64  H    0.116646
    65  H    0.084273
    66  H    0.101720
    67  H    0.119267
    68  H    0.134014
    69  H    0.075755
    70  H    0.072755
    71  H    0.107584
    72  H    0.078191
    73  H    0.288132
    74  H    0.312258
    75  H    0.079928
    76  H    0.113493
    77  H    0.111846
    78  H    0.117813
    79  H    0.121306
    80  H    0.079568
    81  H    0.118144
    82  H    0.122306
    83  H    0.084631
    84  H    0.074458
    85  H    0.070358
    86  H    0.078603
    87  H    0.082112
    88  H    0.079084
    89  H    0.115328
    90  H    0.098462
    91  H    0.128443
    92  H    0.129129
    93  H    0.112199
    94  H    0.114395
    95  H    0.073179
    96  H    0.083928
    97  H    0.072762
    98  H    0.092110
 Sum of Mulliken charges =  -0.00000

 Dipole moment (field-independent basis, Debye):
    X=              1.3993    Y=             -1.7635    Z=              2.1137  Tot=              3.0879
 Quadrupole moment (field-independent basis, Debye-Ang):
   XX=           -271.0045   YY=           -245.9329   ZZ=           -264.1446
   XY=             24.3301   XZ=              5.0487   YZ=              3.4829

 Normal termination of Gaussian 16 at Sun Jul 14 04:48:19 2019.
