 Gaussian 16, Revision A.03,
 Gaussian 16:  ES64L-G16RevA.03 25-Dec-2016

 -------------------------------------
 # td=(NStates=1) CAM-B3LYP/6-31G(d,p)
 -------------------------------------

 --
 TD
 --
 Symbolic Z-matrix:
 Charge =  0 Multiplicity = 1

                         Standard orientation:
 ---------------------------------------------------------------------
 Center     Atomic      Atomic             Coordinates (Angstroms)
 Number     Number       Type             X           Y           Z
 ---------------------------------------------------------------------
      1          8           0       14.658507   -2.360303   -0.114738
      2          8           0      -14.689712    1.890685    1.187912
      3          6           0       11.060553   -1.607347    1.022494
      4          6           0      -12.245627   -1.138560    0.824148
      5          6           0       12.528503   -1.968547    1.130628
      6          6           0      -13.513676   -0.332735    1.023728
      7          6           0       13.264929   -1.961062   -0.267794
      8          6           0      -13.398443    1.205774    1.099514
      9          6           0       10.959640   -0.252680    0.120416
     10          6           0      -11.313808   -0.332473   -0.113534
     11          6           0       13.310869   -0.563780   -0.705098
     12          6           0      -12.697398    1.898202   -0.009201
     13          6           0       12.023640    0.153892   -0.580586
     14          6           0      -11.520075    0.946765   -0.551684
     15          6           0       10.490892   -1.385712    2.399107
     16          6           0       10.258269   -2.755544    0.347282
     17          6           0      -11.563845   -1.280843    2.331517
     18          6           0      -12.565133   -2.483695    0.353220
     19          6           0        9.630031    0.319198    0.195399
     20          6           0      -10.090956   -0.961367   -0.344740
     21          6           0       11.944214    1.421115   -1.494361
     22          6           0      -10.750880    1.732402   -1.612515
     23          6           0        9.419799    1.674113    0.203840
     24          6           0       -8.789519   -0.458626   -0.565925
     25          6           0        7.988261    2.333982    0.306964
     26          6           0       -7.568368   -1.218370   -0.785425
     27          6           0        8.004258    3.817193    0.731467
     28          6           0       -7.629560   -2.648179   -1.174087
     29          6           0        6.859718    1.651925   -0.083655
     30          6           0       -6.345834   -0.534318   -0.592478
     31          6           0        5.572010    2.267838    0.057090
     32          6           0       -5.117036   -0.975352   -0.852142
     33          6           0        4.491142    1.442897   -0.194981
     34          6           0       -3.971108   -0.299213   -0.667322
     35          6           0        3.052658    1.781426   -0.069491
     36          6           0       -2.585189   -0.721576   -0.971484
     37          6           0        2.839122    3.133243    0.464369
     38          6           0       -2.335349   -2.097071   -1.342768
     39          6           0        2.183310    0.855538   -0.359403
     40          6           0       -1.654399    0.171395   -0.584989
     41          6           0        0.740812    1.011771   -0.358313
     42          6           0       -0.234320   -0.036692   -0.621225
     43          1           0       12.903897   -1.252200    1.877207
     44          1           0       12.634056   -3.012939    1.565646
     45          1           0      -14.230532   -0.660028    1.703769
     46          1           0      -14.141850   -0.582056    0.092659
     47          1           0       12.774596   -2.332247   -1.025270
     48          1           0      -12.923050    1.648240    2.063475
     49          1           0       14.151318   -0.049266    0.078442
     50          1           0       13.730737   -0.632227   -1.709603
     51          1           0      -13.316400    1.994099   -0.747264
     52          1           0      -12.256535    2.827723    0.177006
     53          1           0       10.403049   -2.333157    2.870588
     54          1           0        9.440823   -1.101587    2.475129
     55          1           0       10.952202   -0.701537    2.978816
     56          1           0       10.557932   -2.831769   -0.710405
     57          1           0       10.582545   -3.584596    0.991005
     58          1           0        9.103448   -2.674974    0.167016
     59          1           0      -11.433970   -0.406529    2.757645
     60          1           0      -10.606277   -1.832240    2.139911
     61          1           0      -12.331884   -1.755023    2.848294
     62          1           0      -13.317408   -3.178051    1.000246
     63          1           0      -11.722858   -3.244616    0.521032
     64          1           0      -13.097737   -2.677941   -0.697610
     65          1           0        8.883729   -0.379996    0.461351
     66          1           0      -10.216919   -2.093375   -0.258617
     67          1           0       10.890360    1.924925   -1.613737
     68          1           0       12.585958    2.362865   -1.102668
     69          1           0       12.607864    1.341250   -2.289150
     70          1           0      -11.319886    2.260459   -2.327414
     71          1           0      -10.095971    1.007094   -2.136407
     72          1           0      -10.023325    2.402147   -1.173659
     73          1           0       14.611274   -3.365743    0.022558
     74          1           0      -14.924216    1.596052    2.094213
     75          1           0       10.114673    2.416879    0.252179
     76          1           0       -8.899460    0.801073   -0.236315
     77          1           0        8.967673    3.939457    1.035414
     78          1           0        7.570825    4.441719   -0.041129
     79          1           0        7.311631    3.779102    1.692952
     80          1           0       -8.216690   -3.066728   -0.432464
     81          1           0       -8.210895   -2.908382   -2.076483
     82          1           0       -6.608925   -3.204915   -1.229714
     83          1           0        6.973514    0.689760   -0.493506
     84          1           0       -6.616145    0.443487   -0.594429
     85          1           0        5.418500    3.145129    0.494013
     86          1           0       -5.062648   -1.973579   -1.019828
     87          1           0        4.519802    0.355523   -0.606037
     88          1           0       -3.982873    0.857959   -0.342305
     89          1           0        3.159117    3.266367    1.400359
     90          1           0        1.771631    3.163764    0.736108
     91          1           0        3.264366    3.869558   -0.359387
     92          1           0       -2.758224   -2.880789   -0.744348
     93          1           0       -3.054352   -2.206722   -2.195397
     94          1           0       -1.310398   -2.383665   -1.416506
     95          1           0        2.582129   -0.090806   -0.850649
     96          1           0       -2.013128    1.062236   -0.032523
     97          1           0        0.141730    1.792260   -0.007583
     98          1           0       -0.059830   -1.064059   -0.859901
 ---------------------------------------------------------------------

 SCF Done:  E(RCAM-B3LYP) =  -1706.94250849     A.U. after   14 cycles

 Excitation energies and oscillator strengths:

 Excited State   1:      Singlet-A      2.4826 eV  499.41 nm  f=3.7068  <S**2>=0.000
     155 ->158        -0.19226
     156 ->157         0.67499
 This state for optimization and/or second-order correction.
 Total Energy, E(TD-HF/TD-DFT) =  -1706.85127469
 Copying the excited state density for this state as the 1-particle RhoCI density.

 The electronic state is 1-A.
 Alpha  occ. eigenvalues --  -19.21942 -19.20829 -10.30905 -10.29146 -10.28469
 Alpha  occ. eigenvalues --  -10.28308 -10.27938 -10.27458 -10.27425 -10.27326
 Alpha  occ. eigenvalues --  -10.27079 -10.26960 -10.26917 -10.26865 -10.26706
 Alpha  occ. eigenvalues --  -10.26627 -10.26520 -10.26354 -10.26172 -10.26120
 Alpha  occ. eigenvalues --  -10.26099 -10.25982 -10.25858 -10.25758 -10.25721
 Alpha  occ. eigenvalues --  -10.25705 -10.25700 -10.25694 -10.25661 -10.25625
 Alpha  occ. eigenvalues --  -10.25535 -10.25450 -10.25407 -10.25374 -10.25174
 Alpha  occ. eigenvalues --  -10.24803 -10.24647 -10.24292 -10.24179 -10.23972
 Alpha  occ. eigenvalues --  -10.23569 -10.22953  -1.08364  -1.07963  -0.93654
 Alpha  occ. eigenvalues --   -0.93402  -0.92579  -0.91941  -0.90591  -0.89363
 Alpha  occ. eigenvalues --   -0.87384  -0.87313  -0.86534  -0.85950  -0.84748
 Alpha  occ. eigenvalues --   -0.83544  -0.82275  -0.79782  -0.79631  -0.79212
 Alpha  occ. eigenvalues --   -0.77296  -0.76996  -0.76813  -0.76662  -0.76355
 Alpha  occ. eigenvalues --   -0.75768  -0.75426  -0.75071  -0.74006  -0.70696
 Alpha  occ. eigenvalues --   -0.68923  -0.67489  -0.65681  -0.65534  -0.65227
 Alpha  occ. eigenvalues --   -0.63675  -0.62831  -0.61817  -0.60939  -0.60465
 Alpha  occ. eigenvalues --   -0.59461  -0.59241  -0.57840  -0.57358  -0.56354
 Alpha  occ. eigenvalues --   -0.55904  -0.55062  -0.54481  -0.54247  -0.53928
 Alpha  occ. eigenvalues --   -0.53384  -0.53141  -0.52310  -0.52205  -0.51157
 Alpha  occ. eigenvalues --   -0.50435  -0.50357  -0.50206  -0.49758  -0.49648
 Alpha  occ. eigenvalues --   -0.49244  -0.48996  -0.48865  -0.48727  -0.48184
 Alpha  occ. eigenvalues --   -0.47701  -0.47568  -0.47258  -0.47134  -0.46871
 Alpha  occ. eigenvalues --   -0.46559  -0.45911  -0.45475  -0.45298  -0.44993
 Alpha  occ. eigenvalues --   -0.44800  -0.44305  -0.44171  -0.44114  -0.43944
 Alpha  occ. eigenvalues --   -0.43825  -0.43461  -0.42855  -0.42472  -0.42283
 Alpha  occ. eigenvalues --   -0.42060  -0.41766  -0.41600  -0.41000  -0.40919
 Alpha  occ. eigenvalues --   -0.40672  -0.40355  -0.39788  -0.39636  -0.39215
 Alpha  occ. eigenvalues --   -0.39105  -0.38907  -0.38769  -0.37905  -0.37458
 Alpha  occ. eigenvalues --   -0.37315  -0.37141  -0.36776  -0.35805  -0.35467
 Alpha  occ. eigenvalues --   -0.34901  -0.34515  -0.33596  -0.32828  -0.32355
 Alpha  occ. eigenvalues --   -0.32209  -0.29666  -0.28187  -0.25758  -0.22746
 Alpha  occ. eigenvalues --   -0.19947
 Alpha virt. eigenvalues --   -0.04699  -0.01151   0.01906   0.05600   0.07772
 Alpha virt. eigenvalues --    0.10383   0.11307   0.11799   0.12019   0.12318
 Alpha virt. eigenvalues --    0.12392   0.13113   0.13350   0.13765   0.14112

 Mulliken charges:
               1
     1  O   -0.563739
     2  O   -0.560690
     3  C   -0.032024
     4  C   -0.014079
     5  C   -0.186486
     6  C   -0.189517
     7  C    0.169848
     8  C    0.133599
     9  C    0.053865
    10  C    0.118654
    11  C   -0.225368
    12  C   -0.183611
    13  C    0.066746
    14  C   -0.026750
    15  C   -0.303017
    16  C   -0.298846
    17  C   -0.292019
    18  C   -0.312859
    19  C   -0.096085
    20  C   -0.132700
    21  C   -0.361819
    22  C   -0.376817
    23  C   -0.110371
    24  C   -0.122135
    25  C    0.009065
    26  C    0.072411
    27  C   -0.351942
    28  C   -0.375674
    29  C   -0.080779
    30  C   -0.092837
    31  C   -0.090344
    32  C   -0.070417
    33  C   -0.114965
    34  C   -0.116798
    35  C    0.148478
    36  C    0.131704
    37  C   -0.366557
    38  C   -0.381083
    39  C   -0.149225
    40  C   -0.135536
    41  C   -0.100582
    42  C   -0.097228
    43  H    0.109324
    44  H    0.064297
    45  H    0.088644
    46  H    0.094127
    47  H    0.099331
    48  H    0.065330
    49  H    0.093549
    50  H    0.108455
    51  H    0.131820
    52  H    0.116541
    53  H    0.096880
    54  H    0.101005
    55  H    0.112610
    56  H    0.103032
    57  H    0.101653
    58  H    0.092176
    59  H    0.114844
    60  H    0.103810
    61  H    0.106535
    62  H    0.083781
    63  H    0.101946
    64  H    0.105871
    65  H    0.097017
    66  H    0.062028
    67  H    0.116562
    68  H    0.078415
    69  H    0.112038
    70  H    0.117809
    71  H    0.124677
    72  H    0.119229
    73  H    0.305215
    74  H    0.302123
    75  H    0.092804
    76  H    0.073501
    77  H    0.115791
    78  H    0.134903
    79  H    0.108142
    80  H    0.132614
    81  H    0.127567
    82  H    0.103293
    83  H    0.083630
    84  H    0.077689
    85  H    0.086306
    86  H    0.062666
    87  H    0.065276
    88  H    0.069072
    89  H    0.136012
    90  H    0.098766
    91  H    0.118598
    92  H    0.133855
    93  H    0.118359
    94  H    0.117431
    95  H    0.086958
    96  H    0.081297
    97  H    0.085860
    98  H    0.067465
 Sum of Mulliken charges =  -0.00000

 Dipole moment (field-independent basis, Debye):
    X=             -0.7885    Y=             -2.3072    Z=              1.6100  Tot=              2.9218
 Quadrupole moment (field-independent basis, Debye-Ang):
   XX=           -293.1778   YY=           -238.8544   ZZ=           -259.1605
   XY=              9.4719   XZ=            -13.0815   YZ=              4.5153

 Normal termination of Gaussian 16 at Fri Jul 12 17:16:39 2019.
