 Gaussian 16, Revision A.03,
 Gaussian 16:  ES64L-G16RevA.03 25-Dec-2016

 -------------------------------------
 # td=(NStates=1) CAM-B3LYP/6-31G(d,p)
 -------------------------------------

 --
 TD
 --
 Symbolic Z-matrix:
 Charge =  0 Multiplicity = 1

                         Standard orientation:
 ---------------------------------------------------------------------
 Center     Atomic      Atomic             Coordinates (Angstroms)
 Number     Number       Type             X           Y           Z
 ---------------------------------------------------------------------
      1          8           0       14.555222   -2.329177   -0.144362
      2          8           0      -14.754786    1.843913    0.952100
      3          6           0       11.022299   -1.475159    0.971994
      4          6           0      -12.267617   -0.959611    0.593021
      5          6           0       12.528477   -1.834615    1.088972
      6          6           0      -13.625111   -0.260808    0.564953
      7          6           0       13.243557   -1.947021   -0.250933
      8          6           0      -13.482615    1.215078    0.914911
      9          6           0       10.958884   -0.209606    0.130645
     10          6           0      -11.268151   -0.177091   -0.097668
     11          6           0       13.186532   -0.506506   -0.855850
     12          6           0      -12.680644    1.916930   -0.250686
     13          6           0       11.830037    0.125451   -0.757229
     14          6           0      -11.468620    1.032637   -0.523962
     15          6           0       10.567774   -1.252050    2.371556
     16          6           0       10.257213   -2.705258    0.238101
     17          6           0      -11.793636   -1.233539    2.070046
     18          6           0      -12.632984   -2.408304   -0.045391
     19          6           0        9.604837    0.520030    0.180362
     20          6           0      -10.054412   -0.904940   -0.331662
     21          6           0       11.704984    1.219111   -1.808682
     22          6           0      -10.445233    1.849771   -1.318122
     23          6           0        9.368365    1.800836    0.119932
     24          6           0       -8.718920   -0.551934   -0.302710
     25          6           0        7.967146    2.430795    0.071324
     26          6           0       -7.503646   -1.299057   -0.642609
     27          6           0        7.833039    3.886362    0.318427
     28          6           0       -7.650680   -2.782884   -1.038979
     29          6           0        6.880409    1.653888   -0.056678
     30          6           0       -6.304706   -0.635915   -0.507800
     31          6           0        5.633556    2.115181    0.067785
     32          6           0       -4.994584   -1.136076   -0.532650
     33          6           0        4.444105    1.288500    0.080492
     34          6           0       -3.863699   -0.368509   -0.436881
     35          6           0        3.123337    1.657464    0.170534
     36          6           0       -2.571929   -0.808202   -0.599817
     37          6           0        2.722133    3.069282    0.663822
     38          6           0       -2.194989   -2.139224   -1.073121
     39          6           0        2.210312    0.690381   -0.163461
     40          6           0       -1.551102    0.113521   -0.240881
     41          6           0        0.835841    0.890757   -0.042098
     42          6           0       -0.176116   -0.059085   -0.306394
     43          1           0       13.042007   -1.290543    1.823734
     44          1           0       12.449153   -2.992083    1.588210
     45          1           0      -14.279110   -0.625226    1.415703
     46          1           0      -14.167990   -0.520929   -0.464132
     47          1           0       12.801360   -2.624367   -0.991478
     48          1           0      -13.018763    1.398911    1.849950
     49          1           0       13.871958    0.035469   -0.372012
     50          1           0       13.558084   -0.715518   -1.913616
     51          1           0      -13.300414    2.040906   -1.067184
     52          1           0      -12.431491    2.940394    0.107555
     53          1           0       11.179607   -1.890094    3.007654
     54          1           0        9.561691   -1.460236    2.542031
     55          1           0       10.944193   -0.384019    2.646718
     56          1           0       10.585318   -3.127838   -0.657461
     57          1           0       10.101799   -3.436172    0.868984
     58          1           0        9.157370   -2.698076    0.104118
     59          1           0      -11.740647   -0.375989    2.631222
     60          1           0      -10.766074   -1.526189    2.028440
     61          1           0      -12.402796   -2.030454    2.435684
     62          1           0      -13.316602   -2.877246    0.523717
     63          1           0      -11.650212   -2.869799    0.010175
     64          1           0      -12.898604   -2.289777   -1.143136
     65          1           0        8.681985   -0.036426    0.271619
     66          1           0      -10.174917   -2.091022   -0.560317
     67          1           0       10.618329    1.543818   -2.099699
     68          1           0       12.174979    2.175842   -1.437863
     69          1           0       12.451191    0.776728   -2.662253
     70          1           0      -11.088002    2.678801   -1.689796
     71          1           0       -9.819292    1.158589   -1.674797
     72          1           0       -9.868124    2.402164   -0.682848
     73          1           0       14.819276   -3.012350    0.677616
     74          1           0      -15.547314    1.024093    1.226401
     75          1           0       10.166231    2.530833   -0.030692
     76          1           0       -8.381939    0.536810   -0.004744
     77          1           0        8.832670    4.153896    0.357380
     78          1           0        7.442863    4.548045   -0.491723
     79          1           0        7.358301    3.961145    1.219199
     80          1           0       -8.088026   -3.517571   -0.181297
     81          1           0       -8.044763   -2.994079   -2.126996
     82          1           0       -6.656542   -3.099732   -1.257763
     83          1           0        7.115174    0.665200   -0.256886
     84          1           0       -6.412224    0.341598   -0.098804
     85          1           0        5.679851    3.189286    0.310685
     86          1           0       -5.017286   -2.217312   -0.782421
     87          1           0        4.885229    0.278186   -0.355013
     88          1           0       -4.092971    0.748435   -0.129882
     89          1           0        3.223233    3.484150    1.623903
     90          1           0        1.706251    2.945801    0.648895
     91          1           0        3.161989    3.722477   -0.024900
     92          1           0       -2.184892   -2.941192   -0.056471
     93          1           0       -3.065315   -2.264809   -1.826625
     94          1           0       -1.069767   -2.007585   -1.540991
     95          1           0        2.396637   -0.277477   -0.482266
     96          1           0       -1.833970    1.085836    0.360096
     97          1           0        0.475868    1.918891    0.066629
     98          1           0        0.431315   -1.133567   -0.339841
 ---------------------------------------------------------------------

 SCF Done:  E(RCAM-B3LYP) =  -1706.89602405     A.U. after   15 cycles

 Excitation energies and oscillator strengths:

 Excited State   1:      Singlet-A      2.0525 eV  604.05 nm  f=3.7386  <S**2>=0.000
     155 ->158        -0.13368
     156 ->157         0.69774
     156 <-157        -0.10225
 This state for optimization and/or second-order correction.
 Total Energy, E(TD-HF/TD-DFT) =  -1706.82059424
 Copying the excited state density for this state as the 1-particle RhoCI density.

 The electronic state is 1-A.
 Alpha  occ. eigenvalues --  -19.21546 -19.21042 -10.30080 -10.29066 -10.28541
 Alpha  occ. eigenvalues --  -10.28221 -10.27773 -10.27718 -10.27516 -10.27172
 Alpha  occ. eigenvalues --  -10.27137 -10.27137 -10.27014 -10.26960 -10.26934
 Alpha  occ. eigenvalues --  -10.26922 -10.26830 -10.26753 -10.26495 -10.26490
 Alpha  occ. eigenvalues --  -10.26389 -10.26245 -10.26082 -10.26051 -10.26026
 Alpha  occ. eigenvalues --  -10.25841 -10.25771 -10.25691 -10.25680 -10.25631
 Alpha  occ. eigenvalues --  -10.25607 -10.25513 -10.24492 -10.24490 -10.24444
 Alpha  occ. eigenvalues --  -10.24358 -10.24217 -10.23732 -10.23695 -10.23124
 Alpha  occ. eigenvalues --  -10.22908 -10.22565  -1.08677  -1.05771  -0.94185
 Alpha  occ. eigenvalues --   -0.94179  -0.92969  -0.92293  -0.91535  -0.89802
 Alpha  occ. eigenvalues --   -0.87872  -0.86962  -0.86746  -0.85629  -0.84433
 Alpha  occ. eigenvalues --   -0.83030  -0.81921  -0.80618  -0.79231  -0.78918
 Alpha  occ. eigenvalues --   -0.78591  -0.77536  -0.76935  -0.76784  -0.76520
 Alpha  occ. eigenvalues --   -0.75642  -0.75303  -0.74825  -0.73271  -0.71148
 Alpha  occ. eigenvalues --   -0.68557  -0.67115  -0.66051  -0.65637  -0.65352
 Alpha  occ. eigenvalues --   -0.64547  -0.63017  -0.61769  -0.61229  -0.59845
 Alpha  occ. eigenvalues --   -0.59239  -0.58642  -0.57147  -0.56642  -0.55910
 Alpha  occ. eigenvalues --   -0.55081  -0.54724  -0.54514  -0.54205  -0.53926
 Alpha  occ. eigenvalues --   -0.53248  -0.53061  -0.52285  -0.51817  -0.51327
 Alpha  occ. eigenvalues --   -0.51150  -0.50820  -0.50133  -0.49925  -0.49766
 Alpha  occ. eigenvalues --   -0.49393  -0.49078  -0.48736  -0.48338  -0.48115
 Alpha  occ. eigenvalues --   -0.47742  -0.47510  -0.47039  -0.47019  -0.46871
 Alpha  occ. eigenvalues --   -0.46604  -0.46479  -0.45522  -0.45152  -0.45052
 Alpha  occ. eigenvalues --   -0.44735  -0.43975  -0.43682  -0.43433  -0.43198
 Alpha  occ. eigenvalues --   -0.42983  -0.42647  -0.42623  -0.42197  -0.42080
 Alpha  occ. eigenvalues --   -0.42013  -0.41944  -0.41589  -0.41354  -0.40563
 Alpha  occ. eigenvalues --   -0.40440  -0.40138  -0.39945  -0.39742  -0.39601
 Alpha  occ. eigenvalues --   -0.39439  -0.39101  -0.38875  -0.38713  -0.38502
 Alpha  occ. eigenvalues --   -0.37696  -0.37377  -0.35944  -0.35817  -0.35345
 Alpha  occ. eigenvalues --   -0.34865  -0.33956  -0.33172  -0.32450  -0.31690
 Alpha  occ. eigenvalues --   -0.30899  -0.30279  -0.28969  -0.26901  -0.23639
 Alpha  occ. eigenvalues --   -0.18932
 Alpha virt. eigenvalues --   -0.06521  -0.01017   0.03047   0.06052   0.08305
 Alpha virt. eigenvalues --    0.08682   0.09551   0.09958   0.11274   0.12076
 Alpha virt. eigenvalues --    0.12259   0.12613   0.12839   0.13292   0.13731

 Mulliken charges:
               1
     1  O   -0.586382
     2  O   -0.583046
     3  C    0.003473
     4  C   -0.065250
     5  C   -0.216493
     6  C   -0.200587
     7  C    0.211749
     8  C    0.196180
     9  C    0.054156
    10  C    0.163440
    11  C   -0.228425
    12  C   -0.231569
    13  C    0.068109
    14  C    0.007006
    15  C   -0.305846
    16  C   -0.326899
    17  C   -0.304129
    18  C   -0.302476
    19  C   -0.109447
    20  C   -0.177744
    21  C   -0.349090
    22  C   -0.352003
    23  C   -0.094680
    24  C   -0.115062
    25  C    0.032117
    26  C    0.112665
    27  C   -0.380003
    28  C   -0.368590
    29  C   -0.050317
    30  C   -0.118177
    31  C   -0.103279
    32  C   -0.103470
    33  C   -0.132846
    34  C   -0.102784
    35  C    0.078854
    36  C    0.120002
    37  C   -0.340007
    38  C   -0.338095
    39  C   -0.084014
    40  C   -0.131172
    41  C   -0.098926
    42  C   -0.111708
    43  H    0.108041
    44  H    0.039583
    45  H    0.065768
    46  H    0.090167
    47  H    0.081601
    48  H    0.091063
    49  H    0.128924
    50  H    0.100048
    51  H    0.130907
    52  H    0.107500
    53  H    0.095767
    54  H    0.109630
    55  H    0.119137
    56  H    0.117799
    57  H    0.113029
    58  H    0.085730
    59  H    0.110325
    60  H    0.111171
    61  H    0.099211
    62  H    0.112141
    63  H    0.097047
    64  H    0.099688
    65  H    0.083613
    66  H    0.077968
    67  H    0.116496
    68  H    0.113533
    69  H    0.088996
    70  H    0.103394
    71  H    0.125382
    72  H    0.125132
    73  H    0.312374
    74  H    0.286622
    75  H    0.077723
    76  H    0.069683
    77  H    0.109609
    78  H    0.122973
    79  H    0.143216
    80  H    0.111668
    81  H    0.113483
    82  H    0.109454
    83  H    0.068112
    84  H    0.075552
    85  H    0.070745
    86  H    0.081830
    87  H    0.074026
    88  H    0.083603
    89  H    0.117129
    90  H    0.112356
    91  H    0.135338
    92  H    0.098945
    93  H    0.111042
    94  H    0.110302
    95  H    0.083713
    96  H    0.085764
    97  H    0.085126
    98  H    0.065584
 Sum of Mulliken charges =  -0.00000

 Dipole moment (field-independent basis, Debye):
    X=              3.0410    Y=             -1.3832    Z=              1.8991  Tot=              3.8428
 Quadrupole moment (field-independent basis, Debye-Ang):
   XX=           -267.2339   YY=           -245.2534   ZZ=           -263.8732
   XY=             21.8860   XZ=             13.0266   YZ=             -1.5948

 Normal termination of Gaussian 16 at Thu Jul 18 21:55:57 2019.
