 Gaussian 16, Revision A.03,
 Gaussian 16:  ES64L-G16RevA.03 25-Dec-2016

 -------------------------------------
 # td=(NStates=1) CAM-B3LYP/6-31G(d,p)
 -------------------------------------

 --
 TD
 --
 Symbolic Z-matrix:
 Charge =  0 Multiplicity = 1

                         Standard orientation:
 ---------------------------------------------------------------------
 Center     Atomic      Atomic             Coordinates (Angstroms)
 Number     Number       Type             X           Y           Z
 ---------------------------------------------------------------------
      1          8           0       14.681042   -2.313803   -0.018363
      2          8           0      -14.545200    1.924557    1.189125
      3          6           0       11.055349   -1.449514    0.976940
      4          6           0      -12.232411   -1.077945    0.799439
      5          6           0       12.534191   -1.973509    1.181096
      6          6           0      -13.594086   -0.291819    0.844977
      7          6           0       13.364341   -1.904124   -0.144207
      8          6           0      -13.412200    1.218703    1.138281
      9          6           0       10.977234   -0.184118    0.133079
     10          6           0      -11.213480   -0.249438   -0.165575
     11          6           0       13.326915   -0.539196   -0.809199
     12          6           0      -12.596117    1.902398    0.037768
     13          6           0       11.961554    0.171517   -0.647061
     14          6           0      -11.445225    0.962820   -0.536474
     15          6           0       10.482700   -1.094520    2.411183
     16          6           0       10.269919   -2.643837    0.409200
     17          6           0      -11.597063   -1.493896    2.133509
     18          6           0      -12.630701   -2.375685   -0.028280
     19          6           0        9.675907    0.407464    0.121797
     20          6           0      -10.084039   -0.943000   -0.484218
     21          6           0       11.836065    1.315266   -1.647892
     22          6           0      -10.538563    1.958666   -1.304623
     23          6           0        9.280403    1.675838    0.131138
     24          6           0       -8.760663   -0.475457   -0.514331
     25          6           0        7.996039    2.274862    0.069484
     26          6           0       -7.563826   -1.211568   -0.795331
     27          6           0        7.901384    3.736545    0.585876
     28          6           0       -7.701775   -2.615670   -1.340237
     29          6           0        6.835572    1.583968   -0.108140
     30          6           0       -6.313880   -0.509465   -0.674431
     31          6           0        5.471803    2.103232    0.043029
     32          6           0       -5.145373   -1.009540   -0.844905
     33          6           0        4.452876    1.346733   -0.179760
     34          6           0       -3.961282   -0.400690   -0.594453
     35          6           0        3.024264    1.665615   -0.069104
     36          6           0       -2.589515   -0.807873   -0.649768
     37          6           0        2.738168    3.134332    0.403775
     38          6           0       -2.211747   -2.209539   -0.948705
     39          6           0        2.086141    0.680065   -0.280638
     40          6           0       -1.687803    0.160499   -0.386304
     41          6           0        0.690449    0.866216   -0.198907
     42          6           0       -0.269140   -0.131382   -0.352790
     43          1           0       13.153895   -1.442051    1.992631
     44          1           0       12.779148   -3.045973    1.479457
     45          1           0      -14.033838   -0.868244    1.716625
     46          1           0      -14.237827   -0.522552   -0.026151
     47          1           0       12.781450   -2.643710   -0.813083
     48          1           0      -12.818278    1.270754    2.083810
     49          1           0       14.114827    0.229384   -0.450495
     50          1           0       13.639687   -0.432767   -1.913140
     51          1           0      -13.443463    2.079380   -0.624923
     52          1           0      -12.072252    2.708562    0.449216
     53          1           0       10.730018   -1.783914    3.148154
     54          1           0        9.527050   -1.012320    2.237201
     55          1           0       10.833783   -0.056113    2.776724
     56          1           0       10.610282   -2.720125   -0.515222
     57          1           0       10.514199   -3.714412    0.798322
     58          1           0        9.192951   -2.658612    0.581540
     59          1           0      -11.267931   -0.445414    2.896127
     60          1           0      -10.919527   -2.104133    2.069602
     61          1           0      -12.455974   -1.921449    2.721570
     62          1           0      -13.360098   -2.934552    0.711942
     63          1           0      -11.641154   -2.927808   -0.120952
     64          1           0      -12.968163   -2.178836   -1.046873
     65          1           0        8.783513   -0.114985    0.186859
     66          1           0      -10.308680   -1.922838   -0.616404
     67          1           0       10.843548    1.601014   -1.883834
     68          1           0       12.299726    2.151898   -1.314834
     69          1           0       12.080701    1.036582   -2.640521
     70          1           0      -11.384266    2.544759   -1.799570
     71          1           0       -9.838615    1.338558   -2.024871
     72          1           0       -9.941054    2.516816   -0.715285
     73          1           0       14.765996   -3.350218    0.056355
     74          1           0      -15.273193    1.226295    1.735387
     75          1           0       10.135803    2.392302   -0.048162
     76          1           0       -8.747171    0.629901   -0.227945
     77          1           0        9.017068    4.179131    0.641173
     78          1           0        7.471494    4.351834   -0.119845
     79          1           0        7.408089    3.605714    1.556773
     80          1           0       -8.048257   -3.112615   -0.482454
     81          1           0       -8.366784   -2.853158   -2.296946
     82          1           0       -6.665204   -2.989164   -1.589257
     83          1           0        6.979546    0.506462   -0.309603
     84          1           0       -6.521378    0.423463   -0.135190
     85          1           0        5.399205    3.215548    0.445725
     86          1           0       -5.069523   -2.029993   -1.000236
     87          1           0        4.690515    0.352051   -0.360729
     88          1           0       -4.212600    0.522911   -0.217484
     89          1           0        2.791806    3.047459    1.630770
     90          1           0        1.753573    3.575927   -0.186758
     91          1           0        3.617171    3.964414    0.066433
     92          1           0       -2.961470   -2.880055   -0.282071
     93          1           0       -2.573933   -2.465308   -1.948944
     94          1           0       -1.224015   -2.499390   -0.763546
     95          1           0        2.401468   -0.268085   -0.432659
     96          1           0       -1.909999    1.278186    0.132695
     97          1           0        0.385488    1.917194   -0.141309
     98          1           0        0.001607   -1.091458   -0.723300
 ---------------------------------------------------------------------

 SCF Done:  E(RCAM-B3LYP) =  -1706.90870095     A.U. after   15 cycles

 Excitation energies and oscillator strengths:

 Excited State   1:      Singlet-A      2.3931 eV  518.08 nm  f=3.8320  <S**2>=0.000
     155 ->158         0.16441
     156 ->157         0.68451
 This state for optimization and/or second-order correction.
 Total Energy, E(TD-HF/TD-DFT) =  -1706.82075458
 Copying the excited state density for this state as the 1-particle RhoCI density.

 The electronic state is 1-A.
 Alpha  occ. eigenvalues --  -19.22677 -19.21962 -10.31049 -10.30008 -10.29434
 Alpha  occ. eigenvalues --  -10.28336 -10.28092 -10.27731 -10.27655 -10.27366
 Alpha  occ. eigenvalues --  -10.27275 -10.26570 -10.26538 -10.26508 -10.26488
 Alpha  occ. eigenvalues --  -10.26452 -10.26359 -10.26353 -10.26348 -10.26242
 Alpha  occ. eigenvalues --  -10.26218 -10.26136 -10.25686 -10.25679 -10.25678
 Alpha  occ. eigenvalues --  -10.25643 -10.25415 -10.25410 -10.25395 -10.25240
 Alpha  occ. eigenvalues --  -10.25041 -10.24945 -10.24866 -10.24814 -10.24595
 Alpha  occ. eigenvalues --  -10.24241 -10.24136 -10.24047 -10.24042 -10.23835
 Alpha  occ. eigenvalues --  -10.22951 -10.22670  -1.10547  -1.09320  -0.93710
 Alpha  occ. eigenvalues --   -0.93213  -0.92674  -0.91731  -0.90598  -0.89770
 Alpha  occ. eigenvalues --   -0.87510  -0.86855  -0.86516  -0.85823  -0.84350
 Alpha  occ. eigenvalues --   -0.83375  -0.81873  -0.80197  -0.79067  -0.77653
 Alpha  occ. eigenvalues --   -0.77164  -0.76807  -0.76747  -0.76723  -0.75881
 Alpha  occ. eigenvalues --   -0.75176  -0.74921  -0.74640  -0.73510  -0.70782
 Alpha  occ. eigenvalues --   -0.69251  -0.67296  -0.65395  -0.64840  -0.64439
 Alpha  occ. eigenvalues --   -0.63900  -0.62501  -0.62073  -0.61142  -0.59993
 Alpha  occ. eigenvalues --   -0.59124  -0.58551  -0.58380  -0.57658  -0.56475
 Alpha  occ. eigenvalues --   -0.56228  -0.55468  -0.55101  -0.54007  -0.53529
 Alpha  occ. eigenvalues --   -0.53202  -0.52317  -0.52167  -0.51786  -0.51260
 Alpha  occ. eigenvalues --   -0.50818  -0.50600  -0.50313  -0.50183  -0.49479
 Alpha  occ. eigenvalues --   -0.49099  -0.49023  -0.48835  -0.48678  -0.48352
 Alpha  occ. eigenvalues --   -0.48121  -0.47702  -0.47429  -0.46383  -0.46139
 Alpha  occ. eigenvalues --   -0.46043  -0.45652  -0.45487  -0.44988  -0.44815
 Alpha  occ. eigenvalues --   -0.44785  -0.44208  -0.43852  -0.43747  -0.43465
 Alpha  occ. eigenvalues --   -0.42936  -0.42207  -0.42180  -0.42076  -0.41835
 Alpha  occ. eigenvalues --   -0.41818  -0.41479  -0.41364  -0.40839  -0.40468
 Alpha  occ. eigenvalues --   -0.40290  -0.39986  -0.39909  -0.39812  -0.39177
 Alpha  occ. eigenvalues --   -0.38811  -0.38474  -0.38219  -0.38091  -0.37941
 Alpha  occ. eigenvalues --   -0.37542  -0.37008  -0.36499  -0.35968  -0.35769
 Alpha  occ. eigenvalues --   -0.35442  -0.35067  -0.33663  -0.32292  -0.31004
 Alpha  occ. eigenvalues --   -0.30958  -0.30511  -0.29144  -0.26337  -0.23270
 Alpha  occ. eigenvalues --   -0.19616
 Alpha virt. eigenvalues --   -0.05126  -0.01068   0.02559   0.06853   0.08481
 Alpha virt. eigenvalues --    0.08886   0.09877   0.10500   0.11077   0.11486
 Alpha virt. eigenvalues --    0.12569   0.13118   0.13328   0.13598   0.13896

 Mulliken charges:
               1
     1  O   -0.561960
     2  O   -0.541073
     3  C   -0.038944
     4  C   -0.043635
     5  C   -0.186101
     6  C   -0.209471
     7  C    0.183686
     8  C    0.198155
     9  C    0.106928
    10  C    0.120101
    11  C   -0.211459
    12  C   -0.227876
    13  C    0.028823
    14  C   -0.022835
    15  C   -0.295436
    16  C   -0.299726
    17  C   -0.248806
    18  C   -0.303469
    19  C   -0.105719
    20  C   -0.121503
    21  C   -0.378338
    22  C   -0.357191
    23  C   -0.105442
    24  C   -0.112387
    25  C    0.063922
    26  C    0.068709
    27  C   -0.360367
    28  C   -0.359389
    29  C   -0.132851
    30  C   -0.103411
    31  C   -0.076088
    32  C   -0.060830
    33  C   -0.088494
    34  C   -0.119427
    35  C    0.088360
    36  C    0.121025
    37  C   -0.348629
    38  C   -0.372012
    39  C   -0.099968
    40  C   -0.114369
    41  C   -0.086449
    42  C   -0.099927
    43  H    0.089948
    44  H    0.070844
    45  H    0.067948
    46  H    0.100630
    47  H    0.058051
    48  H    0.053800
    49  H    0.111604
    50  H    0.103435
    51  H    0.121905
    52  H    0.122872
    53  H    0.104140
    54  H    0.108190
    55  H    0.091663
    56  H    0.117538
    57  H    0.085174
    58  H    0.102511
    59  H    0.064935
    60  H    0.116635
    61  H    0.094323
    62  H    0.086498
    63  H    0.092623
    64  H    0.122141
    65  H    0.069466
    66  H    0.057010
    67  H    0.121278
    68  H    0.128098
    69  H    0.108245
    70  H    0.107601
    71  H    0.103279
    72  H    0.132829
    73  H    0.312843
    74  H    0.298987
    75  H    0.062075
    76  H    0.080088
    77  H    0.086977
    78  H    0.131298
    79  H    0.136436
    80  H    0.133169
    81  H    0.113034
    82  H    0.103546
    83  H    0.076197
    84  H    0.080978
    85  H    0.081843
    86  H    0.063853
    87  H    0.076348
    88  H    0.066959
    89  H    0.121905
    90  H    0.104376
    91  H    0.094709
    92  H    0.102074
    93  H    0.131861
    94  H    0.125278
    95  H    0.074284
    96  H    0.081382
    97  H    0.078001
    98  H    0.080155
 Sum of Mulliken charges =  -0.00000

 Dipole moment (field-independent basis, Debye):
    X=             -0.3699    Y=             -3.0699    Z=              0.7284  Tot=              3.1767
 Quadrupole moment (field-independent basis, Debye-Ang):
   XX=           -266.3542   YY=           -242.8341   ZZ=           -263.2120
   XY=             11.4257   XZ=            -16.7158   YZ=              1.5273

 Normal termination of Gaussian 16 at Tue Jul 16 22:38:09 2019.
