 Gaussian 16, Revision A.03,
 Gaussian 16:  ES64L-G16RevA.03 25-Dec-2016

 -------------------------------------
 # td=(NStates=1) CAM-B3LYP/6-31G(d,p)
 -------------------------------------

 --
 TD
 --
 Symbolic Z-matrix:
 Charge =  0 Multiplicity = 1

                         Standard orientation:
 ---------------------------------------------------------------------
 Center     Atomic      Atomic             Coordinates (Angstroms)
 Number     Number       Type             X           Y           Z
 ---------------------------------------------------------------------
      1          8           0       14.729192   -2.149558    0.101214
      2          8           0      -14.643097    2.096258    1.167039
      3          6           0       11.145933   -1.488329    0.920321
      4          6           0      -12.282046   -0.922072    0.746686
      5          6           0       12.539472   -1.925347    1.162691
      6          6           0      -13.608189   -0.137140    0.890353
      7          6           0       13.395159   -1.886439   -0.186468
      8          6           0      -13.407296    1.364811    1.021768
      9          6           0       11.019398   -0.187959    0.064719
     10          6           0      -11.275432   -0.204944   -0.155956
     11          6           0       13.323349   -0.557644   -0.794936
     12          6           0      -12.620860    1.934811   -0.106722
     13          6           0       11.987614    0.288844   -0.719140
     14          6           0      -11.394298    1.075218   -0.519033
     15          6           0       10.578265   -1.221651    2.364903
     16          6           0       10.334709   -2.719521    0.311612
     17          6           0      -11.766949   -1.357614    2.094686
     18          6           0      -12.648236   -2.331503    0.142406
     19          6           0        9.722752    0.454018    0.131098
     20          6           0      -10.055216   -1.041784   -0.422039
     21          6           0       11.898306    1.452839   -1.580833
     22          6           0      -10.588614    1.826941   -1.489024
     23          6           0        9.364522    1.723068    0.080686
     24          6           0       -8.840646   -0.635085   -0.201945
     25          6           0        7.935507    2.261954    0.309280
     26          6           0       -7.663918   -1.360274   -0.453760
     27          6           0        7.991596    3.730244    0.727683
     28          6           0       -7.705926   -2.763986   -0.883834
     29          6           0        6.865372    1.544005   -0.032488
     30          6           0       -6.364520   -0.772106   -0.514538
     31          6           0        5.544564    2.052639    0.065330
     32          6           0       -5.169378   -1.242616   -0.710160
     33          6           0        4.421178    1.242675   -0.260548
     34          6           0       -3.955352   -0.494749   -0.527366
     35          6           0        3.089054    1.695446   -0.011619
     36          6           0       -2.615278   -0.803781   -0.792131
     37          6           0        2.859352    3.002875    0.454690
     38          6           0       -2.324832   -2.223801   -1.206246
     39          6           0        2.041011    0.772423   -0.396939
     40          6           0       -1.664020    0.174426   -0.603765
     41          6           0        0.668615    0.923482   -0.396388
     42          6           0       -0.268586   -0.004115   -0.707088
     43          1           0       13.040520   -1.269780    1.891533
     44          1           0       12.542811   -2.845153    1.469561
     45          1           0      -14.223311   -0.537256    1.738057
     46          1           0      -13.965713   -0.115113   -0.122277
     47          1           0       12.935612   -2.625969   -0.977176
     48          1           0      -12.829077    1.543446    1.915952
     49          1           0       14.115171    0.130056   -0.047352
     50          1           0       13.524584   -0.441399   -1.875444
     51          1           0      -13.343991    1.914746   -0.854828
     52          1           0      -12.315247    2.973797   -0.096878
     53          1           0       10.773522   -1.985057    3.114119
     54          1           0        9.466042   -1.283104    2.473944
     55          1           0       11.051857   -0.189261    2.769091
     56          1           0       10.760777   -2.861682   -0.911027
     57          1           0       10.443544   -3.545190    0.956844
     58          1           0        9.157132   -2.458596    0.130990
     59          1           0      -11.217217   -0.438470    2.721090
     60          1           0      -10.950046   -2.235756    1.921265
     61          1           0      -12.434015   -1.840408    2.544131
     62          1           0      -13.353920   -2.796840    0.697427
     63          1           0      -11.860016   -3.010231    0.333025
     64          1           0      -12.715618   -2.239775   -1.101994
     65          1           0        8.957071   -0.477005    0.346275
     66          1           0      -10.122089   -1.921159   -0.826242
     67          1           0       10.740682    1.369565   -2.001818
     68          1           0       11.825114    2.526046   -0.979287
     69          1           0       12.773559    1.442641   -2.354206
     70          1           0      -11.293899    2.198874   -2.376013
     71          1           0       -9.827016    1.250670   -2.027843
     72          1           0      -10.015097    2.671830   -1.136415
     73          1           0       14.822063   -3.309735    0.378458
     74          1           0      -15.050690    1.494470    1.805097
     75          1           0       10.163878    2.495510   -0.279728
     76          1           0       -8.758094    0.408775    0.034291
     77          1           0        8.851674    4.053510    0.862679
     78          1           0        7.390908    4.389757    0.070753
     79          1           0        7.326674    3.863154    1.810039
     80          1           0       -8.626404   -3.393780   -0.150062
     81          1           0       -8.090991   -2.928106   -1.995165
     82          1           0       -6.681494   -3.232676   -0.917939
     83          1           0        6.880555    0.518302   -0.330919
     84          1           0       -6.473000    0.231520   -0.098813
     85          1           0        5.494596    3.017595    0.676647
     86          1           0       -5.246811   -2.318377   -0.953345
     87          1           0        4.543303    0.217500   -0.585911
     88          1           0       -4.084496    0.521708   -0.204169
     89          1           0        3.251499    3.307322    1.406359
     90          1           0        1.736102    3.112501    0.525022
     91          1           0        2.943961    3.773006   -0.306052
     92          1           0       -2.577688   -2.999914   -0.295395
     93          1           0       -2.967411   -2.628301   -2.241296
     94          1           0       -1.217666   -2.397845   -1.403072
     95          1           0        2.473721   -0.109355   -0.822123
     96          1           0       -1.990275    1.134866   -0.088049
     97          1           0        0.481821    1.920556   -0.114707
     98          1           0        0.036957   -1.049590   -1.158812
 ---------------------------------------------------------------------

 SCF Done:  E(RCAM-B3LYP) =  -1706.86604815     A.U. after   15 cycles

 Excitation energies and oscillator strengths:

 Excited State   1:      Singlet-A      2.0587 eV  602.25 nm  f=3.7859  <S**2>=0.000
     155 ->158        -0.13776
     156 ->157         0.69729
     156 <-157        -0.10443
 This state for optimization and/or second-order correction.
 Total Energy, E(TD-HF/TD-DFT) =  -1706.79039297
 Copying the excited state density for this state as the 1-particle RhoCI density.

 The electronic state is 1-A.
 Alpha  occ. eigenvalues --  -19.23232 -19.20939 -10.30991 -10.29267 -10.28758
 Alpha  occ. eigenvalues --  -10.28327 -10.28055 -10.28018 -10.27891 -10.27663
 Alpha  occ. eigenvalues --  -10.27573 -10.27483 -10.27464 -10.27242 -10.27069
 Alpha  occ. eigenvalues --  -10.26963 -10.26894 -10.26871 -10.26769 -10.26595
 Alpha  occ. eigenvalues --  -10.26579 -10.26564 -10.26451 -10.26280 -10.26147
 Alpha  occ. eigenvalues --  -10.26058 -10.26015 -10.25954 -10.25894 -10.25653
 Alpha  occ. eigenvalues --  -10.25452 -10.25450 -10.25220 -10.25220 -10.25195
 Alpha  occ. eigenvalues --  -10.25001 -10.24971 -10.24924 -10.24529 -10.24162
 Alpha  occ. eigenvalues --  -10.23997 -10.23659  -1.09176  -1.08175  -0.94012
 Alpha  occ. eigenvalues --   -0.93356  -0.92560  -0.92075  -0.91000  -0.90053
 Alpha  occ. eigenvalues --   -0.88062  -0.87674  -0.87417  -0.86185  -0.84662
 Alpha  occ. eigenvalues --   -0.83344  -0.82270  -0.80571  -0.79613  -0.78685
 Alpha  occ. eigenvalues --   -0.77240  -0.76751  -0.76106  -0.75987  -0.75340
 Alpha  occ. eigenvalues --   -0.75053  -0.74952  -0.74679  -0.73043  -0.71319
 Alpha  occ. eigenvalues --   -0.68485  -0.66505  -0.65828  -0.65242  -0.63912
 Alpha  occ. eigenvalues --   -0.63757  -0.62544  -0.61724  -0.60957  -0.60229
 Alpha  occ. eigenvalues --   -0.59393  -0.58919  -0.58137  -0.57684  -0.56669
 Alpha  occ. eigenvalues --   -0.55588  -0.55297  -0.55004  -0.54238  -0.54079
 Alpha  occ. eigenvalues --   -0.53291  -0.52882  -0.52163  -0.51429  -0.50759
 Alpha  occ. eigenvalues --   -0.50594  -0.50176  -0.49921  -0.49849  -0.49494
 Alpha  occ. eigenvalues --   -0.49077  -0.48621  -0.48207  -0.48127  -0.47662
 Alpha  occ. eigenvalues --   -0.47039  -0.46760  -0.46626  -0.46458  -0.46322
 Alpha  occ. eigenvalues --   -0.46084  -0.45864  -0.45681  -0.45442  -0.45225
 Alpha  occ. eigenvalues --   -0.45039  -0.44737  -0.44248  -0.43836  -0.43705
 Alpha  occ. eigenvalues --   -0.43077  -0.42743  -0.42573  -0.42258  -0.42182
 Alpha  occ. eigenvalues --   -0.41912  -0.41466  -0.41087  -0.40593  -0.40491
 Alpha  occ. eigenvalues --   -0.40396  -0.39981  -0.39866  -0.39437  -0.39128
 Alpha  occ. eigenvalues --   -0.38873  -0.38692  -0.38201  -0.37761  -0.37624
 Alpha  occ. eigenvalues --   -0.37594  -0.37484  -0.36721  -0.36627  -0.36186
 Alpha  occ. eigenvalues --   -0.35229  -0.34882  -0.34261  -0.32815  -0.31614
 Alpha  occ. eigenvalues --   -0.30904  -0.29928  -0.28619  -0.26615  -0.23411
 Alpha  occ. eigenvalues --   -0.18912
 Alpha virt. eigenvalues --   -0.06577  -0.01097   0.02974   0.05712   0.06332
 Alpha virt. eigenvalues --    0.07427   0.09564   0.10409   0.10971   0.11628
 Alpha virt. eigenvalues --    0.12030   0.12343   0.12657   0.12877   0.13594

 Mulliken charges:
               1
     1  O   -0.544762
     2  O   -0.552479
     3  C   -0.019778
     4  C   -0.020203
     5  C   -0.153205
     6  C   -0.197742
     7  C    0.177014
     8  C    0.148547
     9  C    0.078212
    10  C    0.048089
    11  C   -0.200281
    12  C   -0.230251
    13  C    0.076877
    14  C    0.062063
    15  C   -0.307381
    16  C   -0.284540
    17  C   -0.268658
    18  C   -0.300081
    19  C   -0.078121
    20  C   -0.117205
    21  C   -0.377681
    22  C   -0.378571
    23  C   -0.146648
    24  C   -0.062176
    25  C    0.064727
    26  C    0.112306
    27  C   -0.335448
    28  C   -0.362624
    29  C   -0.079789
    30  C   -0.102249
    31  C   -0.100737
    32  C   -0.070488
    33  C   -0.127846
    34  C   -0.138434
    35  C    0.127876
    36  C    0.149845
    37  C   -0.396824
    38  C   -0.352263
    39  C   -0.125461
    40  C   -0.126458
    41  C   -0.062742
    42  C   -0.091705
    43  H    0.104157
    44  H    0.080567
    45  H    0.080351
    46  H    0.112387
    47  H    0.059744
    48  H    0.074859
    49  H    0.084067
    50  H    0.100132
    51  H    0.124258
    52  H    0.112439
    53  H    0.097944
    54  H    0.095982
    55  H    0.095805
    56  H    0.070968
    57  H    0.116044
    58  H    0.084620
    59  H    0.082511
    60  H    0.079081
    61  H    0.109646
    62  H    0.106963
    63  H    0.103824
    64  H    0.081943
    65  H    0.063426
    66  H    0.075230
    67  H    0.119279
    68  H    0.106481
    69  H    0.101596
    70  H    0.097836
    71  H    0.118047
    72  H    0.121247
    73  H    0.296099
    74  H    0.302580
    75  H    0.079327
    76  H    0.076356
    77  H    0.115619
    78  H    0.126477
    79  H    0.078909
    80  H    0.064350
    81  H    0.107916
    82  H    0.108135
    83  H    0.084398
    84  H    0.064523
    85  H    0.087701
    86  H    0.069216
    87  H    0.088643
    88  H    0.079548
    89  H    0.130721
    90  H    0.094359
    91  H    0.137243
    92  H    0.108813
    93  H    0.092829
    94  H    0.103149
    95  H    0.066973
    96  H    0.088136
    97  H    0.074698
    98  H    0.079119
 Sum of Mulliken charges =  -0.00000

 Dipole moment (field-independent basis, Debye):
    X=              1.8918    Y=             -2.1818    Z=              0.8677  Tot=              3.0153
 Quadrupole moment (field-independent basis, Debye-Ang):
   XX=           -287.2729   YY=           -242.0175   ZZ=           -261.4638
   XY=              9.5548   XZ=             -4.6565   YZ=             -0.6915

 Normal termination of Gaussian 16 at Tue Jul  9 17:41:05 2019.
