 Gaussian 16, Revision A.03,
 Gaussian 16:  ES64L-G16RevA.03 25-Dec-2016

 -------------------------------------
 # td=(NStates=1) CAM-B3LYP/6-31G(d,p)
 -------------------------------------

 --
 TD
 --
 Symbolic Z-matrix:
 Charge =  0 Multiplicity = 1

                         Standard orientation:
 ---------------------------------------------------------------------
 Center     Atomic      Atomic             Coordinates (Angstroms)
 Number     Number       Type             X           Y           Z
 ---------------------------------------------------------------------
      1          8           0       14.676739   -2.399877   -0.333902
      2          8           0      -14.690844    1.809880    1.057003
      3          6           0       11.227792   -1.419199    0.984261
      4          6           0      -12.360233   -1.094266    0.547164
      5          6           0       12.674921   -1.828758    1.016218
      6          6           0      -13.605599   -0.268163    0.736985
      7          6           0       13.299846   -1.946309   -0.349110
      8          6           0      -13.485463    1.209357    0.882693
      9          6           0       10.917205   -0.307244   -0.021871
     10          6           0      -11.216350   -0.283273   -0.238971
     11          6           0       13.196812   -0.478472   -0.978422
     12          6           0      -12.677669    1.836317   -0.130607
     13          6           0       11.917875    0.040855   -0.966483
     14          6           0      -11.498749    1.020135   -0.644390
     15          6           0       10.799893   -1.019991    2.493141
     16          6           0       10.245406   -2.632763    0.659046
     17          6           0      -11.789714   -1.412644    1.950713
     18          6           0      -12.655014   -2.484882   -0.072370
     19          6           0        9.638845    0.301042    0.272210
     20          6           0      -10.038565   -0.904922   -0.416477
     21          6           0       11.673663    1.265986   -2.018257
     22          6           0      -10.560842    1.902745   -1.479964
     23          6           0        9.267964    1.641195   -0.001244
     24          6           0       -8.810954   -0.481916   -0.321414
     25          6           0        7.987720    2.254742    0.205421
     26          6           0       -7.580984   -1.270695   -0.645268
     27          6           0        7.956179    3.718083    0.498133
     28          6           0       -7.654645   -2.648358   -1.065659
     29          6           0        6.865442    1.532957    0.025576
     30          6           0       -6.388574   -0.586993   -0.517882
     31          6           0        5.620323    2.035511    0.152820
     32          6           0       -5.034260   -1.018671   -0.699050
     33          6           0        4.388432    1.306980    0.035720
     34          6           0       -3.925331   -0.268934   -0.462639
     35          6           0        3.105551    1.791527    0.163288
     36          6           0       -2.544740   -0.778733   -0.513346
     37          6           0        2.814080    3.300941    0.603260
     38          6           0       -2.208591   -2.121608   -0.884342
     39          6           0        2.100260    0.855433   -0.092442
     40          6           0       -1.569347    0.184430   -0.160509
     41          6           0        0.676036    0.901287    0.033719
     42          6           0       -0.185833   -0.081553   -0.097794
     43          1           0       13.393490   -1.207773    1.533845
     44          1           0       12.796456   -2.827726    1.474952
     45          1           0      -14.266861   -0.609832    1.504797
     46          1           0      -14.065976   -0.453305   -0.250397
     47          1           0       12.769997   -2.656761   -1.010395
     48          1           0      -12.971876    1.241317    1.851288
     49          1           0       14.050603    0.081232   -0.540366
     50          1           0       13.525959   -0.676222   -2.092701
     51          1           0      -13.239347    1.708734   -1.158386
     52          1           0      -12.531419    2.897857    0.036208
     53          1           0       11.116607   -1.758968    3.296034
     54          1           0        9.689590   -0.740506    2.605247
     55          1           0       11.523365   -0.157721    2.763698
     56          1           0       10.331914   -3.140414   -0.433319
     57          1           0       10.508118   -3.414505    1.327558
     58          1           0        9.260462   -2.228858    0.901266
     59          1           0      -11.624816   -0.515015    2.698823
     60          1           0      -11.007923   -2.126486    1.983091
     61          1           0      -12.643904   -1.967949    2.573530
     62          1           0      -13.335899   -3.075641    0.738591
     63          1           0      -11.691485   -2.908737   -0.065831
     64          1           0      -13.174222   -2.412933   -1.176379
     65          1           0        8.797437   -0.417211    0.542438
     66          1           0      -10.225421   -1.919305   -0.739085
     67          1           0       10.587810    1.471380   -2.192413
     68          1           0       12.497943    2.034477   -1.775240
     69          1           0       11.990888    0.813899   -3.021977
     70          1           0      -11.432729    2.433980   -2.194873
     71          1           0      -10.023450    1.538538   -2.192112
     72          1           0       -9.964133    2.636031   -1.091591
     73          1           0       14.697622   -3.312977   -0.021027
     74          1           0      -15.218121    1.701567    1.786605
     75          1           0       10.124246    2.390959   -0.217670
     76          1           0       -8.511934    0.458566    0.151165
     77          1           0        9.041158    4.168630    0.763596
     78          1           0        7.315678    4.361161   -0.217291
     79          1           0        7.270033    3.970140    1.359595
     80          1           0       -8.459749   -3.299244   -0.368879
     81          1           0       -8.263704   -2.746065   -2.009955
     82          1           0       -6.895992   -3.334772   -0.996635
     83          1           0        6.934568    0.391270   -0.085901
     84          1           0       -6.411721    0.258102   -0.173876
     85          1           0        5.665817    3.196823    0.324057
     86          1           0       -4.931057   -1.978463   -1.007939
     87          1           0        4.341435    0.263930   -0.100656
     88          1           0       -3.997994    0.906405    0.014463
     89          1           0        3.104674    3.225946    1.681296
     90          1           0        1.864487    3.453876    0.269417
     91          1           0        3.446803    3.988744   -0.140097
     92          1           0       -2.439271   -2.891757   -0.081078
     93          1           0       -2.773682   -2.331549   -1.833918
     94          1           0       -1.186262   -2.274184   -1.272420
     95          1           0        2.581442   -0.057988   -0.363982
     96          1           0       -1.874865    1.185345   -0.081434
     97          1           0        0.350837    1.939729    0.390452
     98          1           0        0.200484   -1.122824   -0.340137
 ---------------------------------------------------------------------

 SCF Done:  E(RCAM-B3LYP) =  -1706.95609432     A.U. after   15 cycles

 Excitation energies and oscillator strengths:

 Excited State   1:      Singlet-A      2.1838 eV  567.74 nm  f=3.6592  <S**2>=0.000
     155 ->158        -0.15951
     156 ->157         0.68676
 This state for optimization and/or second-order correction.
 Total Energy, E(TD-HF/TD-DFT) =  -1706.87584075
 Copying the excited state density for this state as the 1-particle RhoCI density.

 The electronic state is 1-A.
 Alpha  occ. eigenvalues --  -19.21031 -19.19944 -10.30490 -10.29304 -10.28022
 Alpha  occ. eigenvalues --  -10.27874 -10.27567 -10.27549 -10.27548 -10.27492
 Alpha  occ. eigenvalues --  -10.27303 -10.27279 -10.27246 -10.27056 -10.27005
 Alpha  occ. eigenvalues --  -10.26883 -10.26822 -10.26708 -10.26697 -10.26584
 Alpha  occ. eigenvalues --  -10.26528 -10.26528 -10.26291 -10.26246 -10.26215
 Alpha  occ. eigenvalues --  -10.26187 -10.26111 -10.25979 -10.25816 -10.25737
 Alpha  occ. eigenvalues --  -10.25714 -10.25417 -10.25405 -10.25391 -10.25304
 Alpha  occ. eigenvalues --  -10.25246 -10.25242 -10.24553 -10.24215 -10.24094
 Alpha  occ. eigenvalues --  -10.23909 -10.23411  -1.11583  -1.08386  -0.93745
 Alpha  occ. eigenvalues --   -0.93232  -0.92428  -0.91931  -0.91074  -0.90236
 Alpha  occ. eigenvalues --   -0.87837  -0.86996  -0.86538  -0.86344  -0.84969
 Alpha  occ. eigenvalues --   -0.83433  -0.82093  -0.80938  -0.79115  -0.78361
 Alpha  occ. eigenvalues --   -0.77257  -0.76941  -0.76415  -0.75711  -0.75326
 Alpha  occ. eigenvalues --   -0.75032  -0.74254  -0.74155  -0.73498  -0.71110
 Alpha  occ. eigenvalues --   -0.70087  -0.68163  -0.66148  -0.64849  -0.63939
 Alpha  occ. eigenvalues --   -0.63215  -0.62753  -0.61741  -0.61454  -0.60258
 Alpha  occ. eigenvalues --   -0.60007  -0.59269  -0.58553  -0.57494  -0.56771
 Alpha  occ. eigenvalues --   -0.56211  -0.55634  -0.55140  -0.54758  -0.54223
 Alpha  occ. eigenvalues --   -0.53496  -0.53433  -0.52403  -0.51438  -0.50802
 Alpha  occ. eigenvalues --   -0.50517  -0.50179  -0.49851  -0.49683  -0.49369
 Alpha  occ. eigenvalues --   -0.49010  -0.48730  -0.48406  -0.48328  -0.47988
 Alpha  occ. eigenvalues --   -0.47698  -0.47060  -0.46663  -0.46487  -0.46073
 Alpha  occ. eigenvalues --   -0.45880  -0.45503  -0.45388  -0.45023  -0.44598
 Alpha  occ. eigenvalues --   -0.44227  -0.43947  -0.43665  -0.43389  -0.43210
 Alpha  occ. eigenvalues --   -0.43192  -0.42515  -0.42441  -0.42020  -0.41656
 Alpha  occ. eigenvalues --   -0.41559  -0.41451  -0.41052  -0.40833  -0.40597
 Alpha  occ. eigenvalues --   -0.40594  -0.40588  -0.40412  -0.39830  -0.39420
 Alpha  occ. eigenvalues --   -0.38970  -0.38633  -0.38326  -0.38205  -0.38035
 Alpha  occ. eigenvalues --   -0.37828  -0.37560  -0.36939  -0.36450  -0.35268
 Alpha  occ. eigenvalues --   -0.35187  -0.34417  -0.33662  -0.32230  -0.31877
 Alpha  occ. eigenvalues --   -0.31170  -0.29761  -0.27302  -0.25529  -0.22831
 Alpha  occ. eigenvalues --   -0.19328
 Alpha virt. eigenvalues --   -0.05773  -0.01329   0.02205   0.05005   0.07688
 Alpha virt. eigenvalues --    0.10042   0.11633   0.11881   0.12064   0.12378
 Alpha virt. eigenvalues --    0.12561   0.12987   0.13354   0.13622   0.13904

 Mulliken charges:
               1
     1  O   -0.572034
     2  O   -0.553622
     3  C   -0.033065
     4  C   -0.030110
     5  C   -0.182607
     6  C   -0.180756
     7  C    0.149486
     8  C    0.213918
     9  C    0.100657
    10  C    0.078799
    11  C   -0.248406
    12  C   -0.208921
    13  C    0.060904
    14  C    0.015255
    15  C   -0.302384
    16  C   -0.287923
    17  C   -0.295067
    18  C   -0.281946
    19  C   -0.125744
    20  C   -0.131851
    21  C   -0.356541
    22  C   -0.335894
    23  C   -0.141004
    24  C   -0.084630
    25  C    0.112989
    26  C    0.136309
    27  C   -0.398688
    28  C   -0.388605
    29  C   -0.071782
    30  C   -0.083226
    31  C   -0.106600
    32  C   -0.090063
    33  C   -0.123483
    34  C   -0.105146
    35  C    0.091504
    36  C    0.117536
    37  C   -0.343942
    38  C   -0.386071
    39  C   -0.141225
    40  C   -0.118258
    41  C   -0.083898
    42  C   -0.073310
    43  H    0.107907
    44  H    0.069983
    45  H    0.077706
    46  H    0.082818
    47  H    0.080421
    48  H    0.057059
    49  H    0.126410
    50  H    0.095216
    51  H    0.105396
    52  H    0.120936
    53  H    0.096886
    54  H    0.102880
    55  H    0.096174
    56  H    0.082963
    57  H    0.105184
    58  H    0.101730
    59  H    0.094222
    60  H    0.111047
    61  H    0.066019
    62  H    0.088588
    63  H    0.111193
    64  H    0.089539
    65  H    0.087019
    66  H    0.074040
    67  H    0.131593
    68  H    0.115468
    69  H    0.095728
    70  H    0.057484
    71  H    0.127307
    72  H    0.126524
    73  H    0.306408
    74  H    0.299856
    75  H    0.093408
    76  H    0.086742
    77  H    0.105626
    78  H    0.121446
    79  H    0.124912
    80  H    0.077775
    81  H    0.124975
    82  H    0.126878
    83  H    0.077207
    84  H    0.032352
    85  H    0.066352
    86  H    0.069702
    87  H    0.080276
    88  H    0.069084
    89  H    0.138756
    90  H    0.123759
    91  H    0.105038
    92  H    0.125083
    93  H    0.118592
    94  H    0.116816
    95  H    0.067312
    96  H    0.082513
    97  H    0.076958
    98  H    0.086182
 Sum of Mulliken charges =  -0.00000

 Dipole moment (field-independent basis, Debye):
    X=             -0.8365    Y=             -1.3669    Z=              1.6110  Tot=              2.2723
 Quadrupole moment (field-independent basis, Debye-Ang):
   XX=           -284.1682   YY=           -241.3791   ZZ=           -261.3095
   XY=              2.4659   XZ=             -7.7662   YZ=              2.9905

 Normal termination of Gaussian 16 at Thu Jul 11 14:40:31 2019.
