 Gaussian 16, Revision A.03,
 Gaussian 16:  ES64L-G16RevA.03 25-Dec-2016

 -------------------------------------
 # td=(NStates=1) CAM-B3LYP/6-31G(d,p)
 -------------------------------------

 --
 TD
 --
 Symbolic Z-matrix:
 Charge =  0 Multiplicity = 1

                         Standard orientation:
 ---------------------------------------------------------------------
 Center     Atomic      Atomic             Coordinates (Angstroms)
 Number     Number       Type             X           Y           Z
 ---------------------------------------------------------------------
      1          8           0       14.682807   -2.303372   -0.241907
      2          8           0      -14.692838    2.019029    0.920018
      3          6           0       11.143805   -1.448283    0.896326
      4          6           0      -12.339877   -0.998303    0.733580
      5          6           0       12.627430   -1.831022    1.052920
      6          6           0      -13.750418   -0.262780    0.670098
      7          6           0       13.242537   -1.992997   -0.330704
      8          6           0      -13.533536    1.136172    0.852278
      9          6           0       11.003291   -0.270312    0.003157
     10          6           0      -11.252224   -0.316743   -0.165420
     11          6           0       13.179143   -0.660623   -1.008197
     12          6           0      -12.766075    1.751095   -0.281403
     13          6           0       11.912520    0.116954   -0.918240
     14          6           0      -11.439394    1.002542   -0.579403
     15          6           0       10.855397   -1.081858    2.441838
     16          6           0       10.327187   -2.740785    0.455647
     17          6           0      -12.043115   -1.370638    2.200158
     18          6           0      -12.736961   -2.377400    0.024937
     19          6           0        9.677471    0.390648    0.146533
     20          6           0      -10.007714   -1.000030   -0.400869
     21          6           0       11.777456    1.169923   -1.937861
     22          6           0      -10.672215    1.657402   -1.515978
     23          6           0        9.392040    1.702637    0.002445
     24          6           0       -8.772874   -0.470859   -0.292409
     25          6           0        8.110229    2.304467    0.231869
     26          6           0       -7.537515   -1.246872   -0.507067
     27          6           0        7.928685    3.774249    0.539741
     28          6           0       -7.682767   -2.666796   -1.114839
     29          6           0        6.937647    1.581053    0.187595
     30          6           0       -6.335153   -0.562677   -0.410905
     31          6           0        5.646401    2.019892    0.287423
     32          6           0       -5.087547   -1.013851   -0.624522
     33          6           0        4.486249    1.362111    0.127831
     34          6           0       -3.925038   -0.262015   -0.447745
     35          6           0        3.174870    1.834780    0.122814
     36          6           0       -2.595463   -0.790313   -0.539720
     37          6           0        2.937892    3.155596    0.439848
     38          6           0       -2.231756   -2.227700   -1.028723
     39          6           0        2.130086    0.804242   -0.044475
     40          6           0       -1.556143    0.156050   -0.189486
     41          6           0        0.707959    0.990944    0.035121
     42          6           0       -0.188196    0.009696   -0.265243
     43          1           0       12.981060   -0.997299    1.653455
     44          1           0       12.719971   -2.755814    1.698561
     45          1           0      -14.414999   -0.569280    1.435460
     46          1           0      -14.146825   -0.332021   -0.403085
     47          1           0       12.819293   -2.768776   -1.154948
     48          1           0      -12.806393    1.517610    1.569369
     49          1           0       13.781675    0.189002   -0.643598
     50          1           0       13.408374   -0.827120   -2.026023
     51          1           0      -13.212420    1.751992   -1.293508
     52          1           0      -12.613970    2.892311   -0.109999
     53          1           0       11.046794   -2.097122    3.179313
     54          1           0        9.764247   -1.005138    2.570880
     55          1           0       11.420509   -0.292717    2.718830
     56          1           0       10.375601   -2.856946   -0.684122
     57          1           0       10.821715   -3.652637    1.107605
     58          1           0        9.155356   -2.643870    0.658021
     59          1           0      -11.993812   -0.532519    2.869698
     60          1           0      -11.089483   -1.954583    2.146550
     61          1           0      -12.830885   -1.896169    2.692230
     62          1           0      -13.636102   -2.713259    0.518926
     63          1           0      -12.113080   -3.204668    0.095469
     64          1           0      -12.908855   -1.990368   -1.070847
     65          1           0        8.887110   -0.136080    0.853771
     66          1           0       -9.829394   -2.276717   -0.497118
     67          1           0       10.736311    1.673160   -2.362938
     68          1           0       12.321021    1.978887   -1.437070
     69          1           0       12.257079    0.898775   -2.897897
     70          1           0      -11.189110    2.217679   -2.246616
     71          1           0       -9.942508    1.124014   -2.150608
     72          1           0      -10.040092    2.408720   -1.060226
     73          1           0       14.809367   -3.033041    0.507044
     74          1           0      -15.564579    1.332826    1.338139
     75          1           0       10.346020    2.422434   -0.363820
     76          1           0       -8.641342    0.586951   -0.025608
     77          1           0        8.961613    4.120778    0.824285
     78          1           0        7.724147    4.418589   -0.469387
     79          1           0        7.333863    4.034603    1.417960
     80          1           0       -8.309713   -3.391609   -0.562280
     81          1           0       -8.224762   -2.668196   -2.180298
     82          1           0       -6.592999   -3.134609   -1.335638
     83          1           0        6.807180    0.465583    0.061842
     84          1           0       -6.528556    0.614423   -0.004262
     85          1           0        5.472515    2.935922    0.462556
     86          1           0       -5.031882   -2.072361   -0.797632
     87          1           0        4.847298    0.388934   -0.194134
     88          1           0       -3.982920    0.638523   -0.279545
     89          1           0        2.509839    3.366772    1.754491
     90          1           0        1.751398    3.592278   -0.257647
     91          1           0        3.819908    3.808135   -0.010746
     92          1           0       -2.280880   -2.935861   -0.212654
     93          1           0       -3.129900   -2.428320   -1.713519
     94          1           0       -1.271046   -2.272800   -1.521638
     95          1           0        2.383217   -0.088300   -0.380809
     96          1           0       -1.770874    1.325880   -0.171595
     97          1           0        0.151733    1.980137    0.435026
     98          1           0        0.297529   -0.847545   -0.568256
 ---------------------------------------------------------------------

 SCF Done:  E(RCAM-B3LYP) =  -1706.80857887     A.U. after   16 cycles

 Excitation energies and oscillator strengths:

 Excited State   1:      Singlet-A      1.9154 eV  647.29 nm  f=3.6596  <S**2>=0.000
     155 ->158         0.14074
     156 ->157         0.69561
 This state for optimization and/or second-order correction.
 Total Energy, E(TD-HF/TD-DFT) =  -1706.73818753
 Copying the excited state density for this state as the 1-particle RhoCI density.

 The electronic state is 1-A.
 Alpha  occ. eigenvalues --  -19.22130 -19.21008 -10.31707 -10.30673 -10.28932
 Alpha  occ. eigenvalues --  -10.28735 -10.28485 -10.28362 -10.28106 -10.27855
 Alpha  occ. eigenvalues --  -10.27785 -10.27581 -10.27442 -10.27256 -10.27238
 Alpha  occ. eigenvalues --  -10.27195 -10.27157 -10.27139 -10.27128 -10.26970
 Alpha  occ. eigenvalues --  -10.26831 -10.26776 -10.26741 -10.26704 -10.26506
 Alpha  occ. eigenvalues --  -10.26295 -10.26016 -10.25927 -10.25870 -10.25808
 Alpha  occ. eigenvalues --  -10.25763 -10.25659 -10.25459 -10.25389 -10.25296
 Alpha  occ. eigenvalues --  -10.25281 -10.25018 -10.24828 -10.24520 -10.24517
 Alpha  occ. eigenvalues --  -10.23583 -10.23000  -1.06040  -1.05542  -0.94344
 Alpha  occ. eigenvalues --   -0.93443  -0.92874  -0.91881  -0.90602  -0.89768
 Alpha  occ. eigenvalues --   -0.88287  -0.87810  -0.87680  -0.85799  -0.84997
 Alpha  occ. eigenvalues --   -0.83319  -0.82674  -0.80448  -0.79887  -0.78395
 Alpha  occ. eigenvalues --   -0.76997  -0.76703  -0.76551  -0.76232  -0.75185
 Alpha  occ. eigenvalues --   -0.75153  -0.75039  -0.74622  -0.72905  -0.70399
 Alpha  occ. eigenvalues --   -0.68781  -0.66787  -0.65876  -0.64607  -0.64219
 Alpha  occ. eigenvalues --   -0.64004  -0.62592  -0.62156  -0.61607  -0.61207
 Alpha  occ. eigenvalues --   -0.59076  -0.57547  -0.57202  -0.56479  -0.55911
 Alpha  occ. eigenvalues --   -0.55512  -0.54829  -0.54611  -0.53799  -0.53688
 Alpha  occ. eigenvalues --   -0.53441  -0.52700  -0.52342  -0.51826  -0.51129
 Alpha  occ. eigenvalues --   -0.50660  -0.49904  -0.49875  -0.49380  -0.48767
 Alpha  occ. eigenvalues --   -0.48696  -0.48523  -0.48194  -0.47883  -0.47686
 Alpha  occ. eigenvalues --   -0.47507  -0.47076  -0.46689  -0.46599  -0.46480
 Alpha  occ. eigenvalues --   -0.46296  -0.46171  -0.45918  -0.45493  -0.45250
 Alpha  occ. eigenvalues --   -0.44293  -0.43903  -0.43695  -0.43348  -0.42838
 Alpha  occ. eigenvalues --   -0.42430  -0.42332  -0.42149  -0.41824  -0.41624
 Alpha  occ. eigenvalues --   -0.41312  -0.41100  -0.41016  -0.40822  -0.40690
 Alpha  occ. eigenvalues --   -0.40118  -0.39953  -0.39661  -0.39346  -0.39277
 Alpha  occ. eigenvalues --   -0.39076  -0.38807  -0.38756  -0.38352  -0.37825
 Alpha  occ. eigenvalues --   -0.37669  -0.37515  -0.37037  -0.36791  -0.35447
 Alpha  occ. eigenvalues --   -0.35148  -0.34893  -0.34147  -0.32188  -0.31752
 Alpha  occ. eigenvalues --   -0.31165  -0.30117  -0.27935  -0.25865  -0.22930
 Alpha  occ. eigenvalues --   -0.18664
 Alpha virt. eigenvalues --   -0.06779  -0.01372   0.02011   0.05079   0.07334
 Alpha virt. eigenvalues --    0.07860   0.08698   0.09778   0.10867   0.10969
 Alpha virt. eigenvalues --    0.10980   0.11401   0.12075   0.12828   0.13231

 Mulliken charges:
               1
     1  O   -0.583160
     2  O   -0.570758
     3  C   -0.050253
     4  C   -0.030799
     5  C   -0.194481
     6  C   -0.187483
     7  C    0.179618
     8  C    0.193929
     9  C    0.080090
    10  C    0.052901
    11  C   -0.193365
    12  C   -0.235034
    13  C    0.032544
    14  C    0.072681
    15  C   -0.291001
    16  C   -0.278933
    17  C   -0.302830
    18  C   -0.288251
    19  C   -0.104875
    20  C   -0.130493
    21  C   -0.367031
    22  C   -0.394309
    23  C   -0.108457
    24  C   -0.072998
    25  C    0.068887
    26  C    0.100256
    27  C   -0.369020
    28  C   -0.377341
    29  C   -0.090121
    30  C   -0.102646
    31  C   -0.053910
    32  C   -0.100797
    33  C   -0.088955
    34  C   -0.036154
    35  C    0.147056
    36  C    0.065460
    37  C   -0.347048
    38  C   -0.361874
    39  C   -0.113689
    40  C   -0.146239
    41  C   -0.084958
    42  C   -0.046558
    43  H    0.110764
    44  H    0.075716
    45  H    0.085771
    46  H    0.102804
    47  H    0.082425
    48  H    0.092750
    49  H    0.122229
    50  H    0.111131
    51  H    0.108627
    52  H    0.103943
    53  H    0.061368
    54  H    0.102402
    55  H    0.121777
    56  H    0.107742
    57  H    0.085400
    58  H    0.089183
    59  H    0.105085
    60  H    0.106937
    61  H    0.102953
    62  H    0.096920
    63  H    0.099685
    64  H    0.090120
    65  H    0.085437
    66  H    0.055618
    67  H    0.118019
    68  H    0.127280
    69  H    0.113518
    70  H    0.113550
    71  H    0.122038
    72  H    0.119410
    73  H    0.301836
    74  H    0.278273
    75  H    0.069638
    76  H    0.084008
    77  H    0.102130
    78  H    0.105012
    79  H    0.134539
    80  H    0.129105
    81  H    0.119151
    82  H    0.092479
    83  H    0.061880
    84  H    0.062774
    85  H    0.031503
    86  H    0.079697
    87  H    0.058663
    88  H    0.051570
    89  H    0.086520
    90  H    0.046355
    91  H    0.121286
    92  H    0.134490
    93  H    0.112753
    94  H    0.127239
    95  H    0.077647
    96  H    0.077360
    97  H    0.071666
    98  H    0.072224
 Sum of Mulliken charges =  -0.00000

 Dipole moment (field-independent basis, Debye):
    X=             -0.0306    Y=             -1.9830    Z=              0.4991  Tot=              2.0451
 Quadrupole moment (field-independent basis, Debye-Ang):
   XX=           -266.5753   YY=           -249.8088   ZZ=           -260.8606
   XY=             23.4385   XZ=              4.0869   YZ=             -3.5266

 Normal termination of Gaussian 16 at Thu Jul 18 08:18:52 2019.
