 Gaussian 16, Revision A.03,
 Gaussian 16:  ES64L-G16RevA.03 25-Dec-2016

 -------------------------------------
 # td=(NStates=1) CAM-B3LYP/6-31G(d,p)
 -------------------------------------

 --
 TD
 --
 Symbolic Z-matrix:
 Charge =  0 Multiplicity = 1

                         Standard orientation:
 ---------------------------------------------------------------------
 Center     Atomic      Atomic             Coordinates (Angstroms)
 Number     Number       Type             X           Y           Z
 ---------------------------------------------------------------------
      1          8           0       14.682964   -2.404262   -0.358490
      2          8           0      -14.724833    2.055184    0.804031
      3          6           0       11.173107   -1.467797    0.984150
      4          6           0      -12.355751   -1.027460    0.724130
      5          6           0       12.609649   -1.853623    0.984071
      6          6           0      -13.741362   -0.272820    0.580804
      7          6           0       13.276327   -1.968914   -0.447748
      8          6           0      -13.527425    1.295453    0.723575
      9          6           0       10.931117   -0.226693   -0.037017
     10          6           0      -11.313133   -0.375830   -0.147573
     11          6           0       13.273190   -0.574722   -1.031146
     12          6           0      -12.723907    1.712019   -0.563325
     13          6           0       11.943281    0.075738   -0.967264
     14          6           0      -11.387384    0.871672   -0.814532
     15          6           0       10.736465   -1.212824    2.381161
     16          6           0       10.278978   -2.738938    0.366174
     17          6           0      -11.963106   -1.075360    2.096728
     18          6           0      -12.706178   -2.404329    0.057421
     19          6           0        9.700635    0.371791    0.067535
     20          6           0       -9.962483   -1.053655   -0.291777
     21          6           0       11.690770    1.280711   -1.811841
     22          6           0      -10.450438    1.525668   -1.818742
     23          6           0        9.245854    1.737188    0.243635
     24          6           0       -8.729358   -0.602838   -0.214388
     25          6           0        8.026838    2.307774    0.263167
     26          6           0       -7.562798   -1.323075   -0.421721
     27          6           0        7.942375    3.822329    0.632009
     28          6           0       -7.546865   -2.762377   -0.736269
     29          6           0        6.954065    1.594523    0.048467
     30          6           0       -6.314797   -0.638911   -0.266906
     31          6           0        5.535583    2.156868    0.314568
     32          6           0       -5.040801   -1.154355   -0.331380
     33          6           0        4.426573    1.384078   -0.065847
     34          6           0       -3.943657   -0.348619   -0.361393
     35          6           0        3.037109    1.776402    0.146813
     36          6           0       -2.530226   -0.721964   -0.438101
     37          6           0        2.815476    3.199214    0.553062
     38          6           0       -2.241156   -2.066530   -0.962548
     39          6           0        2.162847    0.878059   -0.141917
     40          6           0       -1.554345    0.170998   -0.093738
     41          6           0        0.764360    1.005782    0.197399
     42          6           0       -0.193438    0.061144   -0.264122
     43          1           0       13.253172   -1.153405    1.569654
     44          1           0       12.733644   -2.898212    1.313362
     45          1           0      -14.414546   -0.810032    1.497461
     46          1           0      -14.325355   -0.352772   -0.286404
     47          1           0       12.730329   -2.844243   -1.085087
     48          1           0      -13.043133    1.689093    1.604148
     49          1           0       14.046155   -0.015193   -0.572610
     50          1           0       13.483448   -0.682895   -2.115029
     51          1           0      -13.308910    1.831241   -1.473382
     52          1           0      -12.552375    2.851337   -0.537168
     53          1           0       11.087257   -1.936908    3.170501
     54          1           0        9.721898   -0.942002    2.401726
     55          1           0       11.307001   -0.310988    2.791836
     56          1           0       10.682210   -2.980276   -0.652852
     57          1           0       10.283283   -3.598013    0.965307
     58          1           0        9.080362   -2.648588    0.027996
     59          1           0      -11.720584   -0.103243    2.467890
     60          1           0      -11.058347   -1.566530    2.118997
     61          1           0      -12.655639   -1.846792    2.697002
     62          1           0      -13.634887   -2.859029    0.514787
     63          1           0      -11.936373   -3.095144    0.153382
     64          1           0      -13.004875   -2.098076   -0.929142
     65          1           0        8.787815   -0.498066    0.249295
     66          1           0      -10.039896   -2.167600   -0.449547
     67          1           0       10.545222    1.410246   -2.148389
     68          1           0       12.065975    2.095115   -1.545385
     69          1           0       12.164438    1.067656   -2.795798
     70          1           0      -11.064593    2.145839   -2.698931
     71          1           0       -9.718775    1.041109   -2.337842
     72          1           0       -9.901733    2.342844   -1.267601
     73          1           0       14.474727   -3.029368    0.315602
     74          1           0      -15.224500    1.671662    1.495572
     75          1           0       10.043289    2.408014    0.174634
     76          1           0       -8.426122    0.385639   -0.011943
     77          1           0        8.880977    4.429441    0.197640
     78          1           0        7.257905    4.161659    0.018781
     79          1           0        7.783099    4.044228    1.758424
     80          1           0       -7.868308   -3.297569   -0.009909
     81          1           0       -8.421505   -3.108539   -1.441692
     82          1           0       -6.545186   -3.057262   -1.137948
     83          1           0        6.922736    0.687565   -0.327712
     84          1           0       -6.336370    0.407828   -0.087806
     85          1           0        5.463421    3.181022    0.589882
     86          1           0       -4.828340   -2.190529   -0.644695
     87          1           0        4.522388    0.341707   -0.395694
     88          1           0       -4.031790    0.761075    0.018188
     89          1           0        2.750107    3.092706    1.777371
     90          1           0        1.660578    3.455188    0.247388
     91          1           0        3.549496    4.090527    0.330843
     92          1           0       -2.716322   -2.980549   -0.504608
     93          1           0       -2.764712   -2.169006   -1.893143
     94          1           0       -1.250766   -2.275707   -0.976329
     95          1           0        2.453174    0.029953   -0.328548
     96          1           0       -1.776887    1.245093    0.019393
     97          1           0        0.496327    1.996975    0.597446
     98          1           0        0.259400   -0.690268   -0.807067
 ---------------------------------------------------------------------

 SCF Done:  E(RCAM-B3LYP) =  -1706.90580138     A.U. after   15 cycles

 Excitation energies and oscillator strengths:

 Excited State   1:      Singlet-A      2.4301 eV  510.20 nm  f=3.7386  <S**2>=0.000
     155 ->158        -0.20123
     156 ->157         0.67130
 This state for optimization and/or second-order correction.
 Total Energy, E(TD-HF/TD-DFT) =  -1706.81649726
 Copying the excited state density for this state as the 1-particle RhoCI density.

 The electronic state is 1-A.
 Alpha  occ. eigenvalues --  -19.21109 -19.20208 -10.31717 -10.30682 -10.28925
 Alpha  occ. eigenvalues --  -10.28743 -10.28717 -10.27663 -10.27533 -10.27426
 Alpha  occ. eigenvalues --  -10.27225 -10.27144 -10.27120 -10.26965 -10.26732
 Alpha  occ. eigenvalues --  -10.26728 -10.26679 -10.26639 -10.26562 -10.26507
 Alpha  occ. eigenvalues --  -10.26434 -10.26294 -10.26205 -10.26179 -10.26176
 Alpha  occ. eigenvalues --  -10.26166 -10.26144 -10.26022 -10.25898 -10.25851
 Alpha  occ. eigenvalues --  -10.25610 -10.25366 -10.25321 -10.24850 -10.24815
 Alpha  occ. eigenvalues --  -10.24771 -10.24734 -10.24579 -10.24546 -10.24242
 Alpha  occ. eigenvalues --  -10.23949 -10.23394  -1.09632  -1.09390  -0.93611
 Alpha  occ. eigenvalues --   -0.93300  -0.92982  -0.92344  -0.91493  -0.91056
 Alpha  occ. eigenvalues --   -0.87562  -0.87375  -0.86288  -0.85276  -0.84588
 Alpha  occ. eigenvalues --   -0.82899  -0.82006  -0.80095  -0.79768  -0.78548
 Alpha  occ. eigenvalues --   -0.77983  -0.77386  -0.76907  -0.76438  -0.76284
 Alpha  occ. eigenvalues --   -0.75632  -0.75101  -0.74405  -0.74005  -0.71039
 Alpha  occ. eigenvalues --   -0.69316  -0.67737  -0.66159  -0.64615  -0.64051
 Alpha  occ. eigenvalues --   -0.63830  -0.63148  -0.62844  -0.61075  -0.60667
 Alpha  occ. eigenvalues --   -0.59848  -0.59100  -0.58197  -0.57582  -0.56737
 Alpha  occ. eigenvalues --   -0.56037  -0.55705  -0.54944  -0.54558  -0.53754
 Alpha  occ. eigenvalues --   -0.53627  -0.52883  -0.52258  -0.51767  -0.51624
 Alpha  occ. eigenvalues --   -0.51228  -0.50689  -0.50124  -0.49913  -0.49560
 Alpha  occ. eigenvalues --   -0.49435  -0.49277  -0.48577  -0.48354  -0.47989
 Alpha  occ. eigenvalues --   -0.47798  -0.47418  -0.47085  -0.46922  -0.46483
 Alpha  occ. eigenvalues --   -0.46260  -0.45718  -0.45438  -0.45322  -0.45101
 Alpha  occ. eigenvalues --   -0.44977  -0.44798  -0.44671  -0.44233  -0.43663
 Alpha  occ. eigenvalues --   -0.43526  -0.42836  -0.42739  -0.42481  -0.42293
 Alpha  occ. eigenvalues --   -0.42065  -0.41864  -0.41249  -0.41229  -0.40929
 Alpha  occ. eigenvalues --   -0.40714  -0.40428  -0.39973  -0.39607  -0.39457
 Alpha  occ. eigenvalues --   -0.39195  -0.39024  -0.38667  -0.38629  -0.38319
 Alpha  occ. eigenvalues --   -0.38103  -0.37405  -0.36533  -0.36343  -0.36042
 Alpha  occ. eigenvalues --   -0.35761  -0.35229  -0.34400  -0.32269  -0.31673
 Alpha  occ. eigenvalues --   -0.31382  -0.29241  -0.28274  -0.25862  -0.22884
 Alpha  occ. eigenvalues --   -0.20209
 Alpha virt. eigenvalues --   -0.05192  -0.01853   0.01668   0.05441   0.06999
 Alpha virt. eigenvalues --    0.09073   0.11130   0.11850   0.12280   0.12590
 Alpha virt. eigenvalues --    0.12948   0.13332   0.13395   0.13634   0.13922

 Mulliken charges:
               1
     1  O   -0.548435
     2  O   -0.565632
     3  C    0.020473
     4  C   -0.016822
     5  C   -0.214368
     6  C   -0.185712
     7  C    0.127556
     8  C    0.167242
     9  C    0.077945
    10  C    0.034324
    11  C   -0.205984
    12  C   -0.247467
    13  C    0.040596
    14  C    0.075959
    15  C   -0.300195
    16  C   -0.323007
    17  C   -0.283869
    18  C   -0.300272
    19  C   -0.145965
    20  C   -0.167998
    21  C   -0.355381
    22  C   -0.354843
    23  C   -0.099695
    24  C   -0.040950
    25  C    0.100261
    26  C    0.116596
    27  C   -0.353420
    28  C   -0.372200
    29  C   -0.092369
    30  C   -0.138159
    31  C   -0.115341
    32  C   -0.063543
    33  C   -0.128051
    34  C   -0.138006
    35  C    0.160729
    36  C    0.133472
    37  C   -0.371173
    38  C   -0.384805
    39  C   -0.079497
    40  C   -0.132217
    41  C   -0.115839
    42  C   -0.085231
    43  H    0.112184
    44  H    0.080212
    45  H    0.045126
    46  H    0.114404
    47  H    0.078251
    48  H    0.088875
    49  H    0.135005
    50  H    0.110902
    51  H    0.118149
    52  H    0.097066
    53  H    0.100233
    54  H    0.118670
    55  H    0.089655
    56  H    0.102750
    57  H    0.111196
    58  H    0.075887
    59  H    0.114317
    60  H    0.114310
    61  H    0.084244
    62  H    0.091845
    63  H    0.103830
    64  H    0.118474
    65  H    0.054666
    66  H    0.064971
    67  H    0.109077
    68  H    0.132623
    69  H    0.086205
    70  H    0.083555
    71  H    0.136115
    72  H    0.119452
    73  H    0.300828
    74  H    0.301220
    75  H    0.068980
    76  H    0.072963
    77  H    0.087752
    78  H    0.133905
    79  H    0.121153
    80  H    0.140664
    81  H    0.095398
    82  H    0.107490
    83  H    0.074827
    84  H    0.079763
    85  H    0.083114
    86  H    0.077413
    87  H    0.080938
    88  H    0.070216
    89  H    0.106657
    90  H    0.096106
    91  H    0.123769
    92  H    0.111427
    93  H    0.131293
    94  H    0.115278
    95  H    0.053619
    96  H    0.088144
    97  H    0.074303
    98  H    0.081826
 Sum of Mulliken charges =  -0.00000

 Dipole moment (field-independent basis, Debye):
    X=             -1.1038    Y=             -1.1384    Z=              1.0494  Tot=              1.9015
 Quadrupole moment (field-independent basis, Debye-Ang):
   XX=           -300.4607   YY=           -244.8279   ZZ=           -260.9031
   XY=             25.2887   XZ=              3.4093   YZ=             -0.4314

 Normal termination of Gaussian 16 at Fri Jul 19 11:57:45 2019.
