 Gaussian 16, Revision A.03,
 Gaussian 16:  ES64L-G16RevA.03 25-Dec-2016

 -------------------------------------
 # td=(NStates=1) CAM-B3LYP/6-31G(d,p)
 -------------------------------------

 --
 TD
 --
 Symbolic Z-matrix:
 Charge =  0 Multiplicity = 1

                         Standard orientation:
 ---------------------------------------------------------------------
 Center     Atomic      Atomic             Coordinates (Angstroms)
 Number     Number       Type             X           Y           Z
 ---------------------------------------------------------------------
      1          8           0       14.698693   -2.111074   -0.330707
      2          8           0      -14.759367    2.035342    0.863895
      3          6           0       11.204338   -1.456343    0.946023
      4          6           0      -12.414982   -0.959008    0.685917
      5          6           0       12.650111   -1.817801    0.971242
      6          6           0      -13.698659   -0.150004    0.554087
      7          6           0       13.298371   -1.854873   -0.343560
      8          6           0      -13.478194    1.235412    0.952569
      9          6           0       10.982509   -0.312105    0.063443
     10          6           0      -11.302332   -0.274737   -0.142709
     11          6           0       13.176579   -0.529879   -0.827301
     12          6           0      -12.619720    1.814436   -0.194363
     13          6           0       11.934640    0.127894   -0.787657
     14          6           0      -11.507996    1.038959   -0.551944
     15          6           0       10.719551   -1.106296    2.520547
     16          6           0       10.395212   -2.680007    0.388695
     17          6           0      -11.973066   -1.303028    2.120335
     18          6           0      -12.697872   -2.354340    0.003239
     19          6           0        9.714230    0.358979    0.222214
     20          6           0      -10.058966   -0.968386   -0.442661
     21          6           0       11.776770    1.278046   -1.828383
     22          6           0      -10.539804    1.804126   -1.473423
     23          6           0        9.365851    1.716017    0.074674
     24          6           0       -8.779764   -0.565951   -0.335749
     25          6           0        8.026894    2.287865    0.097355
     26          6           0       -7.580985   -1.302448   -0.571809
     27          6           0        8.054234    3.740201    0.532991
     28          6           0       -7.649617   -2.709737   -0.985140
     29          6           0        6.951492    1.557539   -0.068176
     30          6           0       -6.436763   -0.537232   -0.337364
     31          6           0        5.604093    1.975051    0.242360
     32          6           0       -5.136172   -1.054728   -0.579603
     33          6           0        4.554306    1.128847   -0.062258
     34          6           0       -3.941814   -0.286821   -0.424673
     35          6           0        3.153060    1.583547    0.065359
     36          6           0       -2.634788   -0.716141   -0.566240
     37          6           0        2.840769    2.986695    0.534090
     38          6           0       -2.501426   -2.176989   -0.933120
     39          6           0        2.070452    0.749387   -0.209365
     40          6           0       -1.558772    0.183728   -0.214028
     41          6           0        0.696651    0.922118   -0.110530
     42          6           0       -0.254901   -0.079498   -0.320464
     43          1           0       13.494841   -1.355473    1.808500
     44          1           0       12.495646   -2.918017    1.541995
     45          1           0      -14.218158   -0.757964    1.271980
     46          1           0      -13.964744   -0.201979   -0.433861
     47          1           0       12.828643   -2.557096   -0.917000
     48          1           0      -12.919206    1.288977    1.935554
     49          1           0       13.870901    0.197529   -0.260142
     50          1           0       13.613046   -0.569980   -1.911382
     51          1           0      -13.343960    1.839308   -1.023554
     52          1           0      -12.387196    2.801126    0.048798
     53          1           0       11.183896   -1.875932    3.293640
     54          1           0        9.673498   -1.212178    2.617766
     55          1           0       11.128357   -0.124422    2.734276
     56          1           0       10.713341   -2.678357   -0.641459
     57          1           0       10.687065   -3.604617    0.915743
     58          1           0        9.413739   -2.461297    0.399182
     59          1           0      -11.859095   -0.542996    2.787166
     60          1           0      -11.039731   -1.767292    2.027706
     61          1           0      -12.753074   -2.040261    2.631671
     62          1           0      -13.362271   -2.766222    0.458904
     63          1           0      -12.044229   -3.203781    0.056195
     64          1           0      -12.880611   -2.283424   -1.091556
     65          1           0        8.949643   -0.233122    0.376237
     66          1           0      -10.124426   -2.141456   -0.574752
     67          1           0       10.713431    1.369345   -2.272330
     68          1           0       12.094907    2.372898   -1.386715
     69          1           0       12.640841    0.912817   -2.556233
     70          1           0      -11.177814    2.452577   -2.111154
     71          1           0      -10.135473    1.192503   -2.151268
     72          1           0       -9.998905    2.638143   -0.849072
     73          1           0       14.929177   -3.102036   -0.049332
     74          1           0      -15.380415    1.498474    1.362216
     75          1           0       10.109103    2.524249    0.021961
     76          1           0       -8.602086    0.426216   -0.029869
     77          1           0        9.026745    4.257093    0.601286
     78          1           0        7.612867    4.415007   -0.197909
     79          1           0        7.604890    3.761070    1.613768
     80          1           0       -8.241322   -3.279203   -0.307152
     81          1           0       -8.050445   -3.009849   -2.160869
     82          1           0       -6.615616   -3.301323   -0.839690
     83          1           0        7.098049    0.399174   -0.406220
     84          1           0       -6.512767    0.566725    0.049758
     85          1           0        5.870541    2.932414    0.513692
     86          1           0       -5.009052   -2.078636   -1.136200
     87          1           0        4.737965    0.302340   -0.225249
     88          1           0       -4.143659    0.748204    0.073296
     89          1           0        3.702288    3.389006    1.337924
     90          1           0        1.748361    2.962688    1.023711
     91          1           0        3.088058    3.806839   -0.251452
     92          1           0       -2.568854   -2.718549    0.122584
     93          1           0       -3.092024   -2.462040   -1.759144
     94          1           0       -1.327177   -2.293178   -1.493670
     95          1           0        2.460471   -0.281483   -0.708655
     96          1           0       -1.799544    0.994601    0.005022
     97          1           0        0.222281    1.663376    0.411565
     98          1           0       -0.096454   -1.039665   -0.549438
 ---------------------------------------------------------------------

 SCF Done:  E(RCAM-B3LYP) =  -1706.79515143     A.U. after   15 cycles

 Excitation energies and oscillator strengths:

 Excited State   1:      Singlet-A      1.9864 eV  624.18 nm  f=3.7957  <S**2>=0.000
     155 ->158        -0.13874
     156 ->157         0.69630
     156 <-157        -0.10595
 This state for optimization and/or second-order correction.
 Total Energy, E(TD-HF/TD-DFT) =  -1706.72215411
 Copying the excited state density for this state as the 1-particle RhoCI density.

 The electronic state is 1-A.
 Alpha  occ. eigenvalues --  -19.21727 -19.20920 -10.30457 -10.28919 -10.28207
 Alpha  occ. eigenvalues --  -10.27915 -10.27824 -10.27789 -10.27699 -10.27579
 Alpha  occ. eigenvalues --  -10.27539 -10.27449 -10.27436 -10.27376 -10.27246
 Alpha  occ. eigenvalues --  -10.26900 -10.26754 -10.26696 -10.26563 -10.26327
 Alpha  occ. eigenvalues --  -10.26148 -10.26032 -10.25998 -10.25893 -10.25881
 Alpha  occ. eigenvalues --  -10.25777 -10.25769 -10.25623 -10.25440 -10.25173
 Alpha  occ. eigenvalues --  -10.24917 -10.24886 -10.24793 -10.24772 -10.24738
 Alpha  occ. eigenvalues --  -10.24613 -10.24559 -10.24099 -10.23862 -10.23832
 Alpha  occ. eigenvalues --  -10.23713 -10.22667  -1.08290  -1.07145  -0.95372
 Alpha  occ. eigenvalues --   -0.94458  -0.92610  -0.91984  -0.91249  -0.89741
 Alpha  occ. eigenvalues --   -0.88029  -0.87705  -0.87275  -0.85821  -0.85196
 Alpha  occ. eigenvalues --   -0.83652  -0.81986  -0.80140  -0.79726  -0.78422
 Alpha  occ. eigenvalues --   -0.77772  -0.76553  -0.76546  -0.76362  -0.76164
 Alpha  occ. eigenvalues --   -0.75391  -0.75319  -0.74349  -0.73003  -0.71303
 Alpha  occ. eigenvalues --   -0.69772  -0.67838  -0.66532  -0.65680  -0.65191
 Alpha  occ. eigenvalues --   -0.64418  -0.63635  -0.63131  -0.60953  -0.60010
 Alpha  occ. eigenvalues --   -0.59466  -0.59060  -0.58158  -0.57429  -0.56645
 Alpha  occ. eigenvalues --   -0.56273  -0.55503  -0.55272  -0.54554  -0.53555
 Alpha  occ. eigenvalues --   -0.52947  -0.52578  -0.52260  -0.51720  -0.51621
 Alpha  occ. eigenvalues --   -0.50915  -0.49921  -0.49811  -0.49518  -0.49471
 Alpha  occ. eigenvalues --   -0.49105  -0.49067  -0.48933  -0.48512  -0.48059
 Alpha  occ. eigenvalues --   -0.47388  -0.47054  -0.46746  -0.46487  -0.46418
 Alpha  occ. eigenvalues --   -0.45812  -0.45590  -0.45209  -0.44942  -0.44843
 Alpha  occ. eigenvalues --   -0.44488  -0.44323  -0.43884  -0.43463  -0.43401
 Alpha  occ. eigenvalues --   -0.43318  -0.43085  -0.42767  -0.42539  -0.41873
 Alpha  occ. eigenvalues --   -0.41813  -0.41458  -0.41311  -0.41097  -0.40470
 Alpha  occ. eigenvalues --   -0.40400  -0.40258  -0.39199  -0.39052  -0.38916
 Alpha  occ. eigenvalues --   -0.38863  -0.38681  -0.38635  -0.38379  -0.38166
 Alpha  occ. eigenvalues --   -0.38054  -0.37122  -0.37018  -0.36669  -0.36252
 Alpha  occ. eigenvalues --   -0.35255  -0.34529  -0.33475  -0.33002  -0.32496
 Alpha  occ. eigenvalues --   -0.31987  -0.29752  -0.28013  -0.25414  -0.23200
 Alpha  occ. eigenvalues --   -0.18528
 Alpha virt. eigenvalues --   -0.06510  -0.01038   0.02293   0.05594   0.07688
 Alpha virt. eigenvalues --    0.09981   0.10977   0.11448   0.11804   0.11941
 Alpha virt. eigenvalues --    0.12642   0.12932   0.13180   0.13333   0.13831

 Mulliken charges:
               1
     1  O   -0.581520
     2  O   -0.570265
     3  C   -0.040497
     4  C   -0.056474
     5  C   -0.184394
     6  C   -0.163192
     7  C    0.203930
     8  C    0.135615
     9  C    0.072170
    10  C    0.080965
    11  C   -0.232576
    12  C   -0.235615
    13  C    0.073414
    14  C    0.046380
    15  C   -0.306112
    16  C   -0.294277
    17  C   -0.299187
    18  C   -0.291684
    19  C   -0.092080
    20  C   -0.170246
    21  C   -0.332730
    22  C   -0.351440
    23  C   -0.114557
    24  C   -0.071203
    25  C    0.089112
    26  C    0.144811
    27  C   -0.394466
    28  C   -0.373968
    29  C   -0.132570
    30  C   -0.127987
    31  C   -0.060873
    32  C   -0.105563
    33  C   -0.027911
    34  C   -0.116399
    35  C    0.109440
    36  C    0.070419
    37  C   -0.361023
    38  C   -0.355256
    39  C   -0.123953
    40  C   -0.027624
    41  C   -0.100240
    42  C   -0.034330
    43  H    0.077050
    44  H    0.037146
    45  H    0.084120
    46  H    0.112456
    47  H    0.093317
    48  H    0.086266
    49  H    0.125983
    50  H    0.093788
    51  H    0.129465
    52  H    0.115590
    53  H    0.081179
    54  H    0.109670
    55  H    0.120589
    56  H    0.105117
    57  H    0.103305
    58  H    0.112561
    59  H    0.110213
    60  H    0.122362
    61  H    0.074842
    62  H    0.096738
    63  H    0.094477
    64  H    0.098486
    65  H    0.065651
    66  H    0.062707
    67  H    0.128088
    68  H    0.096774
    69  H    0.088995
    70  H    0.098998
    71  H    0.131186
    72  H    0.108748
    73  H    0.306585
    74  H    0.301980
    75  H    0.072748
    76  H    0.075084
    77  H    0.115498
    78  H    0.127683
    79  H    0.122385
    80  H    0.134806
    81  H    0.098359
    82  H    0.094140
    83  H    0.060683
    84  H    0.094436
    85  H    0.080967
    86  H    0.083596
    87  H    0.026391
    88  H    0.070134
    89  H    0.084605
    90  H    0.104864
    91  H    0.121547
    92  H    0.134058
    93  H    0.138006
    94  H    0.064468
    95  H    0.064598
    96  H    0.014849
    97  H    0.084427
    98  H    0.061191
 Sum of Mulliken charges =  -0.00000

 Dipole moment (field-independent basis, Debye):
    X=             -0.2148    Y=             -2.5688    Z=              1.1483  Tot=              2.8220
 Quadrupole moment (field-independent basis, Debye-Ang):
   XX=           -269.4258   YY=           -242.2340   ZZ=           -262.0703
   XY=             15.1418   XZ=             -5.8975   YZ=              2.3776

 Normal termination of Gaussian 16 at Mon Jul  8 19:44:27 2019.
