 Gaussian 16, Revision A.03,
 Gaussian 16:  ES64L-G16RevA.03 25-Dec-2016

 -------------------------------------
 # td=(NStates=1) CAM-B3LYP/6-31G(d,p)
 -------------------------------------

 --
 TD
 --
 Symbolic Z-matrix:
 Charge =  0 Multiplicity = 1

                         Standard orientation:
 ---------------------------------------------------------------------
 Center     Atomic      Atomic             Coordinates (Angstroms)
 Number     Number       Type             X           Y           Z
 ---------------------------------------------------------------------
      1          8           0       14.748720   -2.039587    0.104758
      2          8           0      -14.523506    2.075093    1.430822
      3          6           0       11.173146   -1.391995    1.142725
      4          6           0      -12.228805   -0.860439    0.876675
      5          6           0       12.712349   -1.693537    1.270161
      6          6           0      -13.602993   -0.231017    1.116925
      7          6           0       13.375536   -1.868285   -0.099555
      8          6           0      -13.309997    1.285628    1.228085
      9          6           0       10.961734   -0.247078    0.159625
     10          6           0      -11.324422   -0.141872   -0.062205
     11          6           0       13.129350   -0.582777   -0.971098
     12          6           0      -12.692092    1.860646   -0.044223
     13          6           0       11.813645    0.088867   -0.799687
     14          6           0      -11.443033    1.145955   -0.524753
     15          6           0       10.708285   -0.947500    2.599890
     16          6           0       10.365353   -2.608883    0.695311
     17          6           0      -11.421901   -1.148773    2.141123
     18          6           0      -12.749239   -2.230039    0.228783
     19          6           0        9.610048    0.487432    0.385957
     20          6           0      -10.048928   -0.855488   -0.503677
     21          6           0       11.540471    1.108485   -1.876153
     22          6           0      -10.812145    1.801855   -1.588110
     23          6           0        9.420593    1.764778    0.235641
     24          6           0       -8.711453   -0.499596   -0.504128
     25          6           0        8.074068    2.358510    0.234121
     26          6           0       -7.530498   -1.265592   -0.629358
     27          6           0        8.054890    3.861744    0.396513
     28          6           0       -7.709971   -2.774108   -0.895042
     29          6           0        6.876496    1.649856    0.044602
     30          6           0       -6.322789   -0.704057   -0.763913
     31          6           0        5.549728    2.137123    0.198637
     32          6           0       -5.036806   -1.365034   -0.738140
     33          6           0        4.462810    1.262846   -0.236118
     34          6           0       -3.927403   -0.689207   -0.627831
     35          6           0        3.043957    1.693863   -0.233903
     36          6           0       -2.580928   -1.063968   -0.892809
     37          6           0        2.556673    3.008139    0.371553
     38          6           0       -2.338434   -2.559863   -1.175107
     39          6           0        2.088427    0.675675   -0.672643
     40          6           0       -1.573318   -0.116978   -0.823003
     41          6           0        0.707201    0.816752   -0.622661
     42          6           0       -0.202754   -0.242830   -0.879802
     43          1           0       13.136769   -1.035796    1.870657
     44          1           0       12.711242   -2.557831    1.883535
     45          1           0      -13.969514   -0.580987    2.126156
     46          1           0      -14.426451   -0.470860    0.196534
     47          1           0       12.756896   -2.641854   -0.561577
     48          1           0      -12.662605    1.481222    2.223530
     49          1           0       13.968519   -0.028489   -0.567297
     50          1           0       13.279699   -0.669445   -1.975353
     51          1           0      -13.434713    2.015447   -0.895017
     52          1           0      -12.440324    2.939468    0.124316
     53          1           0       11.010581   -1.599029    3.550006
     54          1           0        9.580777   -0.755530    2.650428
     55          1           0       11.062038   -0.030492    2.781039
     56          1           0       10.534094   -2.930687   -0.235990
     57          1           0       10.651317   -3.553803    1.380662
     58          1           0        9.250844   -2.475703    0.727642
     59          1           0      -11.213892   -0.213182    2.763934
     60          1           0      -10.473681   -1.479956    2.132885
     61          1           0      -12.124678   -1.724612    2.926080
     62          1           0      -13.685378   -2.563551    0.701981
     63          1           0      -12.246579   -3.150776    0.181279
     64          1           0      -13.383289   -1.798270   -0.759409
     65          1           0        8.784636   -0.096492    0.802314
     66          1           0      -10.396382   -1.940903   -0.572735
     67          1           0       10.507067    1.328203   -1.954420
     68          1           0       11.734883    2.106600   -1.597720
     69          1           0       12.280091    0.631389   -2.767938
     70          1           0      -11.531978    2.129458   -2.355968
     71          1           0       -9.937517    1.292937   -2.047352
     72          1           0      -10.274069    2.689796   -1.209303
     73          1           0       14.857776   -2.968714    0.379345
     74          1           0      -15.034430    1.763537    2.138727
     75          1           0       10.299099    2.299309   -0.072247
     76          1           0       -8.595039    0.486631   -0.334833
     77          1           0        9.077408    4.337425    0.624075
     78          1           0        7.542355    4.408257   -0.449609
     79          1           0        7.385559    3.989430    1.139647
     80          1           0       -8.266987   -3.393831   -0.061595
     81          1           0       -8.363836   -2.965996   -1.723704
     82          1           0       -6.837790   -3.235599   -1.249958
     83          1           0        6.976226    0.616405   -0.212283
     84          1           0       -6.593144    0.344043   -0.638875
     85          1           0        5.255979    3.184634    0.560095
     86          1           0       -4.903199   -2.363397   -1.187021
     87          1           0        4.731926    0.251727   -0.692949
     88          1           0       -4.115749    0.425249   -0.456439
     89          1           0        2.828772    3.415036    1.485341
     90          1           0        1.615278    3.018823    0.598325
     91          1           0        3.134308    3.817684   -0.272922
     92          1           0       -2.265605   -3.105472   -0.154948
     93          1           0       -3.191072   -2.826635   -2.105042
     94          1           0       -1.367006   -2.536797   -1.493362
     95          1           0        2.633751   -0.270929   -1.115067
     96          1           0       -1.944618    0.854995   -0.467703
     97          1           0        0.201442    1.765171   -0.139763
     98          1           0        0.147395   -1.426727   -0.879217
 ---------------------------------------------------------------------

 SCF Done:  E(RCAM-B3LYP) =  -1706.92626340     A.U. after   15 cycles

 Excitation energies and oscillator strengths:

 Excited State   1:      Singlet-A      2.1452 eV  577.95 nm  f=3.4421  <S**2>=0.000
     155 ->158        -0.13390
     156 ->157         0.69546
 This state for optimization and/or second-order correction.
 Total Energy, E(TD-HF/TD-DFT) =  -1706.84742721
 Copying the excited state density for this state as the 1-particle RhoCI density.

 The electronic state is 1-A.
 Alpha  occ. eigenvalues --  -19.22232 -19.19672 -10.31564 -10.30664 -10.29328
 Alpha  occ. eigenvalues --  -10.28719 -10.28229 -10.28185 -10.28107 -10.27992
 Alpha  occ. eigenvalues --  -10.27974 -10.27702 -10.27563 -10.27480 -10.27357
 Alpha  occ. eigenvalues --  -10.27315 -10.27179 -10.26669 -10.26426 -10.26246
 Alpha  occ. eigenvalues --  -10.26103 -10.26014 -10.25962 -10.25928 -10.25896
 Alpha  occ. eigenvalues --  -10.25746 -10.25708 -10.25654 -10.25636 -10.25534
 Alpha  occ. eigenvalues --  -10.25420 -10.25397 -10.25298 -10.25172 -10.25166
 Alpha  occ. eigenvalues --  -10.25164 -10.24880 -10.24701 -10.24683 -10.24572
 Alpha  occ. eigenvalues --  -10.24323 -10.23011  -1.10792  -1.07985  -0.93896
 Alpha  occ. eigenvalues --   -0.93396  -0.92234  -0.90904  -0.90558  -0.89452
 Alpha  occ. eigenvalues --   -0.88028  -0.87139  -0.86836  -0.85374  -0.84061
 Alpha  occ. eigenvalues --   -0.82833  -0.81805  -0.80431  -0.79842  -0.78309
 Alpha  occ. eigenvalues --   -0.77205  -0.76886  -0.76564  -0.76372  -0.76104
 Alpha  occ. eigenvalues --   -0.75970  -0.75599  -0.74519  -0.73233  -0.70500
 Alpha  occ. eigenvalues --   -0.68545  -0.67594  -0.66058  -0.65031  -0.64805
 Alpha  occ. eigenvalues --   -0.64028  -0.62845  -0.60708  -0.60539  -0.60082
 Alpha  occ. eigenvalues --   -0.59828  -0.59044  -0.58165  -0.56893  -0.55860
 Alpha  occ. eigenvalues --   -0.55761  -0.55592  -0.55034  -0.54669  -0.53845
 Alpha  occ. eigenvalues --   -0.53449  -0.52901  -0.52187  -0.51817  -0.51102
 Alpha  occ. eigenvalues --   -0.51075  -0.50122  -0.49478  -0.49405  -0.48925
 Alpha  occ. eigenvalues --   -0.48497  -0.48372  -0.48336  -0.47855  -0.47604
 Alpha  occ. eigenvalues --   -0.47564  -0.46784  -0.46523  -0.46200  -0.45964
 Alpha  occ. eigenvalues --   -0.45681  -0.45375  -0.44993  -0.44700  -0.44593
 Alpha  occ. eigenvalues --   -0.44406  -0.44109  -0.43896  -0.43486  -0.43454
 Alpha  occ. eigenvalues --   -0.43370  -0.42568  -0.42413  -0.42343  -0.42177
 Alpha  occ. eigenvalues --   -0.42017  -0.41711  -0.41264  -0.41075  -0.40701
 Alpha  occ. eigenvalues --   -0.40557  -0.40488  -0.39888  -0.39865  -0.39618
 Alpha  occ. eigenvalues --   -0.38908  -0.38660  -0.38605  -0.38070  -0.37797
 Alpha  occ. eigenvalues --   -0.37699  -0.37049  -0.36966  -0.36184  -0.35945
 Alpha  occ. eigenvalues --   -0.35541  -0.34970  -0.34199  -0.32359  -0.31832
 Alpha  occ. eigenvalues --   -0.31212  -0.29486  -0.28339  -0.26137  -0.23726
 Alpha  occ. eigenvalues --   -0.19306
 Alpha virt. eigenvalues --   -0.06190  -0.00651   0.02086   0.05758   0.07611
 Alpha virt. eigenvalues --    0.09108   0.10114   0.11422   0.11438   0.12098
 Alpha virt. eigenvalues --    0.12210   0.12464   0.12844   0.13062   0.13444

 Mulliken charges:
               1
     1  O   -0.547192
     2  O   -0.574650
     3  C   -0.036272
     4  C    0.007633
     5  C   -0.167738
     6  C   -0.189260
     7  C    0.140256
     8  C    0.165166
     9  C    0.049436
    10  C    0.060267
    11  C   -0.227419
    12  C   -0.224985
    13  C    0.054949
    14  C    0.094340
    15  C   -0.311584
    16  C   -0.288540
    17  C   -0.301277
    18  C   -0.315961
    19  C   -0.102202
    20  C   -0.143928
    21  C   -0.359962
    22  C   -0.381025
    23  C   -0.104032
    24  C   -0.098299
    25  C    0.059762
    26  C    0.142089
    27  C   -0.374903
    28  C   -0.374241
    29  C   -0.110585
    30  C   -0.139189
    31  C   -0.095920
    32  C   -0.097402
    33  C   -0.125263
    34  C   -0.075861
    35  C    0.086809
    36  C    0.066874
    37  C   -0.340628
    38  C   -0.345516
    39  C   -0.113956
    40  C   -0.101893
    41  C   -0.109388
    42  C   -0.090253
    43  H    0.105558
    44  H    0.079655
    45  H    0.092583
    46  H    0.090322
    47  H    0.082954
    48  H    0.073549
    49  H    0.132810
    50  H    0.102118
    51  H    0.111426
    52  H    0.105136
    53  H    0.082017
    54  H    0.089162
    55  H    0.122819
    56  H    0.114172
    57  H    0.074139
    58  H    0.097640
    59  H    0.092253
    60  H    0.134133
    61  H    0.074797
    62  H    0.106354
    63  H    0.108694
    64  H    0.080062
    65  H    0.088894
    66  H    0.069191
    67  H    0.131171
    68  H    0.128085
    69  H    0.080076
    70  H    0.119484
    71  H    0.115225
    72  H    0.113205
    73  H    0.312455
    74  H    0.293981
    75  H    0.080791
    76  H    0.070071
    77  H    0.104539
    78  H    0.116149
    79  H    0.135696
    80  H    0.095797
    81  H    0.122283
    82  H    0.108027
    83  H    0.083889
    84  H    0.073506
    85  H    0.092319
    86  H    0.084563
    87  H    0.090619
    88  H    0.070781
    89  H    0.092162
    90  H    0.118675
    91  H    0.117316
    92  H    0.127481
    93  H    0.096926
    94  H    0.118351
    95  H    0.089367
    96  H    0.076332
    97  H    0.096009
    98  H    0.075972
 Sum of Mulliken charges =  -0.00000

 Dipole moment (field-independent basis, Debye):
    X=              0.6101    Y=             -1.6035    Z=              1.4113  Tot=              2.2215
 Quadrupole moment (field-independent basis, Debye-Ang):
   XX=           -264.7145   YY=           -244.8032   ZZ=           -261.1674
   XY=              3.6548   XZ=             -9.6131   YZ=              1.4273

 Normal termination of Gaussian 16 at Wed Jul 17 15:55:08 2019.
