 Gaussian 16, Revision A.03,
 Gaussian 16:  ES64L-G16RevA.03 25-Dec-2016

 -------------------------------------
 # td=(NStates=1) CAM-B3LYP/6-31G(d,p)
 -------------------------------------

 --
 TD
 --
 Symbolic Z-matrix:
 Charge =  0 Multiplicity = 1

                         Standard orientation:
 ---------------------------------------------------------------------
 Center     Atomic      Atomic             Coordinates (Angstroms)
 Number     Number       Type             X           Y           Z
 ---------------------------------------------------------------------
      1          8           0       14.668385   -2.314027   -0.118792
      2          8           0      -14.695341    1.901635    1.093165
      3          6           0       11.091601   -1.336328    1.055230
      4          6           0      -12.301282   -1.028240    0.620472
      5          6           0       12.619753   -1.786338    1.151762
      6          6           0      -13.641137   -0.215482    0.590991
      7          6           0       13.408640   -1.911763   -0.253859
      8          6           0      -13.477949    1.220666    0.988864
      9          6           0       10.810380   -0.232413    0.007828
     10          6           0      -11.206737   -0.128224   -0.095910
     11          6           0       13.214403   -0.485389   -0.869082
     12          6           0      -12.661208    2.004009   -0.115365
     13          6           0       11.913372    0.082080   -0.781661
     14          6           0      -11.349218    1.171978   -0.391632
     15          6           0       10.633291   -1.077551    2.505279
     16          6           0       10.198581   -2.501848    0.509328
     17          6           0      -11.876052   -1.266053    1.989343
     18          6           0      -12.682855   -2.266711   -0.180304
     19          6           0        9.595037    0.397438    0.184786
     20          6           0      -10.018614   -0.939684   -0.426532
     21          6           0       11.751726    1.243927   -1.771122
     22          6           0      -10.346904    2.037378   -1.260563
     23          6           0        9.297233    1.779393    0.124231
     24          6           0       -8.758647   -0.492813   -0.280300
     25          6           0        8.038985    2.385886    0.105178
     26          6           0       -7.516131   -1.285301   -0.550002
     27          6           0        8.001023    3.844991    0.498349
     28          6           0       -7.601453   -2.670494   -1.160160
     29          6           0        6.870557    1.626333   -0.048359
     30          6           0       -6.226417   -0.728262   -0.371926
     31          6           0        5.539800    2.052878    0.164363
     32          6           0       -4.996051   -1.322497   -0.668173
     33          6           0        4.406458    1.177174   -0.165203
     34          6           0       -4.003765   -0.520825   -0.473399
     35          6           0        3.140411    1.631424   -0.019839
     36          6           0       -2.608656   -0.932297   -0.568822
     37          6           0        2.723952    3.025367    0.285909
     38          6           0       -2.296916   -2.393477   -0.806323
     39          6           0        2.079169    0.725938   -0.318087
     40          6           0       -1.642876   -0.012144   -0.371580
     41          6           0        0.700468    0.903033   -0.184192
     42          6           0       -0.231123   -0.177237   -0.438992
     43          1           0       13.128404   -1.082171    1.757714
     44          1           0       12.575162   -2.862098    1.408474
     45          1           0      -14.179311   -0.691305    1.524986
     46          1           0      -14.402703   -0.393609   -0.262192
     47          1           0       12.877585   -2.610798   -0.760230
     48          1           0      -13.042548    1.304438    1.956877
     49          1           0       13.925253    0.321098   -0.375061
     50          1           0       13.427034   -0.706220   -1.942337
     51          1           0      -13.201345    2.005670   -1.075938
     52          1           0      -12.144461    3.015264    0.258086
     53          1           0       10.920756   -1.988102    3.226499
     54          1           0        9.675227   -0.933138    2.580835
     55          1           0       11.318085   -0.229089    2.946252
     56          1           0       10.778455   -2.893555   -0.490054
     57          1           0       10.290084   -3.419322    1.335841
     58          1           0        9.156917   -2.283414    0.456723
     59          1           0      -11.422791   -0.506585    2.625270
     60          1           0      -10.971475   -1.791541    1.980487
     61          1           0      -12.798757   -1.813017    2.397735
     62          1           0      -13.504239   -2.972861    0.506675
     63          1           0      -11.990964   -3.002536   -0.305684
     64          1           0      -13.126742   -1.977738   -1.037609
     65          1           0        8.600058   -0.158477    0.446461
     66          1           0      -10.117238   -1.993662   -0.823112
     67          1           0       10.703341    1.651214   -1.957544
     68          1           0       12.333356    2.159437   -1.537143
     69          1           0       12.296228    0.953904   -2.652668
     70          1           0      -10.850251    2.865386   -2.109533
     71          1           0       -9.732095    1.160650   -1.899412
     72          1           0       -9.635812    2.561945   -0.699059
     73          1           0       14.627479   -3.414466   -0.063638
     74          1           0      -15.204083    1.585885    1.987098
     75          1           0       10.089212    2.553530    0.025543
     76          1           0       -8.333502    0.423669    0.013201
     77          1           0        8.850434    4.327142    0.546713
     78          1           0        7.332890    4.464202   -0.104162
     79          1           0        7.616435    3.931203    1.411659
     80          1           0       -7.790374   -3.409119   -0.236580
     81          1           0       -8.515732   -2.576526   -1.798327
     82          1           0       -6.509090   -3.246246   -1.552966
     83          1           0        6.977304    0.593699   -0.356935
     84          1           0       -6.396388    0.292723    0.034315
     85          1           0        5.216356    3.089815    0.545180
     86          1           0       -5.021112   -2.482048   -0.904918
     87          1           0        4.493384    0.142222   -0.528521
     88          1           0       -4.195534    0.466243   -0.278356
     89          1           0        3.231350    3.154926    1.189063
     90          1           0        1.698452    3.026805    0.436242
     91          1           0        3.102873    3.852633   -0.212727
     92          1           0       -2.618302   -3.079870   -0.152269
     93          1           0       -2.635493   -2.630749   -1.741956
     94          1           0       -1.316251   -2.584557   -1.001501
     95          1           0        2.414987   -0.261844   -0.637452
     96          1           0       -1.822207    1.024426   -0.128876
     97          1           0        0.403330    1.905612   -0.172518
     98          1           0        0.088925   -1.131062   -0.856789
 ---------------------------------------------------------------------

 SCF Done:  E(RCAM-B3LYP) =  -1706.89510412     A.U. after   15 cycles

 Excitation energies and oscillator strengths:

 Excited State   1:      Singlet-A      1.9148 eV  647.50 nm  f=3.4223  <S**2>=0.000
     155 ->158        -0.13540
     156 ->157         0.69826
     156 <-157        -0.11325
 This state for optimization and/or second-order correction.
 Total Energy, E(TD-HF/TD-DFT) =  -1706.82473647
 Copying the excited state density for this state as the 1-particle RhoCI density.

 The electronic state is 1-A.
 Alpha  occ. eigenvalues --  -19.23200 -19.20927 -10.29716 -10.29617 -10.28072
 Alpha  occ. eigenvalues --  -10.27620 -10.27556 -10.27479 -10.27086 -10.27058
 Alpha  occ. eigenvalues --  -10.27038 -10.27003 -10.26951 -10.26816 -10.26723
 Alpha  occ. eigenvalues --  -10.26706 -10.26647 -10.26631 -10.26595 -10.26517
 Alpha  occ. eigenvalues --  -10.26459 -10.26397 -10.26324 -10.26244 -10.26235
 Alpha  occ. eigenvalues --  -10.26071 -10.25868 -10.25866 -10.25839 -10.25739
 Alpha  occ. eigenvalues --  -10.25714 -10.25553 -10.25474 -10.25001 -10.24978
 Alpha  occ. eigenvalues --  -10.24529 -10.24483 -10.24224 -10.24088 -10.23737
 Alpha  occ. eigenvalues --  -10.23278 -10.23005  -1.11558  -1.07802  -0.93317
 Alpha  occ. eigenvalues --   -0.93086  -0.92743  -0.92097  -0.90379  -0.89820
 Alpha  occ. eigenvalues --   -0.87635  -0.86760  -0.86174  -0.85155  -0.84203
 Alpha  occ. eigenvalues --   -0.82757  -0.82136  -0.79771  -0.79532  -0.79016
 Alpha  occ. eigenvalues --   -0.78050  -0.77910  -0.76534  -0.75695  -0.75058
 Alpha  occ. eigenvalues --   -0.74530  -0.74191  -0.73849  -0.72912  -0.70830
 Alpha  occ. eigenvalues --   -0.69043  -0.67224  -0.65799  -0.65146  -0.63738
 Alpha  occ. eigenvalues --   -0.62955  -0.62382  -0.61951  -0.61614  -0.60330
 Alpha  occ. eigenvalues --   -0.59920  -0.58881  -0.58279  -0.57728  -0.56492
 Alpha  occ. eigenvalues --   -0.56101  -0.55829  -0.54720  -0.54330  -0.53807
 Alpha  occ. eigenvalues --   -0.53327  -0.53138  -0.52463  -0.51850  -0.50961
 Alpha  occ. eigenvalues --   -0.50622  -0.50444  -0.50183  -0.49532  -0.49257
 Alpha  occ. eigenvalues --   -0.48819  -0.48577  -0.48474  -0.48247  -0.47978
 Alpha  occ. eigenvalues --   -0.47898  -0.47793  -0.46789  -0.46474  -0.45908
 Alpha  occ. eigenvalues --   -0.45768  -0.45590  -0.45432  -0.44931  -0.44862
 Alpha  occ. eigenvalues --   -0.44660  -0.44451  -0.43877  -0.43716  -0.43520
 Alpha  occ. eigenvalues --   -0.43421  -0.43253  -0.42695  -0.42523  -0.42328
 Alpha  occ. eigenvalues --   -0.42085  -0.41724  -0.41434  -0.41356  -0.41203
 Alpha  occ. eigenvalues --   -0.40732  -0.40536  -0.39627  -0.39074  -0.38710
 Alpha  occ. eigenvalues --   -0.38454  -0.38323  -0.38092  -0.38043  -0.37715
 Alpha  occ. eigenvalues --   -0.37642  -0.37370  -0.37090  -0.36197  -0.36086
 Alpha  occ. eigenvalues --   -0.35649  -0.33955  -0.32736  -0.31780  -0.31229
 Alpha  occ. eigenvalues --   -0.29808  -0.29399  -0.28265  -0.25797  -0.23065
 Alpha  occ. eigenvalues --   -0.18318
 Alpha virt. eigenvalues --   -0.06527  -0.01062   0.02059   0.05799   0.07764
 Alpha virt. eigenvalues --    0.07923   0.09805   0.10183   0.10611   0.11547
 Alpha virt. eigenvalues --    0.12120   0.12264   0.13164   0.13448   0.14057

 Mulliken charges:
               1
     1  O   -0.537958
     2  O   -0.569515
     3  C   -0.028784
     4  C   -0.005565
     5  C   -0.196068
     6  C   -0.186983
     7  C    0.184215
     8  C    0.185480
     9  C    0.112646
    10  C    0.059413
    11  C   -0.246332
    12  C   -0.198142
    13  C    0.063064
    14  C    0.013250
    15  C   -0.271419
    16  C   -0.285707
    17  C   -0.287488
    18  C   -0.281295
    19  C   -0.139435
    20  C   -0.172629
    21  C   -0.365564
    22  C   -0.346648
    23  C   -0.115926
    24  C   -0.034977
    25  C    0.086794
    26  C    0.060279
    27  C   -0.370957
    28  C   -0.355063
    29  C   -0.123620
    30  C   -0.135946
    31  C   -0.118699
    32  C   -0.053720
    33  C   -0.114580
    34  C   -0.082242
    35  C    0.125828
    36  C    0.079182
    37  C   -0.369594
    38  C   -0.371147
    39  C   -0.135068
    40  C   -0.116144
    41  C   -0.107993
    42  C   -0.096950
    43  H    0.102992
    44  H    0.069247
    45  H    0.050910
    46  H    0.100127
    47  H    0.071459
    48  H    0.082666
    49  H    0.117818
    50  H    0.110473
    51  H    0.126451
    52  H    0.097714
    53  H    0.081055
    54  H    0.107692
    55  H    0.085157
    56  H    0.078306
    57  H    0.057647
    58  H    0.115374
    59  H    0.109571
    60  H    0.111332
    61  H    0.091458
    62  H    0.054395
    63  H    0.108641
    64  H    0.123596
    65  H    0.084125
    66  H    0.095099
    67  H    0.118898
    68  H    0.105274
    69  H    0.097914
    70  H    0.079237
    71  H    0.097662
    72  H    0.129330
    73  H    0.317164
    74  H    0.297443
    75  H    0.079609
    76  H    0.076915
    77  H    0.112655
    78  H    0.110262
    79  H    0.137738
    80  H    0.102843
    81  H    0.117136
    82  H    0.081576
    83  H    0.085178
    84  H    0.068691
    85  H    0.082796
    86  H    0.092174
    87  H    0.088562
    88  H    0.086374
    89  H    0.124429
    90  H    0.107867
    91  H    0.131145
    92  H    0.132235
    93  H    0.126275
    94  H    0.107234
    95  H    0.070558
    96  H    0.074310
    97  H    0.095148
    98  H    0.084073
 Sum of Mulliken charges =  -0.00000

 Dipole moment (field-independent basis, Debye):
    X=              0.3176    Y=             -1.8612    Z=              0.7681  Tot=              2.0384
 Quadrupole moment (field-independent basis, Debye-Ang):
   XX=           -281.2486   YY=           -239.5621   ZZ=           -262.8494
   XY=              7.4364   XZ=            -17.7631   YZ=              6.3861

 Normal termination of Gaussian 16 at Wed Jul 17 22:06:50 2019.
