 Gaussian 16, Revision A.03,
 Gaussian 16:  ES64L-G16RevA.03 25-Dec-2016

 -------------------------------------
 # td=(NStates=1) CAM-B3LYP/6-31G(d,p)
 -------------------------------------

 --
 TD
 --
 Symbolic Z-matrix:
 Charge =  0 Multiplicity = 1

                         Standard orientation:
 ---------------------------------------------------------------------
 Center     Atomic      Atomic             Coordinates (Angstroms)
 Number     Number       Type             X           Y           Z
 ---------------------------------------------------------------------
      1          8           0       14.711556   -2.276471   -0.055000
      2          8           0      -14.742631    1.899080    1.322687
      3          6           0       11.110923   -1.402020    1.017396
      4          6           0      -12.339242   -1.041759    0.537282
      5          6           0       12.544617   -1.772592    1.224261
      6          6           0      -13.670263   -0.297537    0.759393
      7          6           0       13.260881   -1.998440   -0.117971
      8          6           0      -13.508312    1.231444    1.038014
      9          6           0       10.964153   -0.286016    0.076339
     10          6           0      -11.312995   -0.151406   -0.214351
     11          6           0       13.245502   -0.632492   -0.914164
     12          6           0      -12.823513    1.730049   -0.118157
     13          6           0       11.901792    0.063538   -0.792454
     14          6           0      -11.443334    1.165602   -0.533198
     15          6           0       10.555748   -1.094024    2.394285
     16          6           0       10.351741   -2.659559    0.494492
     17          6           0      -11.740020   -1.363631    1.946226
     18          6           0      -12.683326   -2.314620   -0.172388
     19          6           0        9.609609    0.397247    0.151231
     20          6           0      -10.048325   -0.969539   -0.372895
     21          6           0       11.815734    1.048541   -1.944943
     22          6           0      -10.536056    1.948896   -1.288618
     23          6           0        9.316698    1.697182    0.051029
     24          6           0       -8.813859   -0.513146   -0.372832
     25          6           0        8.016246    2.443441    0.135108
     26          6           0       -7.530842   -1.275760   -0.704187
     27          6           0        7.998084    3.973707    0.358583
     28          6           0       -7.680192   -2.765190   -1.156121
     29          6           0        6.863994    1.757126   -0.017125
     30          6           0       -6.330220   -0.612716   -0.550228
     31          6           0        5.533096    2.233954    0.160972
     32          6           0       -5.003490   -1.060706   -0.694222
     33          6           0        4.445552    1.279064   -0.045695
     34          6           0       -3.871865   -0.376764   -0.422006
     35          6           0        3.176699    1.668587    0.015469
     36          6           0       -2.543138   -0.813592   -0.466406
     37          6           0        2.739294    3.174319    0.356575
     38          6           0       -2.164537   -2.308927   -0.838285
     39          6           0        2.131093    0.707240   -0.161804
     40          6           0       -1.560598    0.051944   -0.305616
     41          6           0        0.718063    0.842595   -0.278766
     42          6           0       -0.146508   -0.154504   -0.417928
     43          1           0       13.310247   -1.075585    1.737865
     44          1           0       12.628741   -2.706926    1.664218
     45          1           0      -14.299159   -0.821426    1.505119
     46          1           0      -14.342392   -0.319323   -0.063910
     47          1           0       12.773295   -2.625449   -0.679536
     48          1           0      -12.804316    1.367091    1.947631
     49          1           0       13.979957    0.013668   -0.541437
     50          1           0       13.611241   -1.043099   -1.875786
     51          1           0      -13.410528    1.927875   -1.016289
     52          1           0      -12.394034    2.787405    0.103144
     53          1           0       10.567705   -1.950785    3.007945
     54          1           0        9.532850   -0.651651    2.453628
     55          1           0       11.180357   -0.229632    2.902268
     56          1           0       10.754196   -3.087971   -0.444334
     57          1           0       10.364935   -3.395894    1.253049
     58          1           0        9.431746   -2.285601    0.260478
     59          1           0      -11.508439   -0.476200    2.665456
     60          1           0      -10.714308   -1.896875    1.918853
     61          1           0      -12.401508   -2.166191    2.275764
     62          1           0      -13.762827   -2.702666    0.027387
     63          1           0      -11.845940   -2.897043   -0.065148
     64          1           0      -12.922358   -2.074119   -1.396105
     65          1           0        8.799595   -0.273351    0.368070
     66          1           0      -10.237123   -2.027287   -0.732561
     67          1           0       10.666879    1.303898   -2.221299
     68          1           0       12.242559    2.010728   -1.595840
     69          1           0       12.389090    0.524050   -2.730216
     70          1           0      -11.034655    2.565860   -1.832777
     71          1           0      -10.015488    1.203124   -1.780798
     72          1           0       -9.694482    2.511591   -0.830049
     73          1           0       14.751343   -2.973600    0.804103
     74          1           0      -15.080718    1.421701    2.061640
     75          1           0       10.159776    2.357919   -0.143470
     76          1           0       -8.710497    0.404313   -0.089871
     77          1           0        9.090969    4.107816    0.505291
     78          1           0        7.553598    4.521487   -0.433201
     79          1           0        7.407163    4.070611    1.254124
     80          1           0       -8.117825   -3.387173   -0.254864
     81          1           0       -8.347269   -2.886985   -1.709089
     82          1           0       -6.778838   -3.240852   -1.352447
     83          1           0        7.138756    0.620257   -0.124805
     84          1           0       -6.299661    0.453363   -0.302069
     85          1           0        5.160937    3.312423    0.323536
     86          1           0       -5.121436   -2.218879   -0.968985
     87          1           0        4.628582    0.216834   -0.091335
     88          1           0       -4.112144    0.612103   -0.162437
     89          1           0        3.129368    3.679899    1.245148
     90          1           0        1.657245    3.233395    0.212676
     91          1           0        3.189111    4.017929   -0.125135
     92          1           0       -2.772935   -2.784071   -0.233348
     93          1           0       -2.400443   -2.352091   -1.945933
     94          1           0       -1.089093   -2.506577   -0.730248
     95          1           0        2.347199   -0.338145   -0.556606
     96          1           0       -1.833951    1.124694    0.202245
     97          1           0        0.316554    1.847787   -0.055324
     98          1           0        0.243650   -1.100467   -0.653671
 ---------------------------------------------------------------------

 SCF Done:  E(RCAM-B3LYP) =  -1706.94584766     A.U. after   15 cycles

 Excitation energies and oscillator strengths:

 Excited State   1:      Singlet-A      2.3482 eV  528.00 nm  f=3.5888  <S**2>=0.000
     155 ->158         0.14393
     156 ->157         0.69256
 This state for optimization and/or second-order correction.
 Total Energy, E(TD-HF/TD-DFT) =  -1706.85955269
 Copying the excited state density for this state as the 1-particle RhoCI density.

 The electronic state is 1-A.
 Alpha  occ. eigenvalues --  -19.22292 -19.21240 -10.30651 -10.28708 -10.28606
 Alpha  occ. eigenvalues --  -10.28242 -10.28050 -10.27571 -10.27244 -10.27061
 Alpha  occ. eigenvalues --  -10.26931 -10.26817 -10.26807 -10.26653 -10.26547
 Alpha  occ. eigenvalues --  -10.26436 -10.26192 -10.26132 -10.26103 -10.26092
 Alpha  occ. eigenvalues --  -10.26083 -10.26069 -10.26064 -10.25981 -10.25951
 Alpha  occ. eigenvalues --  -10.25910 -10.25846 -10.25844 -10.25821 -10.25789
 Alpha  occ. eigenvalues --  -10.25633 -10.25368 -10.25353 -10.25186 -10.24890
 Alpha  occ. eigenvalues --  -10.24884 -10.24823 -10.24572 -10.24525 -10.24261
 Alpha  occ. eigenvalues --  -10.24212 -10.23164  -1.09846  -1.05830  -0.94599
 Alpha  occ. eigenvalues --   -0.93918  -0.92577  -0.91531  -0.90334  -0.89706
 Alpha  occ. eigenvalues --   -0.88547  -0.87874  -0.87314  -0.85869  -0.84814
 Alpha  occ. eigenvalues --   -0.83819  -0.81904  -0.81408  -0.80166  -0.78476
 Alpha  occ. eigenvalues --   -0.78065  -0.77267  -0.77088  -0.76946  -0.76437
 Alpha  occ. eigenvalues --   -0.75453  -0.75268  -0.75130  -0.74156  -0.71192
 Alpha  occ. eigenvalues --   -0.69104  -0.67552  -0.66341  -0.65576  -0.64609
 Alpha  occ. eigenvalues --   -0.64146  -0.63018  -0.62335  -0.61067  -0.60542
 Alpha  occ. eigenvalues --   -0.59450  -0.58610  -0.58107  -0.57461  -0.56310
 Alpha  occ. eigenvalues --   -0.56062  -0.55603  -0.54758  -0.54698  -0.54077
 Alpha  occ. eigenvalues --   -0.53261  -0.52820  -0.52384  -0.51962  -0.51380
 Alpha  occ. eigenvalues --   -0.50928  -0.50584  -0.50324  -0.49707  -0.49605
 Alpha  occ. eigenvalues --   -0.49464  -0.49264  -0.48975  -0.48480  -0.48418
 Alpha  occ. eigenvalues --   -0.48184  -0.47953  -0.47818  -0.47604  -0.46830
 Alpha  occ. eigenvalues --   -0.46350  -0.46235  -0.45839  -0.45525  -0.45404
 Alpha  occ. eigenvalues --   -0.45265  -0.44975  -0.44846  -0.44189  -0.44072
 Alpha  occ. eigenvalues --   -0.43684  -0.43525  -0.42970  -0.42348  -0.42044
 Alpha  occ. eigenvalues --   -0.41525  -0.41463  -0.41417  -0.41038  -0.40979
 Alpha  occ. eigenvalues --   -0.40544  -0.40426  -0.40205  -0.39468  -0.38967
 Alpha  occ. eigenvalues --   -0.38928  -0.38769  -0.38722  -0.38458  -0.38127
 Alpha  occ. eigenvalues --   -0.38059  -0.37421  -0.36855  -0.36534  -0.35873
 Alpha  occ. eigenvalues --   -0.35328  -0.34827  -0.33844  -0.32700  -0.32228
 Alpha  occ. eigenvalues --   -0.31563  -0.30516  -0.28287  -0.27050  -0.23921
 Alpha  occ. eigenvalues --   -0.19806
 Alpha virt. eigenvalues --   -0.05661  -0.00723   0.03528   0.05857   0.08440
 Alpha virt. eigenvalues --    0.09846   0.10402   0.11853   0.12152   0.12537
 Alpha virt. eigenvalues --    0.12721   0.13315   0.13596   0.13777   0.14099

 Mulliken charges:
               1
     1  O   -0.569205
     2  O   -0.553702
     3  C   -0.049122
     4  C    0.000955
     5  C   -0.182760
     6  C   -0.213673
     7  C    0.147580
     8  C    0.173604
     9  C    0.104600
    10  C    0.064540
    11  C   -0.232646
    12  C   -0.225471
    13  C    0.012654
    14  C    0.050085
    15  C   -0.297589
    16  C   -0.299566
    17  C   -0.300797
    18  C   -0.299052
    19  C   -0.122042
    20  C   -0.137493
    21  C   -0.346556
    22  C   -0.364469
    23  C   -0.108376
    24  C   -0.074768
    25  C    0.048822
    26  C    0.065023
    27  C   -0.356894
    28  C   -0.329885
    29  C   -0.091257
    30  C   -0.128068
    31  C   -0.117169
    32  C   -0.068962
    33  C   -0.106722
    34  C   -0.116423
    35  C    0.140724
    36  C    0.086641
    37  C   -0.382847
    38  C   -0.340906
    39  C   -0.163601
    40  C   -0.129605
    41  C   -0.069596
    42  C   -0.070571
    43  H    0.097336
    44  H    0.075999
    45  H    0.070672
    46  H    0.104021
    47  H    0.093775
    48  H    0.067198
    49  H    0.128967
    50  H    0.112393
    51  H    0.118252
    52  H    0.088199
    53  H    0.102046
    54  H    0.103697
    55  H    0.090914
    56  H    0.103695
    57  H    0.107416
    58  H    0.112102
    59  H    0.105356
    60  H    0.098650
    61  H    0.102133
    62  H    0.106991
    63  H    0.113267
    64  H    0.075221
    65  H    0.084668
    66  H    0.074003
    67  H    0.100421
    68  H    0.119361
    69  H    0.114032
    70  H    0.115574
    71  H    0.137344
    72  H    0.114975
    73  H    0.293294
    74  H    0.307315
    75  H    0.074756
    76  H    0.067622
    77  H    0.106475
    78  H    0.132891
    79  H    0.130154
    80  H    0.093883
    81  H    0.124628
    82  H    0.117583
    83  H    0.070088
    84  H    0.069820
    85  H    0.086737
    86  H    0.055915
    87  H    0.092926
    88  H    0.082670
    89  H    0.116875
    90  H    0.113172
    91  H    0.119197
    92  H    0.133982
    93  H    0.122573
    94  H    0.109519
    95  H    0.073954
    96  H    0.066699
    97  H    0.074012
    98  H    0.079151
 Sum of Mulliken charges =  -0.00000

 Dipole moment (field-independent basis, Debye):
    X=             -0.8301    Y=             -1.8210    Z=              1.3943  Tot=              2.4391
 Quadrupole moment (field-independent basis, Debye-Ang):
   XX=           -294.5401   YY=           -243.1556   ZZ=           -262.0498
   XY=             16.0266   XZ=              8.0873   YZ=             -1.3811

 Normal termination of Gaussian 16 at Thu Jul 11 19:09:44 2019.
