 Gaussian 16, Revision A.03,
 Gaussian 16:  ES64L-G16RevA.03 25-Dec-2016

 -------------------------------------
 # td=(NStates=1) CAM-B3LYP/6-31G(d,p)
 -------------------------------------

 --
 TD
 --
 Symbolic Z-matrix:
 Charge =  0 Multiplicity = 1

                         Standard orientation:
 ---------------------------------------------------------------------
 Center     Atomic      Atomic             Coordinates (Angstroms)
 Number     Number       Type             X           Y           Z
 ---------------------------------------------------------------------
      1          8           0       14.932348   -1.942458   -0.102999
      2          8           0      -14.929756    1.799450    1.011835
      3          6           0       11.357159   -1.464292    1.003111
      4          6           0      -12.342508   -0.954844    0.706849
      5          6           0       12.728142   -1.577740    1.146366
      6          6           0      -13.674670   -0.243683    0.679118
      7          6           0       13.424021   -1.761054   -0.173227
      8          6           0      -13.576611    1.252697    0.973745
      9          6           0       10.946877   -0.220463    0.028994
     10          6           0      -11.280784   -0.231451   -0.163132
     11          6           0       13.244609   -0.504732   -1.018595
     12          6           0      -12.884857    1.856125   -0.247044
     13          6           0       11.900330    0.107463   -0.880982
     14          6           0      -11.601265    1.052591   -0.642896
     15          6           0       10.713057   -1.042036    2.387298
     16          6           0       10.613744   -2.673915    0.490154
     17          6           0      -11.769861   -1.046195    2.111426
     18          6           0      -12.601011   -2.485440    0.200273
     19          6           0        9.614005    0.254173    0.006189
     20          6           0      -10.032091   -0.999026   -0.458319
     21          6           0       11.614883    1.201063   -1.829622
     22          6           0      -10.593731    1.733472   -1.518692
     23          6           0        9.355010    1.569953    0.061112
     24          6           0       -8.865727   -0.506120   -0.406315
     25          6           0        8.051606    2.280107    0.247715
     26          6           0       -7.607198   -1.152147   -0.525346
     27          6           0        7.977586    3.723085    0.581357
     28          6           0       -7.758871   -2.670761   -0.871211
     29          6           0        6.885531    1.575111    0.009855
     30          6           0       -6.438870   -0.484117   -0.465983
     31          6           0        5.564482    1.877570    0.032615
     32          6           0       -5.111893   -1.053519   -0.674220
     33          6           0        4.498406    1.140557   -0.095092
     34          6           0       -3.977365   -0.357242   -0.369275
     35          6           0        3.105760    1.524909    0.105818
     36          6           0       -2.589173   -0.805103   -0.591480
     37          6           0        2.820225    2.903426    0.661828
     38          6           0       -2.332845   -2.168532   -1.143788
     39          6           0        2.160369    0.698370   -0.142060
     40          6           0       -1.539361    0.104900   -0.295274
     41          6           0        0.761933    0.875556   -0.096720
     42          6           0       -0.205220   -0.087094   -0.431341
     43          1           0       13.148373   -0.760702    1.839858
     44          1           0       13.038915   -2.377177    1.822024
     45          1           0      -14.361259   -0.638187    1.424106
     46          1           0      -14.267910   -0.454711   -0.266841
     47          1           0       12.840596   -2.621698   -0.689520
     48          1           0      -12.865928    1.466102    1.805980
     49          1           0       13.964225    0.340064   -0.640242
     50          1           0       13.582398   -0.634184   -2.092197
     51          1           0      -13.579173    1.759557   -1.064037
     52          1           0      -12.687193    3.008565   -0.141514
     53          1           0       10.869701   -1.734367    3.335189
     54          1           0        9.587908   -1.052443    2.183942
     55          1           0       11.253923   -0.039971    2.661396
     56          1           0       11.043547   -3.011125   -0.431053
     57          1           0       10.880324   -3.438696    1.357265
     58          1           0        9.426625   -2.569767    0.368083
     59          1           0      -11.551866   -0.171754    2.603949
     60          1           0      -10.645004   -1.549419    1.910243
     61          1           0      -12.365539   -1.586598    2.622880
     62          1           0      -13.402946   -2.896882    0.768935
     63          1           0      -11.696437   -2.946242    0.309142
     64          1           0      -12.906768   -2.271726   -0.822078
     65          1           0        8.809688   -0.509880    0.155129
     66          1           0      -10.034975   -2.150902   -0.655591
     67          1           0       10.623902    1.126268   -2.270145
     68          1           0       11.878716    2.182399   -1.348714
     69          1           0       12.265137    0.870869   -2.766463
     70          1           0      -11.271857    2.187041   -2.301655
     71          1           0      -10.177220    1.014188   -2.186071
     72          1           0       -9.754961    2.430618   -0.938173
     73          1           0       14.949190   -2.817094    0.111545
     74          1           0      -15.388052    1.593107    1.870751
     75          1           0       10.097222    2.185244   -0.191051
     76          1           0       -8.448273    0.540098   -0.386939
     77          1           0        8.963307    4.257521    0.384177
     78          1           0        7.439674    4.276683   -0.127640
     79          1           0        7.491820    3.703876    1.636072
     80          1           0       -8.356093   -3.235734   -0.241053
     81          1           0       -8.225218   -2.705954   -1.956312
     82          1           0       -6.798515   -3.138425   -0.716231
     83          1           0        7.014215    0.481187   -0.546621
     84          1           0       -6.714087    0.567909   -0.261223
     85          1           0        5.537924    2.854644    0.439451
     86          1           0       -5.207526   -2.107958   -1.040110
     87          1           0        4.588507    0.080349   -0.648172
     88          1           0       -3.979767    0.776833   -0.187969
     89          1           0        3.041326    2.985214    1.794861
     90          1           0        1.822949    2.895649    0.448984
     91          1           0        3.313874    3.772718    0.249670
     92          1           0       -2.002046   -2.961009    0.076054
     93          1           0       -3.606513   -2.505333   -1.721018
     94          1           0       -1.186688   -2.255672   -1.937753
     95          1           0        2.314838   -0.234056   -0.573234
     96          1           0       -1.941455    1.034248    0.105960
     97          1           0        0.170862    1.792496    0.271917
     98          1           0        0.119902   -1.111439   -1.037865
 ---------------------------------------------------------------------

 SCF Done:  E(RCAM-B3LYP) =  -1706.84127040     A.U. after   15 cycles

 Excitation energies and oscillator strengths:

 Excited State   1:      Singlet-A      2.4465 eV  506.79 nm  f=3.5176  <S**2>=0.000
     155 ->158         0.16431
     156 ->157         0.68408
 This state for optimization and/or second-order correction.
 Total Energy, E(TD-HF/TD-DFT) =  -1706.75136401
 Copying the excited state density for this state as the 1-particle RhoCI density.

 The electronic state is 1-A.
 Alpha  occ. eigenvalues --  -19.21455 -19.21139 -10.33601 -10.31684 -10.30629
 Alpha  occ. eigenvalues --  -10.28400 -10.28017 -10.27859 -10.27806 -10.27790
 Alpha  occ. eigenvalues --  -10.27703 -10.26988 -10.26940 -10.26839 -10.26658
 Alpha  occ. eigenvalues --  -10.26657 -10.26628 -10.26622 -10.26519 -10.26508
 Alpha  occ. eigenvalues --  -10.26405 -10.26371 -10.26370 -10.26241 -10.26228
 Alpha  occ. eigenvalues --  -10.26005 -10.25982 -10.25872 -10.25698 -10.25669
 Alpha  occ. eigenvalues --  -10.25550 -10.25293 -10.25264 -10.25239 -10.25017
 Alpha  occ. eigenvalues --  -10.24973 -10.24971 -10.24894 -10.24731 -10.24568
 Alpha  occ. eigenvalues --  -10.23723 -10.23142  -1.08910  -1.07577  -0.94962
 Alpha  occ. eigenvalues --   -0.93297  -0.93208  -0.91854  -0.91355  -0.90576
 Alpha  occ. eigenvalues --   -0.88707  -0.87520  -0.86598  -0.85962  -0.85113
 Alpha  occ. eigenvalues --   -0.84127  -0.82137  -0.80785  -0.80008  -0.78279
 Alpha  occ. eigenvalues --   -0.76985  -0.76639  -0.76413  -0.76342  -0.75618
 Alpha  occ. eigenvalues --   -0.75039  -0.74661  -0.74480  -0.72900  -0.70814
 Alpha  occ. eigenvalues --   -0.69334  -0.67310  -0.66028  -0.65148  -0.63786
 Alpha  occ. eigenvalues --   -0.62705  -0.62037  -0.61223  -0.61058  -0.59298
 Alpha  occ. eigenvalues --   -0.58980  -0.58691  -0.58563  -0.57178  -0.56232
 Alpha  occ. eigenvalues --   -0.55625  -0.55141  -0.54786  -0.54164  -0.53315
 Alpha  occ. eigenvalues --   -0.53179  -0.52680  -0.52313  -0.52041  -0.51186
 Alpha  occ. eigenvalues --   -0.50773  -0.50638  -0.50088  -0.49627  -0.49551
 Alpha  occ. eigenvalues --   -0.48897  -0.48762  -0.48298  -0.48115  -0.47826
 Alpha  occ. eigenvalues --   -0.47713  -0.47384  -0.46769  -0.46583  -0.46160
 Alpha  occ. eigenvalues --   -0.46076  -0.45399  -0.45315  -0.44998  -0.44692
 Alpha  occ. eigenvalues --   -0.44489  -0.44344  -0.44253  -0.43924  -0.43511
 Alpha  occ. eigenvalues --   -0.43209  -0.42879  -0.42705  -0.42426  -0.42017
 Alpha  occ. eigenvalues --   -0.41822  -0.41360  -0.41175  -0.41080  -0.40525
 Alpha  occ. eigenvalues --   -0.39928  -0.39509  -0.39335  -0.38941  -0.38723
 Alpha  occ. eigenvalues --   -0.38572  -0.38295  -0.38202  -0.37763  -0.37681
 Alpha  occ. eigenvalues --   -0.37455  -0.37286  -0.36479  -0.36332  -0.35822
 Alpha  occ. eigenvalues --   -0.35378  -0.34950  -0.34085  -0.33217  -0.32146
 Alpha  occ. eigenvalues --   -0.31782  -0.29670  -0.28181  -0.25971  -0.23864
 Alpha  occ. eigenvalues --   -0.20521
 Alpha virt. eigenvalues --   -0.05549  -0.00899   0.02042   0.05914   0.06183
 Alpha virt. eigenvalues --    0.07196   0.09293   0.10164   0.11111   0.11518
 Alpha virt. eigenvalues --    0.11935   0.12104   0.12578   0.12842   0.13149

 Mulliken charges:
               1
     1  O   -0.547735
     2  O   -0.575153
     3  C   -0.009657
     4  C   -0.052959
     5  C   -0.175955
     6  C   -0.173278
     7  C    0.112240
     8  C    0.156290
     9  C    0.063974
    10  C    0.077024
    11  C   -0.196320
    12  C   -0.205118
    13  C    0.039531
    14  C    0.015920
    15  C   -0.284698
    16  C   -0.284835
    17  C   -0.264426
    18  C   -0.301255
    19  C   -0.114494
    20  C   -0.211782
    21  C   -0.366047
    22  C   -0.350761
    23  C   -0.066004
    24  C    0.016737
    25  C    0.054260
    26  C    0.091222
    27  C   -0.377741
    28  C   -0.379522
    29  C   -0.104118
    30  C   -0.127072
    31  C   -0.058629
    32  C   -0.109808
    33  C   -0.111958
    34  C   -0.099009
    35  C    0.126354
    36  C    0.121014
    37  C   -0.358811
    38  C   -0.283859
    39  C   -0.112501
    40  C   -0.111012
    41  C   -0.111264
    42  C   -0.076602
    43  H    0.100124
    44  H    0.086620
    45  H    0.070283
    46  H    0.095321
    47  H    0.083813
    48  H    0.091926
    49  H    0.115429
    50  H    0.107743
    51  H    0.126166
    52  H    0.096024
    53  H    0.078169
    54  H    0.098179
    55  H    0.096702
    56  H    0.108139
    57  H    0.083332
    58  H    0.095024
    59  H    0.105495
    60  H    0.069203
    61  H    0.101382
    62  H    0.103863
    63  H    0.104874
    64  H    0.106856
    65  H    0.090090
    66  H    0.094991
    67  H    0.130534
    68  H    0.122536
    69  H    0.075923
    70  H    0.093492
    71  H    0.127000
    72  H    0.100534
    73  H    0.298934
    74  H    0.308052
    75  H    0.069178
    76  H    0.061332
    77  H    0.105948
    78  H    0.137347
    79  H    0.131358
    80  H    0.127897
    81  H    0.115042
    82  H    0.100892
    83  H    0.044917
    84  H    0.074702
    85  H    0.065294
    86  H    0.098168
    87  H    0.063126
    88  H    0.093995
    89  H    0.112277
    90  H    0.115107
    91  H    0.119707
    92  H    0.055464
    93  H    0.069779
    94  H    0.083453
    95  H    0.083549
    96  H    0.077832
    97  H    0.089588
    98  H    0.065116
 Sum of Mulliken charges =  -0.00000

 Dipole moment (field-independent basis, Debye):
    X=             -0.0909    Y=             -0.7805    Z=              1.0666  Tot=              1.3248
 Quadrupole moment (field-independent basis, Debye-Ang):
   XX=           -287.7468   YY=           -246.7687   ZZ=           -260.4349
   XY=              6.6571   XZ=            -13.8459   YZ=              3.5690

 Normal termination of Gaussian 16 at Sat Jul 13 17:56:46 2019.
