 Gaussian 16, Revision A.03,
 Gaussian 16:  ES64L-G16RevA.03 25-Dec-2016

 -------------------------------------
 # td=(NStates=1) CAM-B3LYP/6-31G(d,p)
 -------------------------------------

 --
 TD
 --
 Symbolic Z-matrix:
 Charge =  0 Multiplicity = 1

                         Standard orientation:
 ---------------------------------------------------------------------
 Center     Atomic      Atomic             Coordinates (Angstroms)
 Number     Number       Type             X           Y           Z
 ---------------------------------------------------------------------
      1          8           0       14.800999   -2.051417   -0.329556
      2          8           0      -14.887177    2.038021    0.655252
      3          6           0       11.321731   -1.358888    1.006745
      4          6           0      -12.524266   -0.883436    0.531155
      5          6           0       12.862762   -1.679147    0.957793
      6          6           0      -13.779400   -0.154637    0.513789
      7          6           0       13.473748   -1.782662   -0.423240
      8          6           0      -13.643291    1.392002    0.737190
      9          6           0       10.984595   -0.203104   -0.026784
     10          6           0      -11.335000   -0.239717   -0.148880
     11          6           0       13.331852   -0.449153   -1.182225
     12          6           0      -12.734919    1.817957   -0.485094
     13          6           0       11.892892    0.109765   -1.054342
     14          6           0      -11.467222    1.056665   -0.681806
     15          6           0       10.887196   -0.973122    2.409773
     16          6           0       10.665752   -2.523643    0.621558
     17          6           0      -12.058497   -1.040537    2.011835
     18          6           0      -12.791616   -2.338070   -0.118229
     19          6           0        9.690127    0.425881    0.149511
     20          6           0      -10.071173   -0.965596   -0.344086
     21          6           0       11.655656    1.058167   -2.088922
     22          6           0      -10.416007    1.733574   -1.610586
     23          6           0        9.411448    1.764532   -0.017310
     24          6           0       -8.846996   -0.465931   -0.206767
     25          6           0        7.984303    2.334118    0.133577
     26          6           0       -7.594650   -1.228482   -0.354129
     27          6           0        7.889001    3.778925    0.493127
     28          6           0       -7.737933   -2.710949   -0.791731
     29          6           0        6.892555    1.554324    0.098112
     30          6           0       -6.337574   -0.664355   -0.317293
     31          6           0        5.566791    1.915682    0.298794
     32          6           0       -5.045955   -1.340308   -0.499184
     33          6           0        4.421941    1.118188    0.139838
     34          6           0       -3.961733   -0.597624   -0.180523
     35          6           0        3.138504    1.532377    0.205161
     36          6           0       -2.654569   -0.928026   -0.284883
     37          6           0        2.764167    2.975600    0.656090
     38          6           0       -2.265814   -2.353865   -0.890011
     39          6           0        2.093059    0.648143   -0.096089
     40          6           0       -1.624086    0.005243    0.084650
     41          6           0        0.658187    0.866791    0.163472
     42          6           0       -0.225638   -0.037926   -0.096002
     43          1           0       13.468176   -1.009610    1.610292
     44          1           0       12.950156   -2.779501    1.421227
     45          1           0      -14.481837   -0.914624    1.069822
     46          1           0      -14.081002   -0.219000   -0.617639
     47          1           0       12.915288   -2.708577   -0.868924
     48          1           0      -12.972140    1.622789    1.716978
     49          1           0       13.989870    0.329850   -0.953198
     50          1           0       13.512242   -0.683667   -2.284377
     51          1           0      -13.241537    1.482193   -1.376422
     52          1           0      -12.595494    2.829492   -0.481401
     53          1           0       11.224198   -1.864761    3.247007
     54          1           0        9.731661   -1.075072    2.605798
     55          1           0       11.017614    0.358699    2.680230
     56          1           0       11.052019   -2.903372   -0.368401
     57          1           0       10.790898   -3.543047    1.251634
     58          1           0        9.487538   -2.278981    0.654425
     59          1           0      -11.319963   -0.009278    2.263798
     60          1           0      -11.137286   -1.888813    2.174526
     61          1           0      -12.917047   -1.325749    2.612530
     62          1           0      -13.406259   -2.950920    0.641101
     63          1           0      -11.919097   -2.968502   -0.127790
     64          1           0      -13.027630   -2.075027   -1.054390
     65          1           0        8.849959   -0.360633    0.148727
     66          1           0      -10.044864   -1.980830   -0.328597
     67          1           0       10.498324    1.608057   -2.006893
     68          1           0       12.230155    1.949099   -1.905341
     69          1           0       11.978581    0.764780   -3.143331
     70          1           0      -10.891089    2.402337   -2.288629
     71          1           0       -9.800240    1.038657   -2.286984
     72          1           0       -9.778687    2.453037   -1.162421
     73          1           0       15.010722   -3.029034   -0.281788
     74          1           0      -15.421011    1.570341    1.333378
     75          1           0       10.239786    2.446542   -0.306175
     76          1           0       -8.677291    0.564876    0.081670
     77          1           0        8.886926    4.274542    0.331838
     78          1           0        7.326906    4.221587   -0.184550
     79          1           0        7.599539    3.974422    1.571780
     80          1           0       -8.394642   -3.253725   -0.269096
     81          1           0       -8.123561   -2.842876   -1.700678
     82          1           0       -6.795366   -3.362582   -0.793327
     83          1           0        7.167694    0.511302   -0.302346
     84          1           0       -6.396399    0.475237   -0.150945
     85          1           0        5.351075    3.019441    0.667383
     86          1           0       -5.074685   -2.435825   -0.648585
     87          1           0        4.511788    0.211092   -0.264391
     88          1           0       -3.959856    0.406464    0.029182
     89          1           0        2.890274    3.198730    1.783041
     90          1           0        1.751575    3.295105    0.260546
     91          1           0        3.524822    3.634485    0.145871
     92          1           0       -2.695744   -3.145225   -0.253101
     93          1           0       -2.523245   -2.667569   -1.926430
     94          1           0       -1.238257   -2.604926   -0.676957
     95          1           0        2.336256   -0.340472   -0.551052
     96          1           0       -2.138149    0.845039    0.417718
     97          1           0        0.366828    1.930432    0.549701
     98          1           0        0.261363   -1.101781   -0.195943
 ---------------------------------------------------------------------

 SCF Done:  E(RCAM-B3LYP) =  -1706.93251952     A.U. after   15 cycles

 Excitation energies and oscillator strengths:

 Excited State   1:      Singlet-A      2.3399 eV  529.88 nm  f=3.7739  <S**2>=0.000
     155 ->158         0.16190
     156 ->157         0.68510
 This state for optimization and/or second-order correction.
 Total Energy, E(TD-HF/TD-DFT) =  -1706.84653145
 Copying the excited state density for this state as the 1-particle RhoCI density.

 The electronic state is 1-A.
 Alpha  occ. eigenvalues --  -19.22486 -19.21486 -10.32615 -10.31115 -10.28524
 Alpha  occ. eigenvalues --  -10.27588 -10.27411 -10.27333 -10.27328 -10.27281
 Alpha  occ. eigenvalues --  -10.27259 -10.27213 -10.27116 -10.27083 -10.27075
 Alpha  occ. eigenvalues --  -10.26951 -10.26948 -10.26911 -10.26856 -10.26703
 Alpha  occ. eigenvalues --  -10.26697 -10.26660 -10.26576 -10.26505 -10.26331
 Alpha  occ. eigenvalues --  -10.26271 -10.25990 -10.25927 -10.25904 -10.25746
 Alpha  occ. eigenvalues --  -10.25528 -10.25464 -10.25327 -10.25187 -10.25037
 Alpha  occ. eigenvalues --  -10.24908 -10.24787 -10.24748 -10.24722 -10.24705
 Alpha  occ. eigenvalues --  -10.24619 -10.23781  -1.11005  -1.10619  -0.93744
 Alpha  occ. eigenvalues --   -0.93558  -0.92236  -0.91707  -0.90287  -0.89667
 Alpha  occ. eigenvalues --   -0.88155  -0.87824  -0.86694  -0.85124  -0.84722
 Alpha  occ. eigenvalues --   -0.82478  -0.81375  -0.80348  -0.79518  -0.77601
 Alpha  occ. eigenvalues --   -0.77050  -0.76504  -0.76216  -0.76054  -0.75460
 Alpha  occ. eigenvalues --   -0.74841  -0.74285  -0.73657  -0.73531  -0.71030
 Alpha  occ. eigenvalues --   -0.68709  -0.67698  -0.66389  -0.64534  -0.63979
 Alpha  occ. eigenvalues --   -0.62802  -0.62054  -0.60899  -0.60725  -0.59712
 Alpha  occ. eigenvalues --   -0.59409  -0.59050  -0.58186  -0.57419  -0.56433
 Alpha  occ. eigenvalues --   -0.55845  -0.55753  -0.55152  -0.54424  -0.53269
 Alpha  occ. eigenvalues --   -0.53055  -0.52434  -0.52013  -0.51834  -0.51134
 Alpha  occ. eigenvalues --   -0.50558  -0.50283  -0.49746  -0.49647  -0.49332
 Alpha  occ. eigenvalues --   -0.49192  -0.48518  -0.48145  -0.47736  -0.47643
 Alpha  occ. eigenvalues --   -0.47376  -0.47162  -0.46759  -0.46619  -0.46341
 Alpha  occ. eigenvalues --   -0.46212  -0.46044  -0.45623  -0.44870  -0.44646
 Alpha  occ. eigenvalues --   -0.44494  -0.44355  -0.44170  -0.43860  -0.43753
 Alpha  occ. eigenvalues --   -0.43012  -0.42791  -0.42476  -0.42082  -0.41659
 Alpha  occ. eigenvalues --   -0.41298  -0.41276  -0.41000  -0.40339  -0.40125
 Alpha  occ. eigenvalues --   -0.39818  -0.39759  -0.39537  -0.39233  -0.39061
 Alpha  occ. eigenvalues --   -0.38811  -0.38412  -0.38295  -0.37910  -0.37802
 Alpha  occ. eigenvalues --   -0.37665  -0.37445  -0.36818  -0.35984  -0.35557
 Alpha  occ. eigenvalues --   -0.35135  -0.34913  -0.34060  -0.32357  -0.31997
 Alpha  occ. eigenvalues --   -0.31201  -0.30169  -0.27560  -0.26059  -0.23232
 Alpha  occ. eigenvalues --   -0.19753
 Alpha virt. eigenvalues --   -0.05453  -0.01080   0.02687   0.04742   0.08138
 Alpha virt. eigenvalues --    0.09299   0.10048   0.11085   0.11380   0.11628
 Alpha virt. eigenvalues --    0.12371   0.12815   0.13043   0.13347   0.13420

 Mulliken charges:
               1
     1  O   -0.551274
     2  O   -0.541147
     3  C    0.033220
     4  C   -0.019016
     5  C   -0.177104
     6  C   -0.200291
     7  C    0.182865
     8  C    0.178657
     9  C    0.025902
    10  C    0.053053
    11  C   -0.209642
    12  C   -0.233736
    13  C    0.075419
    14  C    0.037086
    15  C   -0.277914
    16  C   -0.275451
    17  C   -0.275050
    18  C   -0.300529
    19  C   -0.085822
    20  C   -0.106126
    21  C   -0.381438
    22  C   -0.372425
    23  C   -0.133703
    24  C   -0.086897
    25  C    0.059247
    26  C    0.085514
    27  C   -0.368440
    28  C   -0.384201
    29  C   -0.084245
    30  C   -0.132599
    31  C   -0.117221
    32  C   -0.094333
    33  C   -0.081461
    34  C   -0.069942
    35  C    0.121582
    36  C    0.099232
    37  C   -0.370934
    38  C   -0.383506
    39  C   -0.157067
    40  C   -0.140979
    41  C   -0.054153
    42  C   -0.077504
    43  H    0.101832
    44  H    0.052015
    45  H    0.078078
    46  H    0.087426
    47  H    0.058569
    48  H    0.069386
    49  H    0.134543
    50  H    0.098480
    51  H    0.130409
    52  H    0.113094
    53  H    0.075561
    54  H    0.094389
    55  H    0.068811
    56  H    0.099742
    57  H    0.080294
    58  H    0.076985
    59  H    0.085363
    60  H    0.070994
    61  H    0.096588
    62  H    0.092124
    63  H    0.105778
    64  H    0.120120
    65  H    0.096158
    66  H    0.064855
    67  H    0.084171
    68  H    0.122963
    69  H    0.106851
    70  H    0.104844
    71  H    0.122077
    72  H    0.121120
    73  H    0.311806
    74  H    0.315594
    75  H    0.099623
    76  H    0.080773
    77  H    0.096485
    78  H    0.136214
    79  H    0.125111
    80  H    0.121432
    81  H    0.134700
    82  H    0.090080
    83  H    0.073452
    84  H    0.074601
    85  H    0.078301
    86  H    0.100863
    87  H    0.071487
    88  H    0.076261
    89  H    0.117357
    90  H    0.111440
    91  H    0.109573
    92  H    0.109345
    93  H    0.122119
    94  H    0.106406
    95  H    0.080550
    96  H    0.070753
    97  H    0.082315
    98  H    0.082114
 Sum of Mulliken charges =  -0.00000

 Dipole moment (field-independent basis, Debye):
    X=              0.1136    Y=             -1.8144    Z=             -0.1532  Tot=              1.8244
 Quadrupole moment (field-independent basis, Debye-Ang):
   XX=           -249.9680   YY=           -239.6630   ZZ=           -265.2276
   XY=              6.1017   XZ=            -18.5959   YZ=              2.9915

 Normal termination of Gaussian 16 at Fri Jul 19 14:19:16 2019.
