 Gaussian 16, Revision A.03,
 Gaussian 16:  ES64L-G16RevA.03 25-Dec-2016

 -------------------------------------
 # td=(NStates=1) CAM-B3LYP/6-31G(d,p)
 -------------------------------------

 --
 TD
 --
 Symbolic Z-matrix:
 Charge =  0 Multiplicity = 1

                         Standard orientation:
 ---------------------------------------------------------------------
 Center     Atomic      Atomic             Coordinates (Angstroms)
 Number     Number       Type             X           Y           Z
 ---------------------------------------------------------------------
      1          8           0       14.570157   -2.348977   -0.092798
      2          8           0      -14.725511    1.806514    1.171573
      3          6           0       10.942900   -1.650611    1.040458
      4          6           0      -12.230055   -1.086591    0.694101
      5          6           0       12.430662   -2.082100    1.166277
      6          6           0      -13.564564   -0.422535    0.795567
      7          6           0       13.108992   -2.130456   -0.249540
      8          6           0      -13.481430    1.058481    1.079585
      9          6           0       10.876433   -0.298052   -0.024344
     10          6           0      -11.248645   -0.358723   -0.099024
     11          6           0       13.119474   -0.803224   -0.832614
     12          6           0      -12.763585    1.737421   -0.149818
     13          6           0       11.861154    0.079670   -0.798725
     14          6           0      -11.557021    0.939804   -0.625043
     15          6           0       10.516336   -1.192632    2.447544
     16          6           0       10.089005   -2.759097    0.544643
     17          6           0      -11.749295   -1.264022    2.217358
     18          6           0      -12.464923   -2.446296    0.031813
     19          6           0        9.579381    0.414065    0.154932
     20          6           0       -9.967872   -1.067118   -0.456018
     21          6           0       11.701829    1.221624   -1.789229
     22          6           0      -10.722525    1.709235   -1.451683
     23          6           0        9.406795    1.757043    0.115488
     24          6           0       -8.770933   -0.535026   -0.386980
     25          6           0        8.096662    2.347620    0.150588
     26          6           0       -7.484655   -1.197011   -0.709672
     27          6           0        8.055773    3.834154    0.551107
     28          6           0       -7.599888   -2.619237   -1.098582
     29          6           0        6.878457    1.682172   -0.057585
     30          6           0       -6.346471   -0.569440   -0.556472
     31          6           0        5.641966    2.166616    0.073916
     32          6           0       -4.959577   -0.998237   -0.786556
     33          6           0        4.517793    1.514875   -0.154759
     34          6           0       -3.889792   -0.263596   -0.476042
     35          6           0        3.171764    1.956230   -0.070790
     36          6           0       -2.536568   -0.626008   -0.642742
     37          6           0        2.856572    3.320223    0.567000
     38          6           0       -2.165588   -2.014852   -1.149134
     39          6           0        2.186970    0.919979   -0.129510
     40          6           0       -1.498679    0.270605   -0.424569
     41          6           0        0.782904    1.112055   -0.147858
     42          6           0       -0.096961    0.149427   -0.533330
     43          1           0       13.194288   -1.751117    1.927809
     44          1           0       12.255395   -2.987838    1.535957
     45          1           0      -14.006977   -0.893523    1.532142
     46          1           0      -14.226916   -0.561057   -0.100112
     47          1           0       12.740551   -3.042361   -1.007086
     48          1           0      -12.839050    1.242778    1.873792
     49          1           0       13.898271   -0.376961   -0.205773
     50          1           0       13.398199   -0.853581   -1.922413
     51          1           0      -13.526078    1.875572   -1.064481
     52          1           0      -12.434237    2.787912    0.119503
     53          1           0       10.573185   -2.019813    3.114791
     54          1           0        9.450797   -0.873916    2.546903
     55          1           0       11.397489   -0.504644    2.643357
     56          1           0       10.193761   -3.073051   -0.566758
     57          1           0       10.140159   -3.468944    1.328144
     58          1           0        9.081006   -2.545932    0.583334
     59          1           0      -11.802593   -0.244118    2.593618
     60          1           0      -10.784999   -1.749908    2.223968
     61          1           0      -12.409401   -1.844868    2.797410
     62          1           0      -13.326403   -2.972244    0.467533
     63          1           0      -11.556194   -3.086528    0.148043
     64          1           0      -12.700797   -2.315522   -0.998574
     65          1           0        8.734090   -0.031721    0.150353
     66          1           0       -9.960854   -2.072847   -0.773947
     67          1           0       10.512177    1.105448   -2.293478
     68          1           0       11.955493    2.145617   -1.211361
     69          1           0       12.376129    1.054402   -2.544882
     70          1           0      -11.348382    1.921491   -2.443161
     71          1           0       -9.791717    1.169865   -1.669991
     72          1           0      -10.318710    2.789011   -0.904653
     73          1           0       14.645426   -3.252111    0.043119
     74          1           0      -15.183101    1.400415    1.976079
     75          1           0       10.334994    2.422186    0.130648
     76          1           0       -8.448744    0.316598    0.183439
     77          1           0        8.834380    4.380643    0.694007
     78          1           0        7.592520    4.489969   -0.137059
     79          1           0        7.579245    4.042218    1.656528
     80          1           0       -8.341739   -3.351344   -0.460808
     81          1           0       -8.165276   -2.675390   -2.156277
     82          1           0       -6.536736   -3.043778   -1.111729
     83          1           0        6.869350    0.584513   -0.214520
     84          1           0       -6.272949    0.398461   -0.113206
     85          1           0        5.647761    3.053963    0.505319
     86          1           0       -4.818752   -1.927497   -1.280143
     87          1           0        4.652034    0.526645   -0.583540
     88          1           0       -4.037953    0.863726   -0.088952
     89          1           0        3.145741    3.334048    1.659667
     90          1           0        1.808816    3.764575    0.594440
     91          1           0        3.638424    4.114305    0.429554
     92          1           0       -2.613716   -2.686079   -0.574481
     93          1           0       -2.355027   -2.260177   -2.383516
     94          1           0       -1.180217   -2.268285   -0.831846
     95          1           0        2.511102   -0.049655   -0.397512
     96          1           0       -1.971074    1.198755    0.045648
     97          1           0        0.370701    2.125888   -0.136836
     98          1           0        0.333176   -0.823099   -0.936773
 ---------------------------------------------------------------------

 SCF Done:  E(RCAM-B3LYP) =  -1706.96024304     A.U. after   14 cycles

 Excitation energies and oscillator strengths:

 Excited State   1:      Singlet-A      2.3331 eV  531.42 nm  f=3.4559  <S**2>=0.000
     155 ->158        -0.14684
     156 ->157         0.68981
 This state for optimization and/or second-order correction.
 Total Energy, E(TD-HF/TD-DFT) =  -1706.87450451
 Copying the excited state density for this state as the 1-particle RhoCI density.

 The electronic state is 1-A.
 Alpha  occ. eigenvalues --  -19.21591 -19.20498 -10.31974 -10.29626 -10.28607
 Alpha  occ. eigenvalues --  -10.28097 -10.28025 -10.27654 -10.27173 -10.27002
 Alpha  occ. eigenvalues --  -10.26975 -10.26847 -10.26650 -10.26555 -10.26433
 Alpha  occ. eigenvalues --  -10.26383 -10.26352 -10.26344 -10.26339 -10.26266
 Alpha  occ. eigenvalues --  -10.26020 -10.25914 -10.25886 -10.25874 -10.25846
 Alpha  occ. eigenvalues --  -10.25443 -10.25406 -10.25380 -10.25373 -10.25357
 Alpha  occ. eigenvalues --  -10.25313 -10.25051 -10.24894 -10.24879 -10.24861
 Alpha  occ. eigenvalues --  -10.24598 -10.24416 -10.24369 -10.24359 -10.24180
 Alpha  occ. eigenvalues --  -10.23627 -10.23466  -1.09129  -1.07640  -0.93949
 Alpha  occ. eigenvalues --   -0.93015  -0.92448  -0.92124  -0.90958  -0.89934
 Alpha  occ. eigenvalues --   -0.88275  -0.87595  -0.87171  -0.85872  -0.84869
 Alpha  occ. eigenvalues --   -0.83451  -0.82375  -0.80757  -0.80141  -0.78222
 Alpha  occ. eigenvalues --   -0.77286  -0.76797  -0.76726  -0.76191  -0.76076
 Alpha  occ. eigenvalues --   -0.75493  -0.75329  -0.74590  -0.73951  -0.71096
 Alpha  occ. eigenvalues --   -0.69060  -0.67241  -0.65852  -0.64818  -0.63790
 Alpha  occ. eigenvalues --   -0.62946  -0.62871  -0.62162  -0.61585  -0.60479
 Alpha  occ. eigenvalues --   -0.59965  -0.58859  -0.58286  -0.57670  -0.56201
 Alpha  occ. eigenvalues --   -0.55637  -0.55235  -0.54880  -0.54688  -0.53762
 Alpha  occ. eigenvalues --   -0.53169  -0.52618  -0.51842  -0.51423  -0.51020
 Alpha  occ. eigenvalues --   -0.50423  -0.49981  -0.49556  -0.49401  -0.49345
 Alpha  occ. eigenvalues --   -0.48860  -0.48775  -0.48242  -0.47959  -0.47657
 Alpha  occ. eigenvalues --   -0.47599  -0.46762  -0.46570  -0.46374  -0.46184
 Alpha  occ. eigenvalues --   -0.45965  -0.45484  -0.45300  -0.45172  -0.44906
 Alpha  occ. eigenvalues --   -0.44671  -0.44456  -0.44395  -0.43722  -0.43448
 Alpha  occ. eigenvalues --   -0.43314  -0.42992  -0.42967  -0.42576  -0.42217
 Alpha  occ. eigenvalues --   -0.42049  -0.41750  -0.41440  -0.41110  -0.41038
 Alpha  occ. eigenvalues --   -0.40446  -0.40002  -0.39857  -0.39553  -0.39388
 Alpha  occ. eigenvalues --   -0.39143  -0.38984  -0.38736  -0.38577  -0.38353
 Alpha  occ. eigenvalues --   -0.37968  -0.37756  -0.37698  -0.36823  -0.35766
 Alpha  occ. eigenvalues --   -0.35569  -0.33940  -0.32859  -0.32665  -0.32296
 Alpha  occ. eigenvalues --   -0.32010  -0.30051  -0.28362  -0.25881  -0.23839
 Alpha  occ. eigenvalues --   -0.19904
 Alpha virt. eigenvalues --   -0.05592  -0.00730   0.02472   0.05433   0.07791
 Alpha virt. eigenvalues --    0.09527   0.11722   0.11973   0.12345   0.12440
 Alpha virt. eigenvalues --    0.12738   0.13045   0.13277   0.13491   0.13534

 Mulliken charges:
               1
     1  O   -0.552586
     2  O   -0.562036
     3  C   -0.023138
     4  C   -0.044505
     5  C   -0.189973
     6  C   -0.170623
     7  C    0.119506
     8  C    0.151157
     9  C    0.042425
    10  C    0.072255
    11  C   -0.184201
    12  C   -0.214748
    13  C    0.011589
    14  C    0.082066
    15  C   -0.298994
    16  C   -0.301859
    17  C   -0.311009
    18  C   -0.305680
    19  C   -0.070853
    20  C   -0.140908
    21  C   -0.334333
    22  C   -0.348439
    23  C   -0.102448
    24  C   -0.079686
    25  C    0.067493
    26  C    0.138845
    27  C   -0.368477
    28  C   -0.374265
    29  C   -0.129238
    30  C   -0.138430
    31  C   -0.017019
    32  C   -0.092438
    33  C   -0.130221
    34  C   -0.108981
    35  C    0.111282
    36  C    0.101217
    37  C   -0.388499
    38  C   -0.355619
    39  C   -0.124578
    40  C   -0.120385
    41  C   -0.069156
    42  C   -0.098417
    43  H    0.110287
    44  H    0.094051
    45  H    0.085601
    46  H    0.094509
    47  H    0.064393
    48  H    0.091069
    49  H    0.135834
    50  H    0.098372
    51  H    0.098422
    52  H    0.105665
    53  H    0.096169
    54  H    0.104579
    55  H    0.112100
    56  H    0.101001
    57  H    0.102632
    58  H    0.112338
    59  H    0.102618
    60  H    0.109081
    61  H    0.104605
    62  H    0.093049
    63  H    0.092975
    64  H    0.113766
    65  H    0.063343
    66  H    0.086238
    67  H    0.102306
    68  H    0.121079
    69  H    0.109937
    70  H    0.095943
    71  H    0.118610
    72  H    0.077507
    73  H    0.294027
    74  H    0.300673
    75  H    0.081423
    76  H    0.085730
    77  H    0.116121
    78  H    0.122557
    79  H    0.088723
    80  H    0.101913
    81  H    0.106584
    82  H    0.101529
    83  H    0.072447
    84  H    0.073808
    85  H    0.063778
    86  H    0.086259
    87  H    0.073896
    88  H    0.073137
    89  H    0.124235
    90  H    0.119083
    91  H    0.113504
    92  H    0.126284
    93  H    0.091801
    94  H    0.107461
    95  H    0.082719
    96  H    0.068343
    97  H    0.091535
    98  H    0.088258
 Sum of Mulliken charges =  -0.00000

 Dipole moment (field-independent basis, Debye):
    X=              1.3783    Y=             -2.4307    Z=              1.8387  Tot=              3.3450
 Quadrupole moment (field-independent basis, Debye-Ang):
   XX=           -280.8111   YY=           -241.8955   ZZ=           -259.2995
   XY=             11.7641   XZ=            -12.2446   YZ=              3.8606

 Normal termination of Gaussian 16 at Sat Jul 20 04:11:16 2019.
