 Gaussian 16, Revision A.03,
 Gaussian 16:  ES64L-G16RevA.03 25-Dec-2016

 -------------------------------------
 # td=(NStates=1) CAM-B3LYP/6-31G(d,p)
 -------------------------------------

 --
 TD
 --
 Symbolic Z-matrix:
 Charge =  0 Multiplicity = 1

                         Standard orientation:
 ---------------------------------------------------------------------
 Center     Atomic      Atomic             Coordinates (Angstroms)
 Number     Number       Type             X           Y           Z
 ---------------------------------------------------------------------
      1          8           0       14.632795   -2.306754   -0.047509
      2          8           0      -14.784905    1.639452    1.151992
      3          6           0       11.083480   -1.538332    0.978770
      4          6           0      -12.234378   -1.170403    0.657126
      5          6           0       12.575265   -1.919318    1.091243
      6          6           0      -13.579518   -0.478986    0.782297
      7          6           0       13.226807   -2.160027   -0.229402
      8          6           0      -13.536926    1.047448    1.005664
      9          6           0       10.924623   -0.352188    0.023610
     10          6           0      -11.246417   -0.289881   -0.341339
     11          6           0       13.152994   -0.800283   -1.029709
     12          6           0      -12.962977    1.635550   -0.225941
     13          6           0       11.838501    0.024951   -0.924885
     14          6           0      -11.544366    1.049041   -0.565334
     15          6           0       10.615940   -1.176367    2.395575
     16          6           0       10.254420   -2.720460    0.478874
     17          6           0      -11.628090   -1.339846    2.040204
     18          6           0      -12.552381   -2.568860    0.081673
     19          6           0        9.598471    0.296073    0.083584
     20          6           0       -9.968789   -0.889729   -0.474565
     21          6           0       11.651052    1.158127   -1.774538
     22          6           0      -10.700282    1.852772   -1.478165
     23          6           0        9.323142    1.699179   -0.058534
     24          6           0       -8.727447   -0.420553   -0.488494
     25          6           0        8.092568    2.333592    0.172164
     26          6           0       -7.477483   -1.137703   -0.675782
     27          6           0        8.073353    3.763313    0.673393
     28          6           0       -7.507378   -2.554658   -1.247658
     29          6           0        6.898021    1.659433    0.012762
     30          6           0       -6.351381   -0.437944   -0.391581
     31          6           0        5.650697    2.143397    0.136271
     32          6           0       -5.067527   -0.957279   -0.475585
     33          6           0        4.514740    1.378545   -0.072735
     34          6           0       -3.924712   -0.199008   -0.329150
     35          6           0        3.171894    1.881393    0.031625
     36          6           0       -2.561083   -0.586654   -0.456199
     37          6           0        2.981050    3.279802    0.523599
     38          6           0       -2.303039   -2.003867   -1.092254
     39          6           0        2.134189    0.965446   -0.184923
     40          6           0       -1.594111    0.291670   -0.145016
     41          6           0        0.714786    1.138061   -0.023531
     42          6           0       -0.213631    0.122671   -0.299846
     43          1           0       13.184775   -1.009337    1.496918
     44          1           0       12.739924   -2.802804    1.791699
     45          1           0      -14.149198   -0.934945    1.460034
     46          1           0      -14.117177   -0.549179   -0.218139
     47          1           0       12.802242   -2.934430   -0.733260
     48          1           0      -13.037257    1.284376    2.079505
     49          1           0       13.973187   -0.058342   -0.842427
     50          1           0       13.282977   -1.122531   -2.178334
     51          1           0      -13.569134    1.443421   -1.190323
     52          1           0      -12.831022    2.793660   -0.246233
     53          1           0       10.803529   -1.989200    3.183822
     54          1           0        9.552261   -0.961254    2.429382
     55          1           0       11.001483   -0.126963    2.686011
     56          1           0       10.593672   -2.947085   -0.501961
     57          1           0       10.328572   -3.636785    1.141333
     58          1           0        9.177363   -2.537329    0.215172
     59          1           0      -11.495543   -0.289367    2.524416
     60          1           0      -10.589308   -1.926961    1.622819
     61          1           0      -12.249469   -2.018919    2.773554
     62          1           0      -13.390217   -3.052957    0.601911
     63          1           0      -11.751427   -3.281583    0.224978
     64          1           0      -12.964898   -2.501209   -1.060627
     65          1           0        8.743033   -0.456256    0.499290
     66          1           0       -9.982130   -1.995593   -0.720974
     67          1           0       10.583241    1.312808   -2.045638
     68          1           0       11.979938    2.246407   -1.495733
     69          1           0       12.193680    0.927817   -2.780804
     70          1           0      -11.274251    2.434866   -2.178253
     71          1           0       -9.806515    1.146864   -1.847528
     72          1           0       -9.973241    2.362674   -0.983432
     73          1           0       14.620771   -3.328707   -0.129873
     74          1           0      -15.347245    1.456670    1.945024
     75          1           0       10.104190    2.396978   -0.014537
     76          1           0       -8.717323    0.547505   -0.023186
     77          1           0        9.003392    4.071296    0.992804
     78          1           0        7.680118    4.431868   -0.129922
     79          1           0        7.663821    3.871378    1.582489
     80          1           0       -8.153807   -3.275315   -0.501591
     81          1           0       -8.099942   -2.496916   -2.152230
     82          1           0       -6.472248   -2.979162   -1.543295
     83          1           0        6.971423    0.616011   -0.277397
     84          1           0       -6.436074    0.689789   -0.171756
     85          1           0        5.651239    3.178784    0.550497
     86          1           0       -5.101740   -2.045688   -0.883174
     87          1           0        4.468986    0.376424   -0.505819
     88          1           0       -4.077136    0.799778   -0.106348
     89          1           0        2.926186    3.350605    1.682602
     90          1           0        2.060531    3.745118    0.003967
     91          1           0        3.710556    4.026865    0.016556
     92          1           0       -2.766538   -2.887770   -0.417988
     93          1           0       -2.736879   -2.132594   -2.120936
     94          1           0       -1.227169   -2.179173   -1.113902
     95          1           0        2.453599   -0.124015   -0.381491
     96          1           0       -2.078312    1.140220    0.266825
     97          1           0        0.385506    2.017784    0.268940
     98          1           0        0.207408   -0.857880   -0.478908
 ---------------------------------------------------------------------

 SCF Done:  E(RCAM-B3LYP) =  -1707.04674616     A.U. after   15 cycles

 Excitation energies and oscillator strengths:

 Excited State   1:      Singlet-A      2.1483 eV  577.13 nm  f=3.7444  <S**2>=0.000
     155 ->158         0.16757
     156 ->157         0.68535
 This state for optimization and/or second-order correction.
 Total Energy, E(TD-HF/TD-DFT) =  -1706.96779801
 Copying the excited state density for this state as the 1-particle RhoCI density.

 The electronic state is 1-A.
 Alpha  occ. eigenvalues --  -19.22032 -19.20445 -10.31353 -10.30007 -10.27985
 Alpha  occ. eigenvalues --  -10.27694 -10.27488 -10.27346 -10.27310 -10.27303
 Alpha  occ. eigenvalues --  -10.27220 -10.27101 -10.26966 -10.26819 -10.26718
 Alpha  occ. eigenvalues --  -10.26717 -10.26679 -10.26652 -10.26636 -10.26462
 Alpha  occ. eigenvalues --  -10.26351 -10.26217 -10.26009 -10.26004 -10.25966
 Alpha  occ. eigenvalues --  -10.25966 -10.25909 -10.25714 -10.25675 -10.25490
 Alpha  occ. eigenvalues --  -10.25423 -10.25409 -10.25344 -10.25303 -10.25284
 Alpha  occ. eigenvalues --  -10.25156 -10.25151 -10.25046 -10.24383 -10.24214
 Alpha  occ. eigenvalues --  -10.24032 -10.23438  -1.09579  -1.09177  -0.93399
 Alpha  occ. eigenvalues --   -0.92819  -0.92017  -0.91699  -0.90697  -0.89736
 Alpha  occ. eigenvalues --   -0.87380  -0.87065  -0.86517  -0.85383  -0.84176
 Alpha  occ. eigenvalues --   -0.83117  -0.82061  -0.80086  -0.79906  -0.77488
 Alpha  occ. eigenvalues --   -0.76534  -0.76221  -0.76113  -0.75779  -0.75568
 Alpha  occ. eigenvalues --   -0.74872  -0.74460  -0.74119  -0.73275  -0.70690
 Alpha  occ. eigenvalues --   -0.69213  -0.67691  -0.65893  -0.64949  -0.63641
 Alpha  occ. eigenvalues --   -0.63164  -0.62841  -0.61251  -0.60240  -0.60072
 Alpha  occ. eigenvalues --   -0.59537  -0.59070  -0.57897  -0.57263  -0.56223
 Alpha  occ. eigenvalues --   -0.55602  -0.55011  -0.54852  -0.54136  -0.53668
 Alpha  occ. eigenvalues --   -0.53029  -0.52660  -0.51891  -0.51227  -0.50569
 Alpha  occ. eigenvalues --   -0.50374  -0.49669  -0.49344  -0.49103  -0.49008
 Alpha  occ. eigenvalues --   -0.48551  -0.48329  -0.48109  -0.47572  -0.47483
 Alpha  occ. eigenvalues --   -0.47332  -0.47145  -0.46796  -0.46680  -0.46309
 Alpha  occ. eigenvalues --   -0.46035  -0.45797  -0.45074  -0.44892  -0.44585
 Alpha  occ. eigenvalues --   -0.44390  -0.44296  -0.43876  -0.43680  -0.43390
 Alpha  occ. eigenvalues --   -0.43174  -0.42297  -0.42216  -0.42059  -0.42031
 Alpha  occ. eigenvalues --   -0.41400  -0.41266  -0.41061  -0.40674  -0.40151
 Alpha  occ. eigenvalues --   -0.39945  -0.39866  -0.39536  -0.39520  -0.39426
 Alpha  occ. eigenvalues --   -0.39132  -0.39022  -0.38425  -0.38090  -0.37940
 Alpha  occ. eigenvalues --   -0.37644  -0.37406  -0.37052  -0.36397  -0.36063
 Alpha  occ. eigenvalues --   -0.35129  -0.34905  -0.33897  -0.32600  -0.31908
 Alpha  occ. eigenvalues --   -0.30903  -0.29997  -0.28322  -0.25993  -0.22618
 Alpha  occ. eigenvalues --   -0.18995
 Alpha virt. eigenvalues --   -0.05581  -0.01428   0.02281   0.05647   0.07785
 Alpha virt. eigenvalues --    0.09764   0.10597   0.10897   0.11508   0.11779
 Alpha virt. eigenvalues --    0.12425   0.12773   0.13540   0.13738   0.14199

 Mulliken charges:
               1
     1  O   -0.535308
     2  O   -0.577795
     3  C   -0.014494
     4  C   -0.004222
     5  C   -0.157734
     6  C   -0.173623
     7  C    0.126139
     8  C    0.209382
     9  C    0.062642
    10  C    0.068410
    11  C   -0.220727
    12  C   -0.213702
    13  C    0.091978
    14  C    0.033559
    15  C   -0.294973
    16  C   -0.305363
    17  C   -0.266831
    18  C   -0.298418
    19  C   -0.131335
    20  C   -0.125232
    21  C   -0.386421
    22  C   -0.377213
    23  C   -0.119643
    24  C   -0.122165
    25  C    0.051141
    26  C    0.105101
    27  C   -0.375837
    28  C   -0.368090
    29  C   -0.082683
    30  C   -0.106106
    31  C   -0.089092
    32  C   -0.078184
    33  C   -0.117805
    34  C   -0.134552
    35  C    0.122199
    36  C    0.124603
    37  C   -0.377688
    38  C   -0.362781
    39  C   -0.145887
    40  C   -0.110440
    41  C   -0.057238
    42  C   -0.100818
    43  H    0.101040
    44  H    0.071977
    45  H    0.077104
    46  H    0.086571
    47  H    0.095039
    48  H    0.050395
    49  H    0.127877
    50  H    0.078266
    51  H    0.123594
    52  H    0.098073
    53  H    0.093651
    54  H    0.101376
    55  H    0.096227
    56  H    0.104248
    57  H    0.095954
    58  H    0.101827
    59  H    0.098930
    60  H    0.079542
    61  H    0.088514
    62  H    0.099439
    63  H    0.096721
    64  H    0.086633
    65  H    0.089800
    66  H    0.067193
    67  H    0.133961
    68  H    0.110143
    69  H    0.085512
    70  H    0.113944
    71  H    0.104592
    72  H    0.132936
    73  H    0.303706
    74  H    0.307269
    75  H    0.088964
    76  H    0.085264
    77  H    0.107128
    78  H    0.124281
    79  H    0.135504
    80  H    0.104736
    81  H    0.138126
    82  H    0.109531
    83  H    0.068578
    84  H    0.079466
    85  H    0.088350
    86  H    0.068400
    87  H    0.083233
    88  H    0.073791
    89  H    0.127644
    90  H    0.103918
    91  H    0.110092
    92  H    0.098809
    93  H    0.121609
    94  H    0.105918
    95  H    0.071065
    96  H    0.079965
    97  H    0.071967
    98  H    0.088857
 Sum of Mulliken charges =  -0.00000

 Dipole moment (field-independent basis, Debye):
    X=             -0.0200    Y=             -1.2679    Z=              0.7748  Tot=              1.4860
 Quadrupole moment (field-independent basis, Debye-Ang):
   XX=           -268.6576   YY=           -237.6676   ZZ=           -260.7291
   XY=             -2.5599   XZ=            -17.0140   YZ=              5.6062

 Normal termination of Gaussian 16 at Thu Jul 11 17:52:18 2019.
