 Gaussian 16, Revision A.03,
 Gaussian 16:  ES64L-G16RevA.03 25-Dec-2016

 -------------------------------------
 # td=(NStates=1) CAM-B3LYP/6-31G(d,p)
 -------------------------------------

 --
 TD
 --
 Symbolic Z-matrix:
 Charge =  0 Multiplicity = 1

                         Standard orientation:
 ---------------------------------------------------------------------
 Center     Atomic      Atomic             Coordinates (Angstroms)
 Number     Number       Type             X           Y           Z
 ---------------------------------------------------------------------
      1          8           0       14.504167   -2.265777   -0.093730
      2          8           0      -14.676462    1.990494    1.004887
      3          6           0       10.914248   -1.559183    0.880203
      4          6           0      -12.217132   -1.001416    0.606034
      5          6           0       12.402367   -2.208444    0.972027
      6          6           0      -13.589680   -0.179932    0.848258
      7          6           0       13.136414   -1.972898   -0.339034
      8          6           0      -13.320127    1.227185    0.927709
      9          6           0       10.846040   -0.191493    0.000915
     10          6           0      -11.109496   -0.267852   -0.236917
     11          6           0       13.189093   -0.579820   -0.872629
     12          6           0      -12.750031    1.804793   -0.496330
     13          6           0       11.896533    0.180939   -0.805096
     14          6           0      -11.491364    0.972267   -0.683694
     15          6           0       10.494708   -1.265366    2.444918
     16          6           0        9.942122   -2.595237    0.264153
     17          6           0      -11.751389   -1.178971    2.045911
     18          6           0      -12.647278   -2.370720    0.061322
     19          6           0        9.573037    0.502505    0.076305
     20          6           0       -9.991249   -1.000792   -0.439011
     21          6           0       11.785812    1.339057   -1.743525
     22          6           0      -10.424734    1.830583   -1.494442
     23          6           0        9.341508    1.846969    0.053640
     24          6           0       -8.699998   -0.459615   -0.436209
     25          6           0        8.027376    2.453772    0.266277
     26          6           0       -7.535143   -1.245260   -0.597188
     27          6           0        8.056240    3.869477    0.576284
     28          6           0       -7.654125   -2.669720   -1.081100
     29          6           0        6.931164    1.699071    0.033598
     30          6           0       -6.251767   -0.654070   -0.441495
     31          6           0        5.631403    2.089517    0.189128
     32          6           0       -4.998262   -1.165842   -0.663075
     33          6           0        4.463328    1.298360    0.056005
     34          6           0       -3.936726   -0.415693   -0.380141
     35          6           0        3.191974    1.719402    0.108224
     36          6           0       -2.556502   -0.849214   -0.446068
     37          6           0        2.821004    3.122935    0.451265
     38          6           0       -2.272660   -2.262525   -0.853221
     39          6           0        2.059720    0.776656   -0.023893
     40          6           0       -1.554920    0.074354   -0.187527
     41          6           0        0.776903    0.889171   -0.084381
     42          6           0       -0.100514   -0.085725   -0.281005
     43          1           0       12.921299   -1.573388    1.731397
     44          1           0       12.260140   -3.258714    1.236357
     45          1           0      -14.106929   -0.683834    1.843043
     46          1           0      -14.208109   -0.541171   -0.063964
     47          1           0       12.649088   -2.742420   -0.942446
     48          1           0      -12.511488    1.431419    1.683479
     49          1           0       14.092952   -0.134542   -0.214579
     50          1           0       13.745039   -0.652509   -1.930542
     51          1           0      -13.542992    1.715472   -1.280056
     52          1           0      -12.451222    2.844767   -0.525707
     53          1           0       11.022475   -2.133121    2.910481
     54          1           0        9.254595   -1.239023    2.495755
     55          1           0       10.840431   -0.230635    2.655483
     56          1           0       10.262368   -2.880961   -0.635896
     57          1           0        9.851125   -3.505531    0.873107
     58          1           0        8.735218   -2.400482    0.193773
     59          1           0      -11.599046   -0.198306    2.648679
     60          1           0      -10.632374   -1.497285    2.134773
     61          1           0      -12.262899   -1.774426    2.770941
     62          1           0      -13.447782   -2.870541    0.753691
     63          1           0      -11.778845   -3.091364    0.014971
     64          1           0      -13.011679   -2.090671   -0.875427
     65          1           0        8.977279   -0.322849    0.238892
     66          1           0      -10.062114   -1.966699   -0.638758
     67          1           0       10.834346    1.392061   -2.353581
     68          1           0       12.272740    2.241398   -1.704333
     69          1           0       12.490083    1.168016   -2.675316
     70          1           0      -11.074710    2.527820   -1.990661
     71          1           0       -9.828764    1.334444   -2.252246
     72          1           0       -9.542572    2.294020   -0.667741
     73          1           0       14.410612   -3.422786    0.094476
     74          1           0      -15.120924    1.643369    1.734692
     75          1           0       10.187061    2.602727    0.204539
     76          1           0       -8.322381    0.391471   -0.009131
     77          1           0        9.129036    4.288558    0.566841
     78          1           0        7.515051    4.402997   -0.157217
     79          1           0        7.650088    4.272210    1.476097
     80          1           0       -8.212307   -3.168335   -0.441156
     81          1           0       -8.236860   -2.891061   -2.111276
     82          1           0       -6.637885   -3.157767   -1.170395
     83          1           0        6.991001    0.839183   -0.372072
     84          1           0       -6.213959    0.301468    0.122219
     85          1           0        5.583286    3.128647    0.546906
     86          1           0       -4.762963   -2.111363   -1.111605
     87          1           0        4.688633    0.078109   -0.147056
     88          1           0       -4.010203    0.707102    0.048125
     89          1           0        3.768376    3.443191    1.211484
     90          1           0        1.799987    3.116047    1.198507
     91          1           0        2.775580    3.815982   -0.697935
     92          1           0       -2.578463   -2.971806   -0.082124
     93          1           0       -2.649016   -2.610968   -1.916737
     94          1           0       -1.184721   -2.467387   -0.937168
     95          1           0        2.358060   -0.174901   -0.263161
     96          1           0       -2.175404    1.104244    0.204107
     97          1           0        0.439475    1.891696    0.094693
     98          1           0        0.272174   -1.112658   -0.465661
 ---------------------------------------------------------------------

 SCF Done:  E(RCAM-B3LYP) =  -1706.83353554     A.U. after   16 cycles

 Excitation energies and oscillator strengths:

 Excited State   1:      Singlet-A      1.8620 eV  665.86 nm  f=3.8225  <S**2>=0.000
     155 ->158         0.14201
     156 ->157         0.69548
     156 <-157        -0.10823
 This state for optimization and/or second-order correction.
 Total Energy, E(TD-HF/TD-DFT) =  -1706.76510736
 Copying the excited state density for this state as the 1-particle RhoCI density.

 The electronic state is 1-A.
 Alpha  occ. eigenvalues --  -19.22938 -19.19812 -10.31509 -10.30337 -10.30219
 Alpha  occ. eigenvalues --  -10.29142 -10.28210 -10.27683 -10.27587 -10.27511
 Alpha  occ. eigenvalues --  -10.27507 -10.27360 -10.27223 -10.27164 -10.27158
 Alpha  occ. eigenvalues --  -10.27039 -10.26977 -10.26897 -10.26889 -10.26887
 Alpha  occ. eigenvalues --  -10.26869 -10.26719 -10.26489 -10.26479 -10.26355
 Alpha  occ. eigenvalues --  -10.26218 -10.26027 -10.25898 -10.25830 -10.25793
 Alpha  occ. eigenvalues --  -10.25615 -10.25444 -10.25337 -10.25302 -10.25280
 Alpha  occ. eigenvalues --  -10.25257 -10.25106 -10.25036 -10.24720 -10.24589
 Alpha  occ. eigenvalues --  -10.24455 -10.23517  -1.07986  -1.06095  -0.93633
 Alpha  occ. eigenvalues --   -0.93181  -0.92519  -0.91960  -0.91409  -0.89967
 Alpha  occ. eigenvalues --   -0.88414  -0.86520  -0.86319  -0.85827  -0.85080
 Alpha  occ. eigenvalues --   -0.83886  -0.82682  -0.80221  -0.79637  -0.78426
 Alpha  occ. eigenvalues --   -0.76836  -0.76796  -0.76445  -0.75923  -0.75587
 Alpha  occ. eigenvalues --   -0.75173  -0.74467  -0.73994  -0.73116  -0.70917
 Alpha  occ. eigenvalues --   -0.69664  -0.68003  -0.65390  -0.64588  -0.64272
 Alpha  occ. eigenvalues --   -0.63507  -0.62579  -0.61799  -0.61344  -0.60796
 Alpha  occ. eigenvalues --   -0.59473  -0.58846  -0.58701  -0.57311  -0.56089
 Alpha  occ. eigenvalues --   -0.55496  -0.54954  -0.54756  -0.53964  -0.53081
 Alpha  occ. eigenvalues --   -0.52962  -0.52380  -0.51524  -0.51404  -0.50964
 Alpha  occ. eigenvalues --   -0.50189  -0.49949  -0.49785  -0.49331  -0.48978
 Alpha  occ. eigenvalues --   -0.48658  -0.48429  -0.48269  -0.47961  -0.47751
 Alpha  occ. eigenvalues --   -0.47520  -0.47119  -0.46869  -0.46608  -0.46226
 Alpha  occ. eigenvalues --   -0.46160  -0.45817  -0.45463  -0.44876  -0.44836
 Alpha  occ. eigenvalues --   -0.44173  -0.44050  -0.44011  -0.43548  -0.43197
 Alpha  occ. eigenvalues --   -0.42941  -0.42531  -0.42338  -0.41915  -0.41755
 Alpha  occ. eigenvalues --   -0.41468  -0.41091  -0.40959  -0.40657  -0.40551
 Alpha  occ. eigenvalues --   -0.40194  -0.39992  -0.39771  -0.39581  -0.39333
 Alpha  occ. eigenvalues --   -0.39253  -0.38964  -0.38882  -0.38117  -0.37694
 Alpha  occ. eigenvalues --   -0.37645  -0.37381  -0.36669  -0.36594  -0.36255
 Alpha  occ. eigenvalues --   -0.35153  -0.34858  -0.33759  -0.32677  -0.31982
 Alpha  occ. eigenvalues --   -0.31321  -0.30517  -0.28482  -0.26231  -0.22498
 Alpha  occ. eigenvalues --   -0.18414
 Alpha virt. eigenvalues --   -0.07027  -0.02039   0.01667   0.05308   0.06926
 Alpha virt. eigenvalues --    0.07821   0.09575   0.10645   0.11261   0.11524
 Alpha virt. eigenvalues --    0.11627   0.11917   0.12486   0.12566   0.13676

 Mulliken charges:
               1
     1  O   -0.543175
     2  O   -0.572384
     3  C   -0.035709
     4  C   -0.046416
     5  C   -0.198615
     6  C   -0.165659
     7  C    0.166762
     8  C    0.139960
     9  C    0.010533
    10  C    0.119478
    11  C   -0.234912
    12  C   -0.211763
    13  C    0.086212
    14  C   -0.002640
    15  C   -0.296332
    16  C   -0.309511
    17  C   -0.306978
    18  C   -0.298954
    19  C   -0.052861
    20  C   -0.125809
    21  C   -0.384914
    22  C   -0.336910
    23  C   -0.128322
    24  C   -0.065737
    25  C    0.109108
    26  C    0.082815
    27  C   -0.404463
    28  C   -0.367393
    29  C   -0.053752
    30  C   -0.147259
    31  C   -0.106708
    32  C   -0.058548
    33  C   -0.118471
    34  C   -0.114737
    35  C    0.130421
    36  C    0.130011
    37  C   -0.337726
    38  C   -0.387155
    39  C   -0.124545
    40  C   -0.128456
    41  C   -0.009001
    42  C   -0.127469
    43  H    0.110723
    44  H    0.091216
    45  H    0.074728
    46  H    0.092750
    47  H    0.079829
    48  H    0.105696
    49  H    0.117835
    50  H    0.107215
    51  H    0.129888
    52  H    0.125316
    53  H    0.110479
    54  H    0.080003
    55  H    0.120236
    56  H    0.120222
    57  H    0.098406
    58  H    0.082785
    59  H    0.079968
    60  H    0.082262
    61  H    0.107660
    62  H    0.092191
    63  H    0.096207
    64  H    0.115532
    65  H    0.083525
    66  H    0.087450
    67  H    0.123484
    68  H    0.130499
    69  H    0.071473
    70  H    0.100121
    71  H    0.123927
    72  H    0.077704
    73  H    0.286110
    74  H    0.292528
    75  H    0.092933
    76  H    0.077024
    77  H    0.103907
    78  H    0.137201
    79  H    0.131409
    80  H    0.134250
    81  H    0.095237
    82  H    0.099238
    83  H    0.058182
    84  H    0.078650
    85  H    0.073898
    86  H    0.093938
    87  H    0.069590
    88  H    0.070264
    89  H    0.092106
    90  H    0.103639
    91  H    0.094276
    92  H    0.129643
    93  H    0.109781
    94  H    0.105830
    95  H    0.053826
    96  H    0.063045
    97  H    0.071767
    98  H    0.090381
 Sum of Mulliken charges =  -0.00000

 Dipole moment (field-independent basis, Debye):
    X=              2.6108    Y=             -2.6505    Z=              0.7381  Tot=              3.7929
 Quadrupole moment (field-independent basis, Debye-Ang):
   XX=           -287.8689   YY=           -241.3084   ZZ=           -262.0603
   XY=             12.5210   XZ=            -11.9228   YZ=              1.8776

 Normal termination of Gaussian 16 at Sat Jul 20 09:36:42 2019.
