 Gaussian 16, Revision A.03,
 Gaussian 16:  ES64L-G16RevA.03 25-Dec-2016

 -------------------------------------
 # td=(NStates=1) CAM-B3LYP/6-31G(d,p)
 -------------------------------------

 --
 TD
 --
 Symbolic Z-matrix:
 Charge =  0 Multiplicity = 1

                         Standard orientation:
 ---------------------------------------------------------------------
 Center     Atomic      Atomic             Coordinates (Angstroms)
 Number     Number       Type             X           Y           Z
 ---------------------------------------------------------------------
      1          8           0       14.484956   -2.534102   -0.327511
      2          8           0      -14.784332    1.996176    0.914667
      3          6           0       11.079882   -1.565132    0.980825
      4          6           0      -12.297684   -1.032669    0.548347
      5          6           0       12.454370   -2.000628    0.995921
      6          6           0      -13.691636   -0.308461    0.526662
      7          6           0       13.144112   -2.147566   -0.342354
      8          6           0      -13.473215    1.218583    0.735712
      9          6           0       10.949154   -0.322920   -0.010677
     10          6           0      -11.251282   -0.332642   -0.276259
     11          6           0       13.186724   -0.793926   -1.097959
     12          6           0      -12.646148    1.851591   -0.527393
     13          6           0       11.951524    0.052027   -0.891162
     14          6           0      -11.395723    0.954705   -0.680610
     15          6           0       10.648724   -1.048982    2.327139
     16          6           0       10.155606   -2.622601    0.470321
     17          6           0      -11.806881   -1.113549    1.935208
     18          6           0      -12.534496   -2.447009   -0.110154
     19          6           0        9.672175    0.447221    0.061364
     20          6           0       -9.991851   -1.114200   -0.414252
     21          6           0       11.934710    1.361176   -1.718726
     22          6           0      -10.473649    1.758032   -1.569280
     23          6           0        9.366656    1.707940   -0.086405
     24          6           0       -8.772682   -0.555000   -0.279327
     25          6           0        8.048535    2.397525    0.128870
     26          6           0       -7.580631   -1.369287   -0.403699
     27          6           0        8.166272    3.824134    0.420774
     28          6           0       -7.586730   -2.685084   -1.004501
     29          6           0        6.936770    1.646113   -0.057404
     30          6           0       -6.380550   -0.637778   -0.136267
     31          6           0        5.586893    2.237446    0.215080
     32          6           0       -5.122707   -1.155483   -0.287035
     33          6           0        4.468955    1.500196   -0.038544
     34          6           0       -3.891287   -0.462162   -0.106418
     35          6           0        3.115138    1.844005    0.184481
     36          6           0       -2.614522   -0.794751   -0.361860
     37          6           0        2.772115    3.150946    0.707595
     38          6           0       -2.288221   -2.205470   -0.719175
     39          6           0        2.130497    0.957387   -0.147122
     40          6           0       -1.544047    0.133478   -0.042625
     41          6           0        0.629822    1.140321    0.087033
     42          6           0       -0.193075    0.012416   -0.227357
     43          1           0       13.065285   -1.256758    1.328761
     44          1           0       12.555185   -2.808855    1.638103
     45          1           0      -14.225204   -0.649133    1.328185
     46          1           0      -14.135303   -0.314766   -0.447479
     47          1           0       12.519293   -2.745754   -0.921853
     48          1           0      -12.932367    1.463837    1.563115
     49          1           0       13.982963   -0.228343   -0.650346
     50          1           0       13.669057   -0.851153   -2.088081
     51          1           0      -13.451075    1.727251   -1.434961
     52          1           0      -12.335556    2.781335   -0.205902
     53          1           0       10.625094   -1.970783    3.085420
     54          1           0        9.638704   -0.530584    2.124007
     55          1           0       11.304801   -0.244294    2.594597
     56          1           0       10.278544   -3.215032   -0.524738
     57          1           0       10.318819   -3.381611    1.186622
     58          1           0        9.141391   -2.457650    0.585671
     59          1           0      -11.480455   -0.131860    2.371453
     60          1           0      -10.777223   -1.670976    1.941591
     61          1           0      -12.670180   -1.675655    2.660563
     62          1           0      -13.515174   -2.868519    0.285854
     63          1           0      -11.718438   -3.080340    0.057084
     64          1           0      -12.752952   -2.392898   -1.169435
     65          1           0        8.739377   -0.334380    0.371809
     66          1           0      -10.098422   -2.058907   -0.574574
     67          1           0       10.913240    1.791621   -2.256646
     68          1           0       12.444590    2.039865   -1.112998
     69          1           0       12.606103    1.254178   -2.714312
     70          1           0      -11.003526    2.347103   -2.373330
     71          1           0       -9.818860    1.016796   -2.080857
     72          1           0       -9.846799    2.350120   -1.111233
     73          1           0       14.485417   -3.389937    0.237206
     74          1           0      -15.196721    1.470750    1.608369
     75          1           0        9.911771    2.500413   -0.280832
     76          1           0       -8.616628    0.584309   -0.102032
     77          1           0        9.126344    4.307305    0.341872
     78          1           0        7.473061    4.487639   -0.318731
     79          1           0        7.745263    4.111108    1.419327
     80          1           0       -8.347963   -3.334182   -0.279085
     81          1           0       -7.837809   -2.771468   -2.272875
     82          1           0       -6.612981   -3.305494   -0.697140
     83          1           0        7.139057    0.742675   -0.521919
     84          1           0       -6.517100    0.389255    0.230141
     85          1           0        5.401425    3.292343    0.627259
     86          1           0       -4.985077   -2.147263   -0.633885
     87          1           0        4.594248    0.447037   -0.215938
     88          1           0       -3.980032    0.588602    0.007368
     89          1           0        2.779624    3.278350    1.921804
     90          1           0        1.868070    3.582723    0.659990
     91          1           0        3.638880    3.951981    0.324233
     92          1           0       -3.093728   -3.039702   -0.144948
     93          1           0       -2.486224   -2.297310   -2.007076
     94          1           0       -1.299414   -2.422046   -0.456028
     95          1           0        2.498205    0.114806   -0.718108
     96          1           0       -1.864145    1.061786    0.644921
     97          1           0        0.151902    2.066878    0.527296
     98          1           0        0.208933   -0.750645   -0.787129
 ---------------------------------------------------------------------

 SCF Done:  E(RCAM-B3LYP) =  -1706.91184598     A.U. after   15 cycles

 Excitation energies and oscillator strengths:

 Excited State   1:      Singlet-A      2.0583 eV  602.36 nm  f=3.4873  <S**2>=0.000
     155 ->158        -0.12636
     156 ->157         0.69975
     156 <-157        -0.11302
 This state for optimization and/or second-order correction.
 Total Energy, E(TD-HF/TD-DFT) =  -1706.83620449
 Copying the excited state density for this state as the 1-particle RhoCI density.

 The electronic state is 1-A.
 Alpha  occ. eigenvalues --  -19.22503 -19.19747 -10.29545 -10.29512 -10.29374
 Alpha  occ. eigenvalues --  -10.28989 -10.28490 -10.27609 -10.27518 -10.27371
 Alpha  occ. eigenvalues --  -10.27266 -10.27227 -10.27175 -10.27111 -10.27090
 Alpha  occ. eigenvalues --  -10.26993 -10.26836 -10.26760 -10.26756 -10.26740
 Alpha  occ. eigenvalues --  -10.26637 -10.26637 -10.26584 -10.26478 -10.26341
 Alpha  occ. eigenvalues --  -10.26311 -10.26274 -10.26208 -10.25749 -10.25714
 Alpha  occ. eigenvalues --  -10.25686 -10.25419 -10.25229 -10.25116 -10.24919
 Alpha  occ. eigenvalues --  -10.24729 -10.24590 -10.24544 -10.24208 -10.24183
 Alpha  occ. eigenvalues --  -10.23598 -10.23115  -1.10140  -1.05387  -0.94410
 Alpha  occ. eigenvalues --   -0.93728  -0.92221  -0.91824  -0.90838  -0.90426
 Alpha  occ. eigenvalues --   -0.87438  -0.87217  -0.86569  -0.85233  -0.84753
 Alpha  occ. eigenvalues --   -0.82921  -0.81833  -0.80402  -0.79386  -0.77561
 Alpha  occ. eigenvalues --   -0.77425  -0.76654  -0.76414  -0.76199  -0.76002
 Alpha  occ. eigenvalues --   -0.75586  -0.75205  -0.74632  -0.73100  -0.71069
 Alpha  occ. eigenvalues --   -0.68827  -0.67191  -0.66071  -0.65302  -0.64060
 Alpha  occ. eigenvalues --   -0.63717  -0.63155  -0.62342  -0.60709  -0.59908
 Alpha  occ. eigenvalues --   -0.59690  -0.58954  -0.58099  -0.57384  -0.57146
 Alpha  occ. eigenvalues --   -0.55997  -0.55728  -0.54716  -0.54019  -0.53840
 Alpha  occ. eigenvalues --   -0.53464  -0.52768  -0.51908  -0.51730  -0.50756
 Alpha  occ. eigenvalues --   -0.49976  -0.49862  -0.49542  -0.49406  -0.49265
 Alpha  occ. eigenvalues --   -0.48623  -0.48400  -0.48190  -0.47941  -0.47510
 Alpha  occ. eigenvalues --   -0.47216  -0.46889  -0.46372  -0.46220  -0.46171
 Alpha  occ. eigenvalues --   -0.45890  -0.45611  -0.45592  -0.45054  -0.45001
 Alpha  occ. eigenvalues --   -0.44716  -0.44664  -0.44320  -0.43820  -0.43708
 Alpha  occ. eigenvalues --   -0.43435  -0.43143  -0.42889  -0.42354  -0.42239
 Alpha  occ. eigenvalues --   -0.42132  -0.41905  -0.41793  -0.41623  -0.41535
 Alpha  occ. eigenvalues --   -0.40409  -0.40188  -0.39965  -0.39712  -0.39577
 Alpha  occ. eigenvalues --   -0.39304  -0.38908  -0.38423  -0.37977  -0.37795
 Alpha  occ. eigenvalues --   -0.37667  -0.37363  -0.36616  -0.35636  -0.35563
 Alpha  occ. eigenvalues --   -0.35127  -0.34352  -0.33497  -0.32369  -0.32019
 Alpha  occ. eigenvalues --   -0.31536  -0.29841  -0.27999  -0.26362  -0.23563
 Alpha  occ. eigenvalues --   -0.18865
 Alpha virt. eigenvalues --   -0.06533  -0.00628   0.02637   0.05542   0.07339
 Alpha virt. eigenvalues --    0.09123   0.10785   0.11318   0.11656   0.12171
 Alpha virt. eigenvalues --    0.12406   0.12529   0.12716   0.12897   0.13085

 Mulliken charges:
               1
     1  O   -0.551191
     2  O   -0.580960
     3  C   -0.017391
     4  C   -0.021590
     5  C   -0.185570
     6  C   -0.175385
     7  C    0.166952
     8  C    0.115266
     9  C    0.052323
    10  C    0.084139
    11  C   -0.249062
    12  C   -0.213548
    13  C    0.051222
    14  C    0.006331
    15  C   -0.285107
    16  C   -0.299078
    17  C   -0.282804
    18  C   -0.313917
    19  C   -0.134570
    20  C   -0.121235
    21  C   -0.359315
    22  C   -0.371946
    23  C   -0.066149
    24  C   -0.078044
    25  C    0.092475
    26  C    0.113017
    27  C   -0.394121
    28  C   -0.357508
    29  C   -0.117079
    30  C   -0.098312
    31  C   -0.109594
    32  C   -0.094000
    33  C   -0.114215
    34  C   -0.117079
    35  C    0.177013
    36  C    0.114216
    37  C   -0.370824
    38  C   -0.339029
    39  C   -0.163832
    40  C   -0.132679
    41  C   -0.102653
    42  C   -0.056422
    43  H    0.108443
    44  H    0.077437
    45  H    0.086215
    46  H    0.110011
    47  H    0.083072
    48  H    0.095503
    49  H    0.120484
    50  H    0.117762
    51  H    0.108629
    52  H    0.124384
    53  H    0.080707
    54  H    0.106863
    55  H    0.116521
    56  H    0.102539
    57  H    0.093714
    58  H    0.110513
    59  H    0.111791
    60  H    0.097686
    61  H    0.067304
    62  H    0.090699
    63  H    0.109193
    64  H    0.113567
    65  H    0.067533
    66  H    0.071894
    67  H    0.108768
    68  H    0.137904
    69  H    0.081688
    70  H    0.105447
    71  H    0.110092
    72  H    0.127352
    73  H    0.305763
    74  H    0.297609
    75  H    0.062601
    76  H    0.091713
    77  H    0.122152
    78  H    0.102866
    79  H    0.128330
    80  H    0.092021
    81  H    0.110334
    82  H    0.106045
    83  H    0.093095
    84  H    0.081661
    85  H    0.090888
    86  H    0.074373
    87  H    0.080758
    88  H    0.070226
    89  H    0.089528
    90  H    0.124154
    91  H    0.085296
    92  H    0.089518
    93  H    0.081356
    94  H    0.121210
    95  H    0.084783
    96  H    0.076268
    97  H    0.100975
    98  H    0.094017
 Sum of Mulliken charges =  -0.00000

 Dipole moment (field-independent basis, Debye):
    X=              2.6713    Y=             -1.8042    Z=              1.2935  Tot=              3.4734
 Quadrupole moment (field-independent basis, Debye-Ang):
   XX=           -295.9235   YY=           -243.7062   ZZ=           -262.0246
   XY=             20.8749   XZ=              3.2091   YZ=              1.1545

 Normal termination of Gaussian 16 at Fri Jul 12 02:57:50 2019.
