 Gaussian 16, Revision A.03,
 Gaussian 16:  ES64L-G16RevA.03 25-Dec-2016

 -------------------------------------
 # td=(NStates=1) CAM-B3LYP/6-31G(d,p)
 -------------------------------------

 --
 TD
 --
 Symbolic Z-matrix:
 Charge =  0 Multiplicity = 1

                         Standard orientation:
 ---------------------------------------------------------------------
 Center     Atomic      Atomic             Coordinates (Angstroms)
 Number     Number       Type             X           Y           Z
 ---------------------------------------------------------------------
      1          8           0       14.784255   -2.282387   -0.232003
      2          8           0      -14.896596    1.926150    0.975643
      3          6           0       11.239444   -1.398602    0.884386
      4          6           0      -12.321035   -0.934906    0.541475
      5          6           0       12.710959   -1.834374    0.995928
      6          6           0      -13.656415   -0.151605    0.604049
      7          6           0       13.362997   -1.762335   -0.325530
      8          6           0      -13.568477    1.199022    0.840535
      9          6           0       11.026101   -0.169374   -0.023393
     10          6           0      -11.306533   -0.148726   -0.179401
     11          6           0       13.373073   -0.342275   -0.825860
     12          6           0      -12.671283    1.862187   -0.282749
     13          6           0       11.974637    0.302496   -0.945232
     14          6           0      -11.530329    1.079099   -0.698317
     15          6           0       10.691333   -1.168585    2.262705
     16          6           0       10.393005   -2.609479    0.400773
     17          6           0      -11.803903   -1.409575    2.012763
     18          6           0      -12.527854   -2.348900   -0.127023
     19          6           0        9.639201    0.330320    0.086136
     20          6           0      -10.092181   -0.902950   -0.446875
     21          6           0       11.789841    1.364122   -1.884491
     22          6           0      -10.545157    2.005907   -1.466322
     23          6           0        9.299523    1.631803    0.094895
     24          6           0       -8.771462   -0.534580   -0.406614
     25          6           0        8.021579    2.194343    0.269291
     26          6           0       -7.608272   -1.297424   -0.556904
     27          6           0        7.963766    3.616783    0.831120
     28          6           0       -7.696668   -2.630041   -1.005512
     29          6           0        6.819311    1.496482    0.025119
     30          6           0       -6.403216   -0.609888   -0.377705
     31          6           0        5.542288    2.032910    0.165503
     32          6           0       -5.075085   -1.186573   -0.485380
     33          6           0        4.448343    1.219066   -0.141191
     34          6           0       -3.947945   -0.465471   -0.123749
     35          6           0        3.118069    1.725271   -0.051724
     36          6           0       -2.575884   -0.894146   -0.315237
     37          6           0        2.797831    3.111805    0.440376
     38          6           0       -2.359012   -2.265290   -0.793676
     39          6           0        2.044121    0.704226   -0.165278
     40          6           0       -1.583497    0.046297   -0.080163
     41          6           0        0.766120    0.780794    0.006229
     42          6           0       -0.166669   -0.093991   -0.258763
     43          1           0       13.184288   -1.316038    1.645753
     44          1           0       12.778574   -2.818531    1.444896
     45          1           0      -14.447473   -0.740131    1.342412
     46          1           0      -13.992426   -0.326604   -0.388566
     47          1           0       12.839117   -2.291739   -1.174824
     48          1           0      -13.046730    1.222608    1.882402
     49          1           0       13.860728    0.358918   -0.116680
     50          1           0       13.865573   -0.214951   -1.802916
     51          1           0      -13.703106    1.993087   -1.057191
     52          1           0      -12.330684    2.742518    0.177171
     53          1           0       11.135314   -1.958715    2.883868
     54          1           0        9.611075   -1.226259    2.248002
     55          1           0       11.045890   -0.289443    2.813725
     56          1           0       10.338508   -3.016632   -0.684382
     57          1           0       10.443880   -3.500899    0.940068
     58          1           0        9.236213   -2.423098    0.415128
     59          1           0      -11.734412   -0.489006    2.601152
     60          1           0      -10.710930   -1.842623    1.869234
     61          1           0      -12.567961   -2.090447    2.543050
     62          1           0      -13.418173   -2.830840    0.278745
     63          1           0      -11.732722   -3.087100   -0.013738
     64          1           0      -12.922239   -2.081399   -1.096432
     65          1           0        8.651759   -0.402721    0.158658
     66          1           0      -10.189511   -1.947675   -0.754350
     67          1           0       10.730220    1.789306   -1.995190
     68          1           0       12.576424    2.402971   -1.667700
     69          1           0       11.972460    0.957639   -2.918955
     70          1           0      -10.870571    2.605358   -2.148432
     71          1           0       -9.931318    1.346254   -1.978012
     72          1           0      -10.127171    2.582828   -0.576322
     73          1           0       14.700192   -3.319652    0.015120
     74          1           0      -15.401349    1.352510    1.605817
     75          1           0       10.252867    2.209277    0.147094
     76          1           0       -8.654737    0.530256    0.158903
     77          1           0        9.049610    4.024801    1.105598
     78          1           0        7.635161    4.327220   -0.009668
     79          1           0        7.210582    3.820624    1.637729
     80          1           0       -8.285800   -3.239856   -0.323814
     81          1           0       -8.186100   -2.678472   -1.981158
     82          1           0       -6.647486   -3.166692   -1.344290
     83          1           0        6.912571    0.503156   -0.331124
     84          1           0       -6.510088    0.324403   -0.023069
     85          1           0        5.479549    3.191083    0.364216
     86          1           0       -5.023381   -2.212698   -0.890589
     87          1           0        4.517716    0.098928   -0.404799
     88          1           0       -3.963647    0.572210    0.010198
     89          1           0        2.679619    3.061795    1.655478
     90          1           0        1.737956    3.578384    0.017382
     91          1           0        3.642591    3.688415    0.155555
     92          1           0       -3.150126   -2.997705   -0.334419
     93          1           0       -2.387180   -2.045167   -1.946862
     94          1           0       -1.359690   -2.661556   -0.428954
     95          1           0        2.534130   -0.325466   -0.430885
     96          1           0       -1.862699    1.104718    0.343758
     97          1           0        0.398941    1.735964    0.353498
     98          1           0        0.170944   -0.996270   -0.905564
 ---------------------------------------------------------------------

 SCF Done:  E(RCAM-B3LYP) =  -1706.95749953     A.U. after   15 cycles

 Excitation energies and oscillator strengths:

 Excited State   1:      Singlet-A      2.0185 eV  614.23 nm  f=3.6938  <S**2>=0.000
     155 ->158         0.14341
     156 ->157         0.69413
 This state for optimization and/or second-order correction.
 Total Energy, E(TD-HF/TD-DFT) =  -1706.88331979
 Copying the excited state density for this state as the 1-particle RhoCI density.

 The electronic state is 1-A.
 Alpha  occ. eigenvalues --  -19.21381 -19.21285 -10.30761 -10.30415 -10.28189
 Alpha  occ. eigenvalues --  -10.28097 -10.27957 -10.27928 -10.27810 -10.27718
 Alpha  occ. eigenvalues --  -10.27463 -10.27454 -10.27381 -10.27336 -10.27304
 Alpha  occ. eigenvalues --  -10.27230 -10.27032 -10.26978 -10.26969 -10.26937
 Alpha  occ. eigenvalues --  -10.26920 -10.26779 -10.26628 -10.26549 -10.26370
 Alpha  occ. eigenvalues --  -10.26260 -10.26216 -10.26214 -10.26155 -10.26005
 Alpha  occ. eigenvalues --  -10.25834 -10.25765 -10.25606 -10.25493 -10.25490
 Alpha  occ. eigenvalues --  -10.25444 -10.25399 -10.24788 -10.24419 -10.24079
 Alpha  occ. eigenvalues --  -10.24016 -10.23687  -1.06422  -1.04865  -0.94903
 Alpha  occ. eigenvalues --   -0.93980  -0.92542  -0.92087  -0.91202  -0.90188
 Alpha  occ. eigenvalues --   -0.88265  -0.87757  -0.87211  -0.86206  -0.85319
 Alpha  occ. eigenvalues --   -0.83753  -0.82569  -0.80641  -0.80157  -0.78507
 Alpha  occ. eigenvalues --   -0.77448  -0.76799  -0.76567  -0.75720  -0.75647
 Alpha  occ. eigenvalues --   -0.75588  -0.75310  -0.74900  -0.73329  -0.70600
 Alpha  occ. eigenvalues --   -0.68836  -0.67138  -0.65838  -0.65076  -0.64574
 Alpha  occ. eigenvalues --   -0.64108  -0.62407  -0.61050  -0.60265  -0.59645
 Alpha  occ. eigenvalues --   -0.59238  -0.58069  -0.58011  -0.57334  -0.55874
 Alpha  occ. eigenvalues --   -0.55094  -0.54964  -0.54591  -0.54075  -0.53886
 Alpha  occ. eigenvalues --   -0.53273  -0.52709  -0.52408  -0.52022  -0.51064
 Alpha  occ. eigenvalues --   -0.50572  -0.50548  -0.50264  -0.49919  -0.49486
 Alpha  occ. eigenvalues --   -0.49360  -0.49045  -0.48720  -0.48486  -0.47983
 Alpha  occ. eigenvalues --   -0.47690  -0.47026  -0.46879  -0.46846  -0.46703
 Alpha  occ. eigenvalues --   -0.46283  -0.46178  -0.45738  -0.45034  -0.44573
 Alpha  occ. eigenvalues --   -0.44368  -0.44262  -0.43951  -0.43701  -0.43214
 Alpha  occ. eigenvalues --   -0.42712  -0.42528  -0.42269  -0.41955  -0.41913
 Alpha  occ. eigenvalues --   -0.41847  -0.41486  -0.41389  -0.41242  -0.41090
 Alpha  occ. eigenvalues --   -0.40641  -0.40500  -0.40139  -0.39882  -0.38958
 Alpha  occ. eigenvalues --   -0.38879  -0.38782  -0.38688  -0.38441  -0.38197
 Alpha  occ. eigenvalues --   -0.37759  -0.37497  -0.37216  -0.36387  -0.35836
 Alpha  occ. eigenvalues --   -0.35258  -0.34926  -0.34554  -0.32435  -0.32341
 Alpha  occ. eigenvalues --   -0.32018  -0.29632  -0.28272  -0.26095  -0.23165
 Alpha  occ. eigenvalues --   -0.18752
 Alpha virt. eigenvalues --   -0.06318  -0.01411   0.02026   0.05233   0.06709
 Alpha virt. eigenvalues --    0.08975   0.10630   0.11145   0.11326   0.11523
 Alpha virt. eigenvalues --    0.12032   0.12450   0.12674   0.13048   0.13424

 Mulliken charges:
               1
     1  O   -0.584405
     2  O   -0.570568
     3  C   -0.023137
     4  C   -0.049540
     5  C   -0.163359
     6  C   -0.165132
     7  C    0.160403
     8  C    0.147130
     9  C    0.045843
    10  C    0.117390
    11  C   -0.217467
    12  C   -0.221765
    13  C    0.080026
    14  C    0.018479
    15  C   -0.296555
    16  C   -0.311866
    17  C   -0.297481
    18  C   -0.304192
    19  C   -0.099611
    20  C   -0.166115
    21  C   -0.369481
    22  C   -0.330056
    23  C   -0.126921
    24  C   -0.107218
    25  C    0.091428
    26  C    0.148894
    27  C   -0.381803
    28  C   -0.396236
    29  C   -0.101357
    30  C   -0.102832
    31  C   -0.103119
    32  C   -0.101758
    33  C   -0.105249
    34  C   -0.098403
    35  C    0.086810
    36  C    0.104618
    37  C   -0.347879
    38  C   -0.365560
    39  C   -0.131985
    40  C   -0.142417
    41  C   -0.037463
    42  C   -0.089899
    43  H    0.112514
    44  H    0.080272
    45  H    0.053370
    46  H    0.098452
    47  H    0.089362
    48  H    0.063808
    49  H    0.119056
    50  H    0.106543
    51  H    0.098796
    52  H    0.122643
    53  H    0.092771
    54  H    0.111762
    55  H    0.103376
    56  H    0.090350
    57  H    0.112434
    58  H    0.082272
    59  H    0.098955
    60  H    0.098390
    61  H    0.096491
    62  H    0.099445
    63  H    0.113237
    64  H    0.103167
    65  H    0.073581
    66  H    0.082427
    67  H    0.127592
    68  H    0.075240
    69  H    0.115590
    70  H    0.122501
    71  H    0.124156
    72  H    0.113556
    73  H    0.302536
    74  H    0.305241
    75  H    0.092178
    76  H    0.067008
    77  H    0.101270
    78  H    0.113509
    79  H    0.125304
    80  H    0.124893
    81  H    0.131894
    82  H    0.089646
    83  H    0.077020
    84  H    0.072863
    85  H    0.093252
    86  H    0.084954
    87  H    0.095973
    88  H    0.084139
    89  H    0.114214
    90  H    0.100564
    91  H    0.118315
    92  H    0.113146
    93  H    0.128890
    94  H    0.114835
    95  H    0.057667
    96  H    0.074438
    97  H    0.071349
    98  H    0.072601
 Sum of Mulliken charges =  -0.00000

 Dipole moment (field-independent basis, Debye):
    X=              0.0302    Y=             -2.1632    Z=              0.4013  Tot=              2.2003
 Quadrupole moment (field-independent basis, Debye-Ang):
   XX=           -306.7727   YY=           -244.2258   ZZ=           -261.5567
   XY=             20.6455   XZ=             -0.5108   YZ=              1.4641

 Normal termination of Gaussian 16 at Wed Jul 10 15:57:32 2019.
