 Gaussian 16, Revision A.03,
 Gaussian 16:  ES64L-G16RevA.03 25-Dec-2016

 -------------------------------------
 # td=(NStates=1) CAM-B3LYP/6-31G(d,p)
 -------------------------------------

 --
 TD
 --
 Symbolic Z-matrix:
 Charge =  0 Multiplicity = 1

                         Standard orientation:
 ---------------------------------------------------------------------
 Center     Atomic      Atomic             Coordinates (Angstroms)
 Number     Number       Type             X           Y           Z
 ---------------------------------------------------------------------
      1          8           0       14.723733   -2.265229   -0.442196
      2          8           0      -14.795120    2.034456    0.524183
      3          6           0       11.142606   -1.543705    0.734070
      4          6           0      -12.383200   -0.991803    0.529751
      5          6           0       12.748937   -1.842105    0.832901
      6          6           0      -13.630333   -0.250816    0.539543
      7          6           0       13.389362   -1.938409   -0.525988
      8          6           0      -13.617735    1.278245    0.615233
      9          6           0       11.011086   -0.247684   -0.107639
     10          6           0      -11.223174   -0.266956   -0.339608
     11          6           0       13.246255   -0.446920   -1.185381
     12          6           0      -12.756562    1.762887   -0.557613
     13          6           0       11.942973    0.189368   -0.943283
     14          6           0      -11.475761    1.006676   -0.764607
     15          6           0       10.675677   -1.219414    2.226551
     16          6           0       10.224809   -2.763661    0.292242
     17          6           0      -11.953587   -1.128639    1.889591
     18          6           0      -12.681087   -2.408793    0.031348
     19          6           0        9.667464    0.358972    0.052572
     20          6           0      -10.015333   -0.996630   -0.428500
     21          6           0       11.822012    1.471632   -1.796940
     22          6           0      -10.474363    1.692528   -1.761843
     23          6           0        9.379229    1.657299    0.021296
     24          6           0       -8.727334   -0.559965   -0.265212
     25          6           0        8.010532    2.259310    0.193219
     26          6           0       -7.555505   -1.371468   -0.423209
     27          6           0        7.858517    3.662235    0.516155
     28          6           0       -7.627978   -2.839650   -0.755355
     29          6           0        6.839465    1.504765    0.089360
     30          6           0       -6.381710   -0.671878   -0.320826
     31          6           0        5.649742    1.958022    0.444653
     32          6           0       -5.075834   -1.194985   -0.390292
     33          6           0        4.445505    1.215435    0.286079
     34          6           0       -3.940946   -0.295836   -0.279054
     35          6           0        3.096638    1.842140    0.384171
     36          6           0       -2.601633   -0.761469   -0.183187
     37          6           0        2.888634    3.266905    0.632358
     38          6           0       -2.279718   -2.250635   -0.550265
     39          6           0        2.059589    0.925051    0.052695
     40          6           0       -1.632780    0.161482    0.104497
     41          6           0        0.678077    1.060229    0.309319
     42          6           0       -0.221388    0.070831   -0.008808
     43          1           0       13.150683   -0.867945    1.188862
     44          1           0       12.864458   -2.765768    1.419721
     45          1           0      -14.452785   -0.605724    1.218017
     46          1           0      -14.251561   -0.457214   -0.311560
     47          1           0       12.697171   -2.716374   -1.246736
     48          1           0      -12.788325    1.581604    1.469968
     49          1           0       14.042487    0.135144   -0.639726
     50          1           0       13.447145   -0.534922   -2.256773
     51          1           0      -13.248808    1.640557   -1.372346
     52          1           0      -12.746248    2.892141   -0.317593
     53          1           0       10.636524   -2.171188    2.865043
     54          1           0        9.556934   -0.888783    2.336102
     55          1           0       11.245230   -0.368483    2.731081
     56          1           0       10.602279   -3.156974   -0.727480
     57          1           0       10.655515   -3.479720    1.174914
     58          1           0        9.239033   -2.450348    0.297765
     59          1           0      -11.898608   -0.258497    2.502649
     60          1           0      -10.960993   -1.771459    2.040993
     61          1           0      -12.766522   -1.958651    2.538356
     62          1           0      -13.395536   -2.825979    0.543694
     63          1           0      -11.812517   -3.095740    0.175192
     64          1           0      -12.851943   -2.342797   -1.035372
     65          1           0        8.922126   -0.611890    0.245446
     66          1           0       -9.965442   -2.051458   -0.430345
     67          1           0       10.720516    1.551812   -2.173456
     68          1           0       12.236577    2.333185   -1.396646
     69          1           0       12.592313    1.268016   -2.645912
     70          1           0      -10.996848    2.484135   -2.375338
     71          1           0       -9.834247    1.155773   -2.117203
     72          1           0       -9.759014    2.373958   -1.069733
     73          1           0       14.818007   -3.359529   -0.265475
     74          1           0      -15.343362    1.648807    1.202876
     75          1           0       10.056028    2.319658    0.198402
     76          1           0       -8.481727    0.530011   -0.177161
     77          1           0        8.727338    4.184694    0.400911
     78          1           0        7.168982    4.019860    0.007866
     79          1           0        7.390133    3.875897    1.574031
     80          1           0       -8.518769   -3.212217   -0.107191
     81          1           0       -7.896958   -3.109812   -1.970759
     82          1           0       -6.478240   -3.391126   -0.409609
     83          1           0        7.079260    0.528964   -0.057051
     84          1           0       -6.466531    0.351861   -0.254529
     85          1           0        5.556424    2.969163    1.004456
     86          1           0       -4.994999   -2.124737   -0.836695
     87          1           0        4.664342    0.233916   -0.227764
     88          1           0       -4.041025    0.821330    0.088592
     89          1           0        3.358736    3.298384    1.670583
     90          1           0        1.874182    4.034189    0.395991
     91          1           0        3.740288    3.891545    0.083443
     92          1           0       -3.188267   -2.809112    0.053094
     93          1           0       -2.329214   -2.342292   -1.726526
     94          1           0       -1.171303   -2.557077    0.139846
     95          1           0        2.342601   -0.229175   -0.031341
     96          1           0       -2.034254    1.017238    0.407452
     97          1           0        0.474123    1.959378    0.890075
     98          1           0        0.258818   -0.855620   -0.480954
 ---------------------------------------------------------------------

 SCF Done:  E(RCAM-B3LYP) =  -1706.78902284     A.U. after   15 cycles

 Excitation energies and oscillator strengths:

 Excited State   1:      Singlet-A      2.0889 eV  593.53 nm  f=3.6580  <S**2>=0.000
     155 ->158        -0.16449
     156 ->157         0.68647
 This state for optimization and/or second-order correction.
 Total Energy, E(TD-HF/TD-DFT) =  -1706.71225553
 Copying the excited state density for this state as the 1-particle RhoCI density.

 The electronic state is 1-A.
 Alpha  occ. eigenvalues --  -19.23271 -19.23152 -10.32117 -10.31204 -10.29867
 Alpha  occ. eigenvalues --  -10.29628 -10.29211 -10.28997 -10.28520 -10.27824
 Alpha  occ. eigenvalues --  -10.27661 -10.27268 -10.27162 -10.26896 -10.26874
 Alpha  occ. eigenvalues --  -10.26802 -10.26705 -10.26663 -10.26641 -10.26622
 Alpha  occ. eigenvalues --  -10.26433 -10.26287 -10.26237 -10.26223 -10.26126
 Alpha  occ. eigenvalues --  -10.26091 -10.26084 -10.25893 -10.25867 -10.25732
 Alpha  occ. eigenvalues --  -10.25685 -10.25525 -10.25183 -10.25041 -10.24930
 Alpha  occ. eigenvalues --  -10.24751 -10.24667 -10.24564 -10.23814 -10.23507
 Alpha  occ. eigenvalues --  -10.23313 -10.23249  -1.11749  -1.09495  -0.94181
 Alpha  occ. eigenvalues --   -0.93187  -0.92024  -0.91659  -0.90773  -0.89715
 Alpha  occ. eigenvalues --   -0.87754  -0.86786  -0.86314  -0.85787  -0.84924
 Alpha  occ. eigenvalues --   -0.83078  -0.82094  -0.80362  -0.79561  -0.77434
 Alpha  occ. eigenvalues --   -0.76847  -0.76826  -0.76104  -0.75591  -0.75039
 Alpha  occ. eigenvalues --   -0.75003  -0.74250  -0.74201  -0.73196  -0.70583
 Alpha  occ. eigenvalues --   -0.68894  -0.67501  -0.65745  -0.64453  -0.64051
 Alpha  occ. eigenvalues --   -0.63357  -0.62619  -0.61488  -0.60000  -0.59742
 Alpha  occ. eigenvalues --   -0.59173  -0.58753  -0.57795  -0.56915  -0.56433
 Alpha  occ. eigenvalues --   -0.56128  -0.55517  -0.55034  -0.54154  -0.53838
 Alpha  occ. eigenvalues --   -0.53493  -0.52464  -0.52061  -0.51574  -0.51461
 Alpha  occ. eigenvalues --   -0.50541  -0.50151  -0.49805  -0.49651  -0.49550
 Alpha  occ. eigenvalues --   -0.48699  -0.48546  -0.48363  -0.48170  -0.47890
 Alpha  occ. eigenvalues --   -0.47531  -0.47361  -0.47160  -0.46605  -0.46314
 Alpha  occ. eigenvalues --   -0.46141  -0.45899  -0.45516  -0.44705  -0.44595
 Alpha  occ. eigenvalues --   -0.44088  -0.43702  -0.43335  -0.43278  -0.43108
 Alpha  occ. eigenvalues --   -0.42935  -0.42622  -0.42317  -0.42264  -0.42003
 Alpha  occ. eigenvalues --   -0.41982  -0.41318  -0.41266  -0.41086  -0.40796
 Alpha  occ. eigenvalues --   -0.40392  -0.40116  -0.39947  -0.39505  -0.39408
 Alpha  occ. eigenvalues --   -0.39031  -0.38746  -0.38565  -0.38453  -0.38280
 Alpha  occ. eigenvalues --   -0.37380  -0.36940  -0.35901  -0.35695  -0.35294
 Alpha  occ. eigenvalues --   -0.34829  -0.33810  -0.33488  -0.32432  -0.32239
 Alpha  occ. eigenvalues --   -0.31873  -0.29761  -0.28357  -0.26096  -0.22544
 Alpha  occ. eigenvalues --   -0.19008
 Alpha virt. eigenvalues --   -0.05886  -0.01636   0.02472   0.05396   0.07417
 Alpha virt. eigenvalues --    0.08324   0.09766   0.10719   0.10848   0.10970
 Alpha virt. eigenvalues --    0.11257   0.12015   0.12202   0.12641   0.12849

 Mulliken charges:
               1
     1  O   -0.546631
     2  O   -0.533478
     3  C   -0.057659
     4  C   -0.002872
     5  C   -0.167915
     6  C   -0.193231
     7  C    0.183576
     8  C    0.150822
     9  C    0.084521
    10  C    0.078829
    11  C   -0.252891
    12  C   -0.207889
    13  C    0.051534
    14  C    0.014723
    15  C   -0.299799
    16  C   -0.277371
    17  C   -0.251112
    18  C   -0.292419
    19  C   -0.091182
    20  C   -0.142363
    21  C   -0.355698
    22  C   -0.320428
    23  C   -0.100089
    24  C   -0.090899
    25  C    0.049335
    26  C    0.124389
    27  C   -0.365596
    28  C   -0.343197
    29  C   -0.077795
    30  C   -0.105412
    31  C   -0.089010
    32  C   -0.117608
    33  C   -0.131568
    34  C   -0.124551
    35  C    0.103376
    36  C    0.105712
    37  C   -0.378214
    38  C   -0.341166
    39  C   -0.134704
    40  C   -0.095782
    41  C   -0.063997
    42  C   -0.105660
    43  H    0.107679
    44  H    0.075560
    45  H    0.070085
    46  H    0.096116
    47  H    0.027416
    48  H    0.046159
    49  H    0.121920
    50  H    0.118438
    51  H    0.128379
    52  H    0.107007
    53  H    0.089349
    54  H    0.091725
    55  H    0.103856
    56  H    0.101440
    57  H    0.089856
    58  H    0.117373
    59  H    0.111194
    60  H    0.085788
    61  H    0.028663
    62  H    0.111373
    63  H    0.090233
    64  H    0.104114
    65  H    0.075499
    66  H    0.064442
    67  H    0.121838
    68  H    0.129080
    69  H    0.082558
    70  H    0.107929
    71  H    0.117819
    72  H    0.081689
    73  H    0.315380
    74  H    0.310022
    75  H    0.080221
    76  H    0.075765
    77  H    0.104031
    78  H    0.140968
    79  H    0.101025
    80  H    0.112658
    81  H    0.105370
    82  H    0.079105
    83  H    0.067262
    84  H    0.076605
    85  H    0.070097
    86  H    0.097932
    87  H    0.096536
    88  H    0.083851
    89  H    0.129465
    90  H    0.118323
    91  H    0.114370
    92  H    0.105907
    93  H    0.128707
    94  H    0.082016
    95  H    0.073064
    96  H    0.065015
    97  H    0.089683
    98  H    0.083417
 Sum of Mulliken charges =  -0.00000

 Dipole moment (field-independent basis, Debye):
    X=              1.7697    Y=             -0.9079    Z=              0.8525  Tot=              2.1640
 Quadrupole moment (field-independent basis, Debye-Ang):
   XX=           -250.1586   YY=           -242.3032   ZZ=           -265.9016
   XY=              2.1689   XZ=             -3.9047   YZ=              4.2675

 Normal termination of Gaussian 16 at Sat Jul 13 19:59:05 2019.
