 Gaussian 16, Revision A.03,
 Gaussian 16:  ES64L-G16RevA.03 25-Dec-2016

 -------------------------------------
 # td=(NStates=1) CAM-B3LYP/6-31G(d,p)
 -------------------------------------

 --
 TD
 --
 Symbolic Z-matrix:
 Charge =  0 Multiplicity = 1

                         Standard orientation:
 ---------------------------------------------------------------------
 Center     Atomic      Atomic             Coordinates (Angstroms)
 Number     Number       Type             X           Y           Z
 ---------------------------------------------------------------------
      1          8           0       14.771893   -2.157707   -0.241505
      2          8           0      -14.885963    1.636465    1.076779
      3          6           0       11.282350   -1.501033    0.990064
      4          6           0      -12.351802   -1.102995    0.432780
      5          6           0       12.762995   -1.810091    1.128657
      6          6           0      -13.736300   -0.382322    0.508067
      7          6           0       13.383845   -1.864698   -0.334287
      8          6           0      -13.630694    1.052668    1.048331
      9          6           0       10.967381   -0.350696    0.056203
     10          6           0      -11.295907   -0.275394   -0.228014
     11          6           0       13.279872   -0.558562   -0.973707
     12          6           0      -12.834241    1.728988   -0.020885
     13          6           0       11.919196   -0.003862   -0.970276
     14          6           0      -11.583803    1.021623   -0.509935
     15          6           0       10.878298   -1.004067    2.382353
     16          6           0       10.452590   -2.745489    0.488305
     17          6           0      -11.962318   -1.666999    1.849673
     18          6           0      -12.595860   -2.408262   -0.411555
     19          6           0        9.593715    0.267683    0.079283
     20          6           0      -10.045718   -0.856996   -0.419722
     21          6           0       11.476390    1.068753   -2.007944
     22          6           0      -10.634662    1.951422   -1.254485
     23          6           0        9.402719    1.499029    0.233633
     24          6           0       -8.797999   -0.361405   -0.314677
     25          6           0        8.093295    2.168902    0.276971
     26          6           0       -7.593238   -1.047057   -0.532630
     27          6           0        8.092902    3.639766    0.744482
     28          6           0       -7.638091   -2.530905   -1.074519
     29          6           0        6.998999    1.427281    0.012476
     30          6           0       -6.428229   -0.465412   -0.340224
     31          6           0        5.621647    1.989914    0.024402
     32          6           0       -5.040042   -0.924158   -0.449309
     33          6           0        4.538052    1.321192   -0.154306
     34          6           0       -4.013483   -0.163321   -0.311834
     35          6           0        3.182908    1.724621   -0.037333
     36          6           0       -2.571447   -0.652510   -0.292234
     37          6           0        2.790930    3.229934    0.421906
     38          6           0       -2.211745   -2.014878   -0.632134
     39          6           0        2.080808    0.872381   -0.281240
     40          6           0       -1.598204    0.313384   -0.231057
     41          6           0        0.730430    1.103261   -0.133192
     42          6           0       -0.113195    0.027803   -0.214521
     43          1           0       13.315822   -0.908832    1.490105
     44          1           0       13.032208   -2.671741    1.589784
     45          1           0      -14.363401   -1.112092    1.013518
     46          1           0      -14.210240   -0.373801   -0.421352
     47          1           0       12.807942   -2.689321   -0.900599
     48          1           0      -13.286460    1.012636    2.085629
     49          1           0       14.011678    0.142299   -0.362695
     50          1           0       13.587390   -0.466825   -1.818336
     51          1           0      -13.462593    1.829139   -0.799933
     52          1           0      -12.628519    2.797275    0.314093
     53          1           0       11.240558   -1.876219    3.052253
     54          1           0        9.841059   -1.186827    2.332198
     55          1           0       11.230543   -0.091186    2.758923
     56          1           0       10.757632   -3.010559   -0.583343
     57          1           0       10.381622   -3.643235    1.125214
     58          1           0        9.263683   -2.335826    0.489473
     59          1           0      -11.897424   -0.824866    2.662747
     60          1           0      -10.926929   -2.228941    1.713231
     61          1           0      -12.617155   -2.369362    2.128029
     62          1           0      -13.535100   -2.905879    0.089758
     63          1           0      -11.827590   -3.293595   -0.324907
     64          1           0      -12.605254   -2.191331   -1.385844
     65          1           0        8.783427   -0.292660    0.201641
     66          1           0       -9.885278   -1.936445   -0.670052
     67          1           0       10.354664    0.799612   -2.069148
     68          1           0       12.060171    2.097738   -1.799168
     69          1           0       11.865974    0.647193   -3.037074
     70          1           0      -11.462791    2.765756   -1.724667
     71          1           0      -10.195929    1.269055   -2.010422
     72          1           0       -9.856936    2.328007   -0.395640
     73          1           0       14.943722   -2.988233    0.333921
     74          1           0      -15.500570    1.130172    1.765889
     75          1           0       10.297255    2.344598    0.348566
     76          1           0       -8.652908    0.574439    0.146334
     77          1           0        9.184107    4.082536    0.945507
     78          1           0        7.941580    4.422644   -0.201694
     79          1           0        7.311192    3.733521    1.440388
     80          1           0       -8.523526   -3.049269   -0.569043
     81          1           0       -8.110429   -2.388350   -2.140304
     82          1           0       -6.814184   -2.778017   -1.109009
     83          1           0        7.075294    0.480124   -0.354548
     84          1           0       -6.485608    0.486649   -0.040039
     85          1           0        5.595774    2.929647    0.469804
     86          1           0       -4.822042   -2.018976   -0.749399
     87          1           0        4.490795    0.257060   -0.643156
     88          1           0       -4.217764    0.977293   -0.140962
     89          1           0        3.521230    3.781676    1.392597
     90          1           0        1.769893    3.442478    0.703582
     91          1           0        3.057546    3.951426   -0.572767
     92          1           0       -3.445502   -2.733903   -0.393498
     93          1           0       -2.274005   -1.896750   -1.951338
     94          1           0       -1.219986   -2.611047   -0.176774
     95          1           0        2.415411   -0.210111   -0.574965
     96          1           0       -1.774069    1.447360   -0.285867
     97          1           0        0.234368    2.135976    0.007010
     98          1           0        0.028137   -0.917171   -0.361243
 ---------------------------------------------------------------------

 SCF Done:  E(RCAM-B3LYP) =  -1706.75828455     A.U. after   14 cycles

 Excitation energies and oscillator strengths:

 Excited State   1:      Singlet-A      2.8242 eV  439.00 nm  f=3.5059  <S**2>=0.000
     155 ->158         0.17089
     156 ->157         0.67645
 This state for optimization and/or second-order correction.
 Total Energy, E(TD-HF/TD-DFT) =  -1706.65449536
 Copying the excited state density for this state as the 1-particle RhoCI density.

 The electronic state is 1-A.
 Alpha  occ. eigenvalues --  -19.21561 -19.21113 -10.31924 -10.30134 -10.30047
 Alpha  occ. eigenvalues --  -10.29314 -10.28483 -10.28188 -10.27846 -10.27621
 Alpha  occ. eigenvalues --  -10.27393 -10.27221 -10.27216 -10.27214 -10.27088
 Alpha  occ. eigenvalues --  -10.27069 -10.27048 -10.26955 -10.26714 -10.26653
 Alpha  occ. eigenvalues --  -10.26579 -10.26297 -10.26281 -10.26226 -10.26052
 Alpha  occ. eigenvalues --  -10.25999 -10.25946 -10.25444 -10.25239 -10.25154
 Alpha  occ. eigenvalues --  -10.25094 -10.25055 -10.24983 -10.24917 -10.24796
 Alpha  occ. eigenvalues --  -10.24763 -10.24630 -10.24218 -10.23905 -10.23838
 Alpha  occ. eigenvalues --  -10.23650 -10.23300  -1.09406  -1.08042  -0.93996
 Alpha  occ. eigenvalues --   -0.93484  -0.92324  -0.91819  -0.91110  -0.90063
 Alpha  occ. eigenvalues --   -0.88110  -0.86997  -0.86619  -0.86225  -0.84966
 Alpha  occ. eigenvalues --   -0.83759  -0.81436  -0.80166  -0.79796  -0.78083
 Alpha  occ. eigenvalues --   -0.76542  -0.76156  -0.75789  -0.75619  -0.75248
 Alpha  occ. eigenvalues --   -0.75095  -0.74949  -0.73707  -0.72529  -0.70481
 Alpha  occ. eigenvalues --   -0.68711  -0.67536  -0.66270  -0.65633  -0.63593
 Alpha  occ. eigenvalues --   -0.63361  -0.62603  -0.62185  -0.60465  -0.60174
 Alpha  occ. eigenvalues --   -0.59810  -0.59123  -0.58363  -0.57876  -0.56289
 Alpha  occ. eigenvalues --   -0.56248  -0.55244  -0.55168  -0.54489  -0.53955
 Alpha  occ. eigenvalues --   -0.53597  -0.52869  -0.52141  -0.51973  -0.50975
 Alpha  occ. eigenvalues --   -0.50787  -0.50654  -0.50131  -0.49654  -0.49142
 Alpha  occ. eigenvalues --   -0.48887  -0.48562  -0.48109  -0.47943  -0.47627
 Alpha  occ. eigenvalues --   -0.47281  -0.47223  -0.46359  -0.46204  -0.45651
 Alpha  occ. eigenvalues --   -0.45548  -0.45291  -0.45109  -0.44954  -0.44880
 Alpha  occ. eigenvalues --   -0.44568  -0.44048  -0.43675  -0.43611  -0.43086
 Alpha  occ. eigenvalues --   -0.42954  -0.42682  -0.42580  -0.42440  -0.41993
 Alpha  occ. eigenvalues --   -0.41748  -0.41249  -0.40927  -0.40720  -0.40150
 Alpha  occ. eigenvalues --   -0.39822  -0.39543  -0.39333  -0.39145  -0.38837
 Alpha  occ. eigenvalues --   -0.38688  -0.38437  -0.38101  -0.38003  -0.37898
 Alpha  occ. eigenvalues --   -0.37659  -0.37281  -0.37004  -0.36781  -0.36091
 Alpha  occ. eigenvalues --   -0.35595  -0.34770  -0.34622  -0.31927  -0.31376
 Alpha  occ. eigenvalues --   -0.30436  -0.29835  -0.27936  -0.25639  -0.23910
 Alpha  occ. eigenvalues --   -0.21164
 Alpha virt. eigenvalues --   -0.04183  -0.00406   0.02210   0.05732   0.07368
 Alpha virt. eigenvalues --    0.08278   0.09268   0.10609   0.11153   0.11401
 Alpha virt. eigenvalues --    0.11633   0.11706   0.12013   0.12330   0.12452

 Mulliken charges:
               1
     1  O   -0.576421
     2  O   -0.567708
     3  C   -0.023523
     4  C   -0.044430
     5  C   -0.174268
     6  C   -0.197155
     7  C    0.163709
     8  C    0.183150
     9  C    0.049913
    10  C    0.142411
    11  C   -0.142390
    12  C   -0.220857
    13  C    0.008592
    14  C   -0.003204
    15  C   -0.282115
    16  C   -0.300928
    17  C   -0.280715
    18  C   -0.297388
    19  C   -0.145844
    20  C   -0.142167
    21  C   -0.347045
    22  C   -0.331787
    23  C   -0.036168
    24  C   -0.084294
    25  C    0.099306
    26  C    0.105460
    27  C   -0.366403
    28  C   -0.297455
    29  C   -0.121721
    30  C   -0.143545
    31  C   -0.086494
    32  C   -0.072692
    33  C   -0.092076
    34  C   -0.090058
    35  C    0.108075
    36  C    0.099374
    37  C   -0.338389
    38  C   -0.336524
    39  C   -0.139921
    40  C   -0.127001
    41  C   -0.079004
    42  C   -0.032170
    43  H    0.101105
    44  H    0.080201
    45  H    0.068227
    46  H    0.105135
    47  H    0.060561
    48  H    0.075573
    49  H    0.099588
    50  H    0.092443
    51  H    0.137617
    52  H    0.105104
    53  H    0.072548
    54  H    0.098174
    55  H    0.121132
    56  H    0.112620
    57  H    0.105992
    58  H    0.067119
    59  H    0.083371
    60  H    0.088194
    61  H    0.109319
    62  H    0.083327
    63  H    0.080758
    64  H    0.115637
    65  H    0.080720
    66  H    0.056591
    67  H    0.136090
    68  H    0.111294
    69  H    0.082607
    70  H    0.082998
    71  H    0.131169
    72  H    0.112316
    73  H    0.304916
    74  H    0.309319
    75  H    0.062453
    76  H    0.068589
    77  H    0.107779
    78  H    0.098287
    79  H    0.137856
    80  H    0.116443
    81  H    0.107700
    82  H    0.076189
    83  H    0.081324
    84  H    0.060435
    85  H    0.075904
    86  H    0.073065
    87  H    0.068663
    88  H    0.087628
    89  H    0.067417
    90  H    0.121722
    91  H    0.091982
    92  H    0.045385
    93  H    0.105986
    94  H    0.125075
    95  H    0.078118
    96  H    0.073791
    97  H    0.096930
    98  H    0.061385
 Sum of Mulliken charges =  -0.00000

 Dipole moment (field-independent basis, Debye):
    X=             -0.9591    Y=             -1.5038    Z=              1.2777  Tot=              2.1940
 Quadrupole moment (field-independent basis, Debye-Ang):
   XX=           -264.9547   YY=           -246.6415   ZZ=           -263.9427
   XY=              6.9431   XZ=             -0.6092   YZ=              0.7621

 Normal termination of Gaussian 16 at Thu Jul 11 22:42:28 2019.
