 Gaussian 16, Revision A.03,
 Gaussian 16:  ES64L-G16RevA.03 25-Dec-2016

 -------------------------------------
 # td=(NStates=1) CAM-B3LYP/6-31G(d,p)
 -------------------------------------

 --
 TD
 --
 Symbolic Z-matrix:
 Charge =  0 Multiplicity = 1

                         Standard orientation:
 ---------------------------------------------------------------------
 Center     Atomic      Atomic             Coordinates (Angstroms)
 Number     Number       Type             X           Y           Z
 ---------------------------------------------------------------------
      1          8           0       14.848401   -2.050179    0.091546
      2          8           0      -14.706304    1.910542    1.232605
      3          6           0       11.110092   -1.595303    0.860298
      4          6           0      -12.284931   -1.067701    0.657379
      5          6           0       12.630523   -1.805725    1.165448
      6          6           0      -13.634676   -0.232630    0.775458
      7          6           0       13.448516   -1.806777   -0.099961
      8          6           0      -13.505979    1.173825    1.076596
      9          6           0       11.005021   -0.304179    0.139419
     10          6           0      -11.367276   -0.216098   -0.086510
     11          6           0       13.330408   -0.475733   -0.767062
     12          6           0      -12.713345    1.757953   -0.070453
     13          6           0       12.029355    0.170218   -0.743036
     14          6           0      -11.513845    1.012087   -0.481688
     15          6           0       10.458383   -1.419419    2.308643
     16          6           0       10.427386   -2.841160    0.227345
     17          6           0      -11.700198   -1.431956    1.993249
     18          6           0      -12.673565   -2.418091    0.042972
     19          6           0        9.686104    0.286824    0.074345
     20          6           0       -9.994774   -0.962877   -0.384996
     21          6           0       11.884140    1.313886   -1.625706
     22          6           0      -10.639929    1.898128   -1.495353
     23          6           0        9.362665    1.663626    0.188382
     24          6           0       -8.721671   -0.500920   -0.334339
     25          6           0        8.073295    2.255206    0.186157
     26          6           0       -7.530703   -1.292766   -0.602008
     27          6           0        7.898126    3.666161    0.704314
     28          6           0       -7.763406   -2.630410   -1.027923
     29          6           0        6.851751    1.559484   -0.096025
     30          6           0       -6.354733   -0.623172   -0.458585
     31          6           0        5.559441    2.105126    0.100885
     32          6           0       -5.153567   -1.109692   -0.592265
     33          6           0        4.423934    1.321233   -0.240552
     34          6           0       -3.989215   -0.314055   -0.365707
     35          6           0        3.054110    1.755901    0.026579
     36          6           0       -2.556264   -0.696068   -0.722034
     37          6           0        2.773896    3.104043    0.431811
     38          6           0       -2.370970   -2.082461   -1.349971
     39          6           0        2.073621    0.868402   -0.339936
     40          6           0       -1.633686    0.186054   -0.391979
     41          6           0        0.704306    0.993611   -0.289358
     42          6           0       -0.238988    0.028229   -0.708171
     43          1           0       13.323528   -1.136986    1.925361
     44          1           0       12.695945   -2.691190    1.622316
     45          1           0      -14.172842   -0.854595    1.562756
     46          1           0      -14.338203   -0.228422   -0.034181
     47          1           0       13.023035   -2.574172   -0.747481
     48          1           0      -12.931802    1.433074    2.135928
     49          1           0       13.980625    0.247222   -0.076101
     50          1           0       13.729114   -0.446308   -1.775341
     51          1           0      -13.507362    1.773829   -0.864810
     52          1           0      -12.469508    2.907332   -0.032608
     53          1           0       10.791777   -2.373245    2.937955
     54          1           0        9.582032   -1.004020    2.374549
     55          1           0       11.022802   -0.488769    2.802168
     56          1           0       10.792073   -3.105652   -0.635032
     57          1           0       10.449496   -3.720158    0.589381
     58          1           0        9.278566   -2.669202    0.132270
     59          1           0      -11.484057   -0.457095    2.552910
     60          1           0      -10.679449   -1.970497    1.889678
     61          1           0      -12.465927   -2.069060    2.677429
     62          1           0      -13.474259   -2.968627    0.679630
     63          1           0      -11.760255   -2.917582    0.142936
     64          1           0      -13.085881   -2.449113   -0.991871
     65          1           0        8.830505   -0.247711    0.384962
     66          1           0      -10.230315   -1.885144   -0.697816
     67          1           0       10.794875    1.578128   -1.796903
     68          1           0       12.353760    2.251626   -1.329255
     69          1           0       12.381695    1.095192   -2.711528
     70          1           0      -11.246883    2.764668   -1.889582
     71          1           0       -9.972440    1.127698   -1.888570
     72          1           0       -9.988895    2.536879   -0.861529
     73          1           0       15.098544   -2.874496    0.487590
     74          1           0      -15.037740    1.501150    2.086928
     75          1           0       10.225483    2.235731    0.408370
     76          1           0       -8.829254    0.609954   -0.111783
     77          1           0        9.137233    4.233404    0.566970
     78          1           0        7.374935    4.228517   -0.173687
     79          1           0        7.295388    3.747645    1.537559
     80          1           0       -8.442237   -3.274391   -0.364190
     81          1           0       -8.104877   -2.725346   -2.221139
     82          1           0       -6.878108   -3.347079   -1.289896
     83          1           0        7.074391    0.482874   -0.317036
     84          1           0       -6.407063    0.370874   -0.160188
     85          1           0        5.161863    2.943421    0.607125
     86          1           0       -4.696697   -2.144824   -0.953379
     87          1           0        4.484996    0.237096   -0.396100
     88          1           0       -4.233265    0.578018    0.012909
     89          1           0        2.996405    3.174929    1.540133
     90          1           0        1.699646    3.264839    0.523307
     91          1           0        3.229805    3.841000   -0.085466
     92          1           0       -3.178870   -2.623498   -0.886245
     93          1           0       -2.647884   -2.176917   -2.529630
     94          1           0       -1.421441   -2.517419   -1.042457
     95          1           0        2.492432   -0.139524   -0.704177
     96          1           0       -1.757764    1.091226    0.255234
     97          1           0        0.296842    1.994035   -0.113461
     98          1           0        0.048596   -0.809044   -1.462100
 ---------------------------------------------------------------------

 SCF Done:  E(RCAM-B3LYP) =  -1706.88780425     A.U. after   15 cycles

 Excitation energies and oscillator strengths:

 Excited State   1:      Singlet-A      2.0618 eV  601.34 nm  f=3.5236  <S**2>=0.000
     155 ->158         0.16808
     156 ->157         0.68509
 This state for optimization and/or second-order correction.
 Total Energy, E(TD-HF/TD-DFT) =  -1706.81203474
 Copying the excited state density for this state as the 1-particle RhoCI density.

 The electronic state is 1-A.
 Alpha  occ. eigenvalues --  -19.21489 -19.20782 -10.30628 -10.30199 -10.28390
 Alpha  occ. eigenvalues --  -10.27926 -10.27666 -10.27479 -10.27460 -10.27438
 Alpha  occ. eigenvalues --  -10.27392 -10.27242 -10.27117 -10.27104 -10.26908
 Alpha  occ. eigenvalues --  -10.26536 -10.26491 -10.26459 -10.26351 -10.26337
 Alpha  occ. eigenvalues --  -10.26334 -10.26155 -10.26123 -10.26115 -10.26054
 Alpha  occ. eigenvalues --  -10.26019 -10.25979 -10.25939 -10.25909 -10.25812
 Alpha  occ. eigenvalues --  -10.25745 -10.25438 -10.25139 -10.25128 -10.25067
 Alpha  occ. eigenvalues --  -10.25057 -10.24985 -10.24965 -10.24869 -10.24740
 Alpha  occ. eigenvalues --  -10.24626 -10.23370  -1.09466  -1.08927  -0.94475
 Alpha  occ. eigenvalues --   -0.93980  -0.92736  -0.92259  -0.90676  -0.89790
 Alpha  occ. eigenvalues --   -0.87637  -0.87276  -0.87080  -0.85877  -0.84844
 Alpha  occ. eigenvalues --   -0.83560  -0.82525  -0.80460  -0.79804  -0.79092
 Alpha  occ. eigenvalues --   -0.78263  -0.76513  -0.76494  -0.76036  -0.75754
 Alpha  occ. eigenvalues --   -0.75357  -0.75179  -0.74760  -0.73316  -0.70561
 Alpha  occ. eigenvalues --   -0.69369  -0.67401  -0.65750  -0.64932  -0.64710
 Alpha  occ. eigenvalues --   -0.64508  -0.62299  -0.61382  -0.60905  -0.60591
 Alpha  occ. eigenvalues --   -0.59585  -0.59099  -0.58190  -0.57689  -0.56530
 Alpha  occ. eigenvalues --   -0.56269  -0.55602  -0.55471  -0.54792  -0.54404
 Alpha  occ. eigenvalues --   -0.52957  -0.52658  -0.52349  -0.51795  -0.51349
 Alpha  occ. eigenvalues --   -0.51244  -0.50697  -0.50229  -0.50097  -0.49285
 Alpha  occ. eigenvalues --   -0.48849  -0.48744  -0.48460  -0.48245  -0.48033
 Alpha  occ. eigenvalues --   -0.47777  -0.47558  -0.47234  -0.47084  -0.46891
 Alpha  occ. eigenvalues --   -0.46169  -0.45804  -0.45435  -0.45311  -0.44606
 Alpha  occ. eigenvalues --   -0.44444  -0.44179  -0.43900  -0.43486  -0.43290
 Alpha  occ. eigenvalues --   -0.42767  -0.42512  -0.42224  -0.42067  -0.41909
 Alpha  occ. eigenvalues --   -0.41455  -0.41315  -0.41105  -0.40963  -0.40624
 Alpha  occ. eigenvalues --   -0.40255  -0.39638  -0.39578  -0.39217  -0.38860
 Alpha  occ. eigenvalues --   -0.38816  -0.38653  -0.38491  -0.38245  -0.37985
 Alpha  occ. eigenvalues --   -0.37600  -0.37394  -0.36681  -0.36515  -0.36278
 Alpha  occ. eigenvalues --   -0.35170  -0.34073  -0.33770  -0.32743  -0.32223
 Alpha  occ. eigenvalues --   -0.31594  -0.29262  -0.28274  -0.25744  -0.22463
 Alpha  occ. eigenvalues --   -0.19028
 Alpha virt. eigenvalues --   -0.05952  -0.01895   0.01756   0.05856   0.07432
 Alpha virt. eigenvalues --    0.09452   0.11063   0.11432   0.11569   0.12074
 Alpha virt. eigenvalues --    0.12748   0.12890   0.12996   0.13151   0.13468

 Mulliken charges:
               1
     1  O   -0.573826
     2  O   -0.552938
     3  C   -0.039581
     4  C   -0.037096
     5  C   -0.180339
     6  C   -0.183125
     7  C    0.171056
     8  C    0.160099
     9  C    0.076178
    10  C    0.073633
    11  C   -0.202360
    12  C   -0.242529
    13  C    0.091724
    14  C    0.073905
    15  C   -0.285926
    16  C   -0.294127
    17  C   -0.287306
    18  C   -0.284717
    19  C   -0.135679
    20  C   -0.165285
    21  C   -0.377209
    22  C   -0.371258
    23  C   -0.128433
    24  C   -0.106889
    25  C    0.089874
    26  C    0.147609
    27  C   -0.349550
    28  C   -0.392022
    29  C   -0.119257
    30  C   -0.114053
    31  C   -0.096278
    32  C   -0.060808
    33  C   -0.117185
    34  C   -0.114052
    35  C    0.116574
    36  C    0.086679
    37  C   -0.392311
    38  C   -0.367715
    39  C   -0.112193
    40  C   -0.102958
    41  C   -0.116391
    42  C   -0.102308
    43  H    0.082557
    44  H    0.082803
    45  H    0.065338
    46  H    0.111049
    47  H    0.077282
    48  H    0.039148
    49  H    0.111933
    50  H    0.109177
    51  H    0.112591
    52  H    0.086435
    53  H    0.086701
    54  H    0.112917
    55  H    0.078197
    56  H    0.108518
    57  H    0.112419
    58  H    0.092066
    59  H    0.101303
    60  H    0.111033
    61  H    0.081260
    62  H    0.091826
    63  H    0.104575
    64  H    0.103970
    65  H    0.087017
    66  H    0.079770
    67  H    0.127507
    68  H    0.126797
    69  H    0.083086
    70  H    0.123694
    71  H    0.136614
    72  H    0.115035
    73  H    0.303100
    74  H    0.309212
    75  H    0.089626
    76  H    0.085277
    77  H    0.056825
    78  H    0.116133
    79  H    0.139218
    80  H    0.120660
    81  H    0.099916
    82  H    0.105367
    83  H    0.082254
    84  H    0.088251
    85  H    0.093295
    86  H    0.064218
    87  H    0.081986
    88  H    0.065970
    89  H    0.116365
    90  H    0.109596
    91  H    0.140430
    92  H    0.128581
    93  H    0.112361
    94  H    0.124362
    95  H    0.071432
    96  H    0.088721
    97  H    0.091164
    98  H    0.091438
 Sum of Mulliken charges =  -0.00000

 Dipole moment (field-independent basis, Debye):
    X=              0.7462    Y=             -2.5053    Z=              1.1316  Tot=              2.8485
 Quadrupole moment (field-independent basis, Debye-Ang):
   XX=           -283.4972   YY=           -241.8256   ZZ=           -261.6896
   XY=              0.4187   XZ=             -3.6830   YZ=              2.9053

 Normal termination of Gaussian 16 at Tue Jul 16 03:38:38 2019.
