 Gaussian 16, Revision A.03,
 Gaussian 16:  ES64L-G16RevA.03 25-Dec-2016

 -------------------------------------
 # td=(NStates=1) CAM-B3LYP/6-31G(d,p)
 -------------------------------------

 --
 TD
 --
 Symbolic Z-matrix:
 Charge =  0 Multiplicity = 1

                         Standard orientation:
 ---------------------------------------------------------------------
 Center     Atomic      Atomic             Coordinates (Angstroms)
 Number     Number       Type             X           Y           Z
 ---------------------------------------------------------------------
      1          8           0       14.533481   -2.374299   -0.119914
      2          8           0      -14.837925    1.786093    1.070402
      3          6           0       11.021393   -1.493264    0.962508
      4          6           0      -12.192415   -1.100395    0.726880
      5          6           0       12.575355   -1.886105    1.045159
      6          6           0      -13.506732   -0.304550    0.781566
      7          6           0       13.215051   -1.938197   -0.300557
      8          6           0      -13.512074    1.181402    1.033655
      9          6           0       10.932275   -0.247173    0.025067
     10          6           0      -11.214945   -0.204255   -0.121159
     11          6           0       13.257209   -0.592557   -0.939464
     12          6           0      -12.756318    1.809459   -0.132741
     13          6           0       11.916511    0.141349   -0.830671
     14          6           0      -11.455520    1.020465   -0.394938
     15          6           0       10.624224   -1.263627    2.438231
     16          6           0       10.123647   -2.707089    0.521862
     17          6           0      -11.629866   -1.279004    2.140550
     18          6           0      -12.447975   -2.450483    0.011268
     19          6           0        9.610744    0.399793    0.118864
     20          6           0       -9.999105   -0.927185   -0.460581
     21          6           0       11.705946    1.296523   -1.819382
     22          6           0      -10.678649    1.891413   -1.431238
     23          6           0        9.372552    1.746806    0.228577
     24          6           0       -8.648256   -0.440323   -0.400926
     25          6           0        8.030625    2.392690    0.288695
     26          6           0       -7.445596   -1.253060   -0.711500
     27          6           0        7.921476    3.819453    0.628465
     28          6           0       -7.748276   -2.661521   -1.148300
     29          6           0        6.884482    1.566467    0.126955
     30          6           0       -6.291684   -0.588020   -0.620197
     31          6           0        5.617237    2.103806    0.184787
     32          6           0       -5.057679   -1.109903   -0.666384
     33          6           0        4.481821    1.388695   -0.005632
     34          6           0       -3.930648   -0.360739   -0.408417
     35          6           0        3.124856    1.702092   -0.046326
     36          6           0       -2.555411   -0.764891   -0.614594
     37          6           0        2.816688    3.150860    0.457798
     38          6           0       -2.116875   -2.210317   -0.939113
     39          6           0        2.130137    0.722742   -0.315839
     40          6           0       -1.553295    0.212556   -0.450539
     41          6           0        0.766808    1.064648   -0.321100
     42          6           0       -0.174980    0.095258   -0.402576
     43          1           0       13.262327   -1.235650    1.673112
     44          1           0       12.825042   -2.945462    1.492939
     45          1           0      -14.440935   -0.890239    1.439706
     46          1           0      -13.983131   -0.375725   -0.266372
     47          1           0       12.695683   -2.838568   -0.972095
     48          1           0      -12.991007    1.174198    2.052251
     49          1           0       13.951286    0.095075   -0.417246
     50          1           0       13.409005   -0.693187   -2.051312
     51          1           0      -13.480537    1.737035   -0.930791
     52          1           0      -12.503795    2.815563    0.083674
     53          1           0       10.919476   -2.020810    3.254542
     54          1           0        9.484071   -1.127415    2.639550
     55          1           0       11.063816   -0.247232    2.944898
     56          1           0       10.196902   -3.106219   -0.530619
     57          1           0       10.486658   -3.445699    1.085675
     58          1           0        9.180984   -2.387848    0.532191
     59          1           0      -11.387991   -0.343529    2.435832
     60          1           0      -10.657936   -1.843674    2.085173
     61          1           0      -12.549484   -1.618292    2.788803
     62          1           0      -13.194339   -2.975784    0.528857
     63          1           0      -11.614329   -3.192066   -0.086351
     64          1           0      -13.009991   -2.390490   -1.044031
     65          1           0        8.903415   -0.292457    0.291429
     66          1           0      -10.116521   -1.919492   -0.805669
     67          1           0       10.644679    1.595062   -1.873061
     68          1           0       12.195647    2.269953   -1.431280
     69          1           0       12.325865    1.036050   -2.590321
     70          1           0      -11.570022    2.428372   -2.080918
     71          1           0      -10.010200    1.187485   -1.952790
     72          1           0      -10.182209    2.726610   -0.923159
     73          1           0       14.468358   -3.348144    0.114235
     74          1           0      -15.241274    1.220157    1.818670
     75          1           0       10.268303    2.444589    0.126461
     76          1           0       -8.655191    0.565022    0.013249
     77          1           0        8.892290    4.122557    0.921350
     78          1           0        7.628425    4.349447   -0.251456
     79          1           0        7.203153    4.133560    1.310987
     80          1           0       -8.151100   -3.226861   -0.157555
     81          1           0       -8.471047   -2.703562   -1.871326
     82          1           0       -6.921140   -3.209163   -1.570372
     83          1           0        6.991150    0.468770   -0.360939
     84          1           0       -6.423407    0.376204   -0.473314
     85          1           0        5.439068    3.245804    0.436307
     86          1           0       -4.975997   -2.374137   -0.739211
     87          1           0        4.706289    0.268292   -0.308719
     88          1           0       -4.094919    0.748595   -0.171443
     89          1           0        2.982272    3.217443    1.601239
     90          1           0        1.608615    3.468094    0.298415
     91          1           0        3.305484    3.890650   -0.230979
     92          1           0       -2.423287   -2.995798   -0.170164
     93          1           0       -2.622781   -2.562571   -1.980178
     94          1           0       -1.046501   -2.267543   -0.952958
     95          1           0        2.362399   -0.101790   -0.525138
     96          1           0       -2.082723    1.136213   -0.459804
     97          1           0        0.361960    2.072850   -0.261461
     98          1           0        0.198288   -0.951497   -0.564710
 ---------------------------------------------------------------------

 SCF Done:  E(RCAM-B3LYP) =  -1706.97535465     A.U. after   15 cycles

 Excitation energies and oscillator strengths:

 Excited State   1:      Singlet-A      2.1392 eV  579.57 nm  f=3.8271  <S**2>=0.000
     155 ->158        -0.15890
     156 ->157         0.68911
 This state for optimization and/or second-order correction.
 Total Energy, E(TD-HF/TD-DFT) =  -1706.89673924
 Copying the excited state density for this state as the 1-particle RhoCI density.

 The electronic state is 1-A.
 Alpha  occ. eigenvalues --  -19.22109 -19.21072 -10.31008 -10.30648 -10.28799
 Alpha  occ. eigenvalues --  -10.28138 -10.28081 -10.28030 -10.27877 -10.27802
 Alpha  occ. eigenvalues --  -10.27374 -10.27184 -10.27131 -10.27114 -10.26931
 Alpha  occ. eigenvalues --  -10.26836 -10.26782 -10.26756 -10.26730 -10.26725
 Alpha  occ. eigenvalues --  -10.26586 -10.26132 -10.26097 -10.26041 -10.25999
 Alpha  occ. eigenvalues --  -10.25998 -10.25974 -10.25932 -10.25917 -10.25880
 Alpha  occ. eigenvalues --  -10.25792 -10.25615 -10.25572 -10.25567 -10.25268
 Alpha  occ. eigenvalues --  -10.25090 -10.24983 -10.24911 -10.24859 -10.24528
 Alpha  occ. eigenvalues --  -10.24074 -10.23687  -1.09780  -1.08031  -0.93883
 Alpha  occ. eigenvalues --   -0.92918  -0.92404  -0.91914  -0.90794  -0.89501
 Alpha  occ. eigenvalues --   -0.87298  -0.86835  -0.86773  -0.85702  -0.84873
 Alpha  occ. eigenvalues --   -0.83580  -0.82113  -0.80699  -0.79091  -0.78430
 Alpha  occ. eigenvalues --   -0.77145  -0.76962  -0.76778  -0.76117  -0.75832
 Alpha  occ. eigenvalues --   -0.74973  -0.74587  -0.74279  -0.73674  -0.70756
 Alpha  occ. eigenvalues --   -0.69169  -0.66937  -0.65661  -0.64963  -0.64588
 Alpha  occ. eigenvalues --   -0.63639  -0.63090  -0.61224  -0.60688  -0.59897
 Alpha  occ. eigenvalues --   -0.58700  -0.58565  -0.58340  -0.58089  -0.56623
 Alpha  occ. eigenvalues --   -0.55734  -0.54832  -0.54691  -0.54401  -0.54093
 Alpha  occ. eigenvalues --   -0.53051  -0.52103  -0.51715  -0.51400  -0.50880
 Alpha  occ. eigenvalues --   -0.50789  -0.50445  -0.50278  -0.49666  -0.49203
 Alpha  occ. eigenvalues --   -0.48946  -0.48594  -0.48497  -0.48258  -0.48110
 Alpha  occ. eigenvalues --   -0.47866  -0.47423  -0.46927  -0.46427  -0.46322
 Alpha  occ. eigenvalues --   -0.45987  -0.45679  -0.45495  -0.45223  -0.45039
 Alpha  occ. eigenvalues --   -0.44980  -0.44629  -0.44029  -0.43851  -0.43448
 Alpha  occ. eigenvalues --   -0.43281  -0.42471  -0.42372  -0.42012  -0.41681
 Alpha  occ. eigenvalues --   -0.41557  -0.41180  -0.40932  -0.40855  -0.40734
 Alpha  occ. eigenvalues --   -0.40268  -0.40065  -0.40045  -0.39854  -0.39662
 Alpha  occ. eigenvalues --   -0.39389  -0.39114  -0.39032  -0.38762  -0.38667
 Alpha  occ. eigenvalues --   -0.38119  -0.37887  -0.36978  -0.36772  -0.36230
 Alpha  occ. eigenvalues --   -0.35295  -0.34603  -0.33580  -0.32647  -0.32191
 Alpha  occ. eigenvalues --   -0.31332  -0.30466  -0.28653  -0.26592  -0.23261
 Alpha  occ. eigenvalues --   -0.19124
 Alpha virt. eigenvalues --   -0.05931  -0.01419   0.02560   0.05940   0.08344
 Alpha virt. eigenvalues --    0.09775   0.10322   0.11262   0.11586   0.12082
 Alpha virt. eigenvalues --    0.12461   0.12887   0.13122   0.13411   0.13873

 Mulliken charges:
               1
     1  O   -0.555919
     2  O   -0.554498
     3  C   -0.027862
     4  C   -0.000979
     5  C   -0.175925
     6  C   -0.199380
     7  C    0.169325
     8  C    0.151940
     9  C    0.053921
    10  C    0.096806
    11  C   -0.203378
    12  C   -0.211451
    13  C    0.023944
    14  C    0.004286
    15  C   -0.299105
    16  C   -0.288907
    17  C   -0.284533
    18  C   -0.311754
    19  C   -0.087626
    20  C   -0.157829
    21  C   -0.350145
    22  C   -0.349376
    23  C   -0.125528
    24  C   -0.121663
    25  C    0.074878
    26  C    0.097025
    27  C   -0.376993
    28  C   -0.367963
    29  C   -0.118468
    30  C   -0.062953
    31  C   -0.068316
    32  C   -0.083609
    33  C   -0.119068
    34  C   -0.139668
    35  C    0.085924
    36  C    0.106077
    37  C   -0.363905
    38  C   -0.360094
    39  C   -0.042047
    40  C   -0.118642
    41  C   -0.062044
    42  C   -0.093758
    43  H    0.106395
    44  H    0.050589
    45  H    0.030841
    46  H    0.090677
    47  H    0.047778
    48  H    0.070035
    49  H    0.130743
    50  H    0.108052
    51  H    0.133487
    52  H    0.115310
    53  H    0.102542
    54  H    0.087740
    55  H    0.085962
    56  H    0.089771
    57  H    0.118144
    58  H    0.113549
    59  H    0.118735
    60  H    0.107099
    61  H    0.090220
    62  H    0.110217
    63  H    0.102860
    64  H    0.089922
    65  H    0.078101
    66  H    0.084015
    67  H    0.132014
    68  H    0.097679
    69  H    0.109003
    70  H    0.089231
    71  H    0.120314
    72  H    0.115125
    73  H    0.306140
    74  H    0.306411
    75  H    0.085522
    76  H    0.090451
    77  H    0.113845
    78  H    0.132369
    79  H    0.135029
    80  H    0.103279
    81  H    0.139950
    82  H    0.110572
    83  H    0.086944
    84  H    0.073012
    85  H    0.077788
    86  H    0.072646
    87  H    0.054344
    88  H    0.084547
    89  H    0.130678
    90  H    0.074024
    91  H    0.124144
    92  H    0.111347
    93  H    0.103110
    94  H    0.114162
    95  H    0.033954
    96  H    0.071073
    97  H    0.085827
    98  H    0.071938
 Sum of Mulliken charges =  -0.00000

 Dipole moment (field-independent basis, Debye):
    X=              0.9759    Y=             -1.6854    Z=              0.6320  Tot=              2.0475
 Quadrupole moment (field-independent basis, Debye-Ang):
   XX=           -291.6934   YY=           -240.0641   ZZ=           -263.3554
   XY=             16.1513   XZ=             -7.1922   YZ=              1.9985

 Normal termination of Gaussian 16 at Sun Jul 14 19:42:44 2019.
