 Gaussian 16, Revision A.03,
 Gaussian 16:  ES64L-G16RevA.03 25-Dec-2016

 -------------------------------------
 # td=(NStates=1) CAM-B3LYP/6-31G(d,p)
 -------------------------------------

 --
 TD
 --
 Symbolic Z-matrix:
 Charge =  0 Multiplicity = 1

                         Standard orientation:
 ---------------------------------------------------------------------
 Center     Atomic      Atomic             Coordinates (Angstroms)
 Number     Number       Type             X           Y           Z
 ---------------------------------------------------------------------
      1          8           0       14.671191   -2.297989   -0.033765
      2          8           0      -14.831403    1.782387    1.316914
      3          6           0       11.173822   -1.469137    0.955626
      4          6           0      -12.339788   -1.145458    0.506365
      5          6           0       12.621871   -1.815555    1.192659
      6          6           0      -13.604278   -0.356727    0.699802
      7          6           0       13.340007   -1.883750   -0.142782
      8          6           0      -13.477481    1.088156    1.144712
      9          6           0       10.923950   -0.155154    0.069277
     10          6           0      -11.199489   -0.171400   -0.174506
     11          6           0       13.339433   -0.514992   -0.830731
     12          6           0      -12.700860    1.839723    0.064994
     13          6           0       11.864894    0.164064   -0.892971
     14          6           0      -11.430318    1.131686   -0.351804
     15          6           0       10.652821   -1.227678    2.334349
     16          6           0       10.275937   -2.674351    0.356928
     17          6           0      -11.668821   -1.610899    1.901163
     18          6           0      -12.653370   -2.407487   -0.322142
     19          6           0        9.653793    0.430308    0.226030
     20          6           0      -10.051026   -0.885854   -0.507070
     21          6           0       11.766149    1.304271   -1.769993
     22          6           0      -10.592143    2.006190   -1.222170
     23          6           0        9.390363    1.693296    0.041109
     24          6           0       -8.756274   -0.367240   -0.414192
     25          6           0        8.057776    2.295425    0.146581
     26          6           0       -7.628076   -1.109649   -0.760226
     27          6           0        7.842726    3.746852    0.634988
     28          6           0       -7.669354   -2.512347   -1.191137
     29          6           0        6.972579    1.539343   -0.077445
     30          6           0       -6.378177   -0.350382   -0.551552
     31          6           0        5.621635    1.951734   -0.065074
     32          6           0       -5.068771   -0.959404   -0.724777
     33          6           0        4.534988    1.134137   -0.271207
     34          6           0       -3.947867   -0.251970   -0.512560
     35          6           0        3.111633    1.594377   -0.042906
     36          6           0       -2.655678   -0.704427   -0.460623
     37          6           0        2.867320    3.034241    0.462343
     38          6           0       -2.460764   -2.221857   -0.665002
     39          6           0        2.175905    0.572635   -0.213659
     40          6           0       -1.573105    0.188500   -0.254734
     41          6           0        0.787283    0.975712   -0.137687
     42          6           0       -0.211970   -0.088267   -0.307486
     43          1           0       13.107081   -1.001172    1.795800
     44          1           0       12.863220   -2.747455    1.683892
     45          1           0      -14.418748   -0.936123    1.495947
     46          1           0      -14.131496   -0.048443   -0.343625
     47          1           0       12.758768   -2.504621   -0.839927
     48          1           0      -12.815060    1.060943    2.050288
     49          1           0       14.175811   -0.146412   -0.190919
     50          1           0       13.609133   -0.740942   -1.711509
     51          1           0      -13.367201    2.290338   -0.696205
     52          1           0      -12.396457    2.808537    0.546598
     53          1           0       11.067806   -1.944906    3.082303
     54          1           0        9.705936   -1.184236    2.294071
     55          1           0       11.082890   -0.239657    2.710188
     56          1           0       10.261814   -2.687860   -0.797460
     57          1           0       10.377976   -3.562856    1.067555
     58          1           0        9.260635   -2.290771    0.353640
     59          1           0      -11.592283   -0.664026    2.359371
     60          1           0      -10.697426   -2.042280    1.737463
     61          1           0      -12.470350   -2.314631    2.228417
     62          1           0      -13.473887   -3.176153    0.005433
     63          1           0      -11.829985   -3.032141   -0.462461
     64          1           0      -13.026047   -2.207054   -1.256328
     65          1           0        8.760424   -0.291816    0.517397
     66          1           0      -10.205030   -1.909966   -0.637903
     67          1           0       10.846143    1.417991   -2.271087
     68          1           0       12.049116    2.304612   -1.350192
     69          1           0       12.495768    0.971334   -2.541281
     70          1           0      -11.359755    2.572159   -1.948277
     71          1           0       -9.782936    1.476274   -1.810903
     72          1           0      -10.027136    2.631121   -0.474227
     73          1           0       14.695828   -3.387315   -0.157475
     74          1           0      -15.190219    0.883860    1.898409
     75          1           0       10.267132    2.412424    0.107202
     76          1           0       -8.650800    0.715291   -0.241320
     77          1           0        8.895305    4.036840    1.012112
     78          1           0        7.615948    4.522973   -0.197721
     79          1           0        7.053499    3.967340    1.540053
     80          1           0       -8.098897   -2.993496   -0.251505
     81          1           0       -8.351737   -2.647454   -2.122312
     82          1           0       -6.809328   -3.006638   -1.458395
     83          1           0        7.112228    0.623026   -0.653407
     84          1           0       -6.365194    0.650554   -0.234549
     85          1           0        5.538546    2.990607    0.190182
     86          1           0       -4.956875   -2.113421   -1.107865
     87          1           0        4.629217    0.124822   -0.511845
     88          1           0       -4.206284    0.831040   -0.325734
     89          1           0        3.204798    3.068320    1.491836
     90          1           0        1.834333    3.307132    0.460348
     91          1           0        3.320397    3.763447   -0.076804
     92          1           0       -3.150801   -2.787055    0.129075
     93          1           0       -2.749690   -2.366117   -1.712986
     94          1           0       -1.402350   -2.483652   -0.591677
     95          1           0        2.407429   -0.504209   -0.663197
     96          1           0       -2.104642    1.136846   -0.143270
     97          1           0        0.448061    1.879118   -0.018126
     98          1           0        0.023410   -1.199236   -0.457229
 ---------------------------------------------------------------------

 SCF Done:  E(RCAM-B3LYP) =  -1706.95716010     A.U. after   15 cycles

 Excitation energies and oscillator strengths:

 Excited State   1:      Singlet-A      2.1124 eV  586.94 nm  f=3.8317  <S**2>=0.000
     155 ->158        -0.15325
     156 ->157         0.68988
 This state for optimization and/or second-order correction.
 Total Energy, E(TD-HF/TD-DFT) =  -1706.87953166
 Copying the excited state density for this state as the 1-particle RhoCI density.

 The electronic state is 1-A.
 Alpha  occ. eigenvalues --  -19.22932 -19.22036 -10.30934 -10.28746 -10.28630
 Alpha  occ. eigenvalues --  -10.28496 -10.28149 -10.28050 -10.27902 -10.27784
 Alpha  occ. eigenvalues --  -10.27593 -10.27144 -10.27132 -10.26965 -10.26920
 Alpha  occ. eigenvalues --  -10.26819 -10.26788 -10.26666 -10.26538 -10.26479
 Alpha  occ. eigenvalues --  -10.26447 -10.26426 -10.26337 -10.26250 -10.26115
 Alpha  occ. eigenvalues --  -10.26096 -10.26037 -10.26024 -10.25842 -10.25770
 Alpha  occ. eigenvalues --  -10.25756 -10.25620 -10.25494 -10.25471 -10.25076
 Alpha  occ. eigenvalues --  -10.24732 -10.24710 -10.24455 -10.24384 -10.23827
 Alpha  occ. eigenvalues --  -10.23683 -10.22505  -1.08229  -1.04875  -0.93680
 Alpha  occ. eigenvalues --   -0.93294  -0.91969  -0.91272  -0.90494  -0.89809
 Alpha  occ. eigenvalues --   -0.87411  -0.87177  -0.86594  -0.85667  -0.84786
 Alpha  occ. eigenvalues --   -0.83121  -0.81829  -0.80430  -0.80045  -0.78719
 Alpha  occ. eigenvalues --   -0.77212  -0.76757  -0.76412  -0.76076  -0.75716
 Alpha  occ. eigenvalues --   -0.75368  -0.75297  -0.75110  -0.73021  -0.70611
 Alpha  occ. eigenvalues --   -0.68395  -0.66883  -0.65597  -0.64365  -0.63671
 Alpha  occ. eigenvalues --   -0.62701  -0.62236  -0.61337  -0.60621  -0.60217
 Alpha  occ. eigenvalues --   -0.59388  -0.59070  -0.58286  -0.57093  -0.55910
 Alpha  occ. eigenvalues --   -0.55483  -0.54876  -0.54670  -0.53938  -0.53736
 Alpha  occ. eigenvalues --   -0.53218  -0.52528  -0.51962  -0.51355  -0.50987
 Alpha  occ. eigenvalues --   -0.50510  -0.50124  -0.49656  -0.49489  -0.49223
 Alpha  occ. eigenvalues --   -0.48921  -0.48661  -0.48584  -0.48415  -0.48217
 Alpha  occ. eigenvalues --   -0.47876  -0.47303  -0.46954  -0.46734  -0.46486
 Alpha  occ. eigenvalues --   -0.46094  -0.45682  -0.45640  -0.45539  -0.44984
 Alpha  occ. eigenvalues --   -0.44783  -0.44601  -0.44061  -0.43762  -0.43510
 Alpha  occ. eigenvalues --   -0.43446  -0.43122  -0.42932  -0.42817  -0.42112
 Alpha  occ. eigenvalues --   -0.41819  -0.41429  -0.41254  -0.41198  -0.40793
 Alpha  occ. eigenvalues --   -0.40511  -0.40483  -0.39787  -0.39627  -0.39252
 Alpha  occ. eigenvalues --   -0.39011  -0.38607  -0.38547  -0.38352  -0.37914
 Alpha  occ. eigenvalues --   -0.37858  -0.37353  -0.37026  -0.36529  -0.35680
 Alpha  occ. eigenvalues --   -0.35167  -0.34324  -0.34295  -0.32876  -0.32450
 Alpha  occ. eigenvalues --   -0.31126  -0.30232  -0.28477  -0.25699  -0.23133
 Alpha  occ. eigenvalues --   -0.18834
 Alpha virt. eigenvalues --   -0.05841  -0.01447   0.01578   0.05188   0.07904
 Alpha virt. eigenvalues --    0.08995   0.09308   0.10004   0.11696   0.11901
 Alpha virt. eigenvalues --    0.12187   0.12491   0.12817   0.13175   0.13641

 Mulliken charges:
               1
     1  O   -0.570934
     2  O   -0.551618
     3  C   -0.020045
     4  C   -0.029268
     5  C   -0.153097
     6  C   -0.175995
     7  C    0.125674
     8  C    0.133365
     9  C    0.064188
    10  C    0.088792
    11  C   -0.184915
    12  C   -0.242293
    13  C    0.009261
    14  C    0.032496
    15  C   -0.276514
    16  C   -0.312697
    17  C   -0.287506
    18  C   -0.314925
    19  C   -0.089772
    20  C   -0.142165
    21  C   -0.358405
    22  C   -0.356530
    23  C   -0.122855
    24  C   -0.098877
    25  C    0.083142
    26  C    0.104589
    27  C   -0.370339
    28  C   -0.360337
    29  C   -0.110405
    30  C   -0.140275
    31  C   -0.090758
    32  C   -0.085372
    33  C   -0.104087
    34  C   -0.109316
    35  C    0.077141
    36  C    0.080292
    37  C   -0.368610
    38  C   -0.362773
    39  C   -0.123350
    40  C   -0.093881
    41  C   -0.065893
    42  C   -0.117399
    43  H    0.089936
    44  H    0.080059
    45  H    0.039425
    46  H    0.100007
    47  H    0.071457
    48  H    0.087428
    49  H    0.118137
    50  H    0.103729
    51  H    0.125140
    52  H    0.109407
    53  H    0.092091
    54  H    0.095851
    55  H    0.092407
    56  H    0.099503
    57  H    0.105823
    58  H    0.097701
    59  H    0.108456
    60  H    0.112965
    61  H    0.100011
    62  H    0.088272
    63  H    0.107342
    64  H    0.119040
    65  H    0.093135
    66  H    0.078128
    67  H    0.126585
    68  H    0.119745
    69  H    0.095424
    70  H    0.100403
    71  H    0.118910
    72  H    0.113871
    73  H    0.312412
    74  H    0.299531
    75  H    0.087692
    76  H    0.087988
    77  H    0.098329
    78  H    0.117170
    79  H    0.111212
    80  H    0.120077
    81  H    0.114049
    82  H    0.120886
    83  H    0.079247
    84  H    0.085502
    85  H    0.078131
    86  H    0.075455
    87  H    0.079139
    88  H    0.073847
    89  H    0.135963
    90  H    0.112203
    91  H    0.135068
    92  H    0.112204
    93  H    0.127876
    94  H    0.100957
    95  H    0.099456
    96  H    0.071828
    97  H    0.082306
    98  H    0.083352
 Sum of Mulliken charges =  -0.00000

 Dipole moment (field-independent basis, Debye):
    X=              0.7597    Y=             -2.2614    Z=             -0.5445  Tot=              2.4470
 Quadrupole moment (field-independent basis, Debye-Ang):
   XX=           -316.6548   YY=           -239.6401   ZZ=           -264.3127
   XY=             16.5640   XZ=             -2.5892   YZ=              2.7740

 Normal termination of Gaussian 16 at Wed Jul 17 10:56:00 2019.
