 Gaussian 16, Revision A.03,
 Gaussian 16:  ES64L-G16RevA.03 25-Dec-2016

 -------------------------------------
 # td=(NStates=1) CAM-B3LYP/6-31G(d,p)
 -------------------------------------

 --
 TD
 --
 Symbolic Z-matrix:
 Charge =  0 Multiplicity = 1

                         Standard orientation:
 ---------------------------------------------------------------------
 Center     Atomic      Atomic             Coordinates (Angstroms)
 Number     Number       Type             X           Y           Z
 ---------------------------------------------------------------------
      1          8           0       14.575551   -2.411006   -0.149476
      2          8           0      -14.697410    1.668012    1.169687
      3          6           0       11.066644   -1.540458    0.939269
      4          6           0      -12.298795   -1.175695    0.474806
      5          6           0       12.490921   -2.129987    1.102191
      6          6           0      -13.667772   -0.476695    0.669361
      7          6           0       13.280270   -2.019206   -0.310485
      8          6           0      -13.498291    0.957077    0.962236
      9          6           0       10.934932   -0.417319   -0.026856
     10          6           0      -11.279243   -0.283468   -0.198736
     11          6           0       13.291220   -0.691046   -0.918006
     12          6           0      -12.717569    1.680510   -0.135273
     13          6           0       11.947306    0.042130   -0.829993
     14          6           0      -11.479574    0.975271   -0.415814
     15          6           0       10.744611   -1.168431    2.341325
     16          6           0       10.064587   -2.665287    0.596791
     17          6           0      -11.819276   -1.681889    1.925028
     18          6           0      -12.591216   -2.425093   -0.324700
     19          6           0        9.609414    0.304042    0.008061
     20          6           0       -9.957765   -0.951227   -0.374283
     21          6           0       11.881984    1.206694   -1.928647
     22          6           0      -10.513984    1.848488   -1.239887
     23          6           0        9.419328    1.638154    0.046597
     24          6           0       -8.776926   -0.382244   -0.316167
     25          6           0        8.041802    2.226395    0.160972
     26          6           0       -7.449930   -1.072024   -0.569097
     27          6           0        7.953304    3.791757    0.348440
     28          6           0       -7.586391   -2.449078   -1.196019
     29          6           0        6.891080    1.495596    0.034425
     30          6           0       -6.324790   -0.472651   -0.280673
     31          6           0        5.572251    2.097598    0.232264
     32          6           0       -5.059767   -0.915873   -0.539238
     33          6           0        4.453505    1.390343   -0.003462
     34          6           0       -3.954681   -0.100266   -0.344028
     35          6           0        3.075762    1.786476    0.262393
     36          6           0       -2.562067   -0.404382   -0.705351
     37          6           0        2.730276    3.226012    0.661747
     38          6           0       -2.338192   -1.820530   -1.203555
     39          6           0        2.139505    0.934274   -0.077767
     40          6           0       -1.510721    0.401147   -0.250134
     41          6           0        0.759851    1.181541    0.047454
     42          6           0       -0.201871    0.102840   -0.221231
     43          1           0       13.151176   -1.583274    1.729915
     44          1           0       12.643072   -3.152251    1.348772
     45          1           0      -14.225022   -0.815983    1.517144
     46          1           0      -14.200485   -0.553620   -0.238562
     47          1           0       12.711822   -2.778363   -0.990115
     48          1           0      -13.047016    1.071976    1.970285
     49          1           0       14.002640   -0.017023   -0.191036
     50          1           0       13.895353   -0.690030   -1.866997
     51          1           0      -13.303869    1.806546   -0.975497
     52          1           0      -12.335391    2.645092    0.023954
     53          1           0       10.951585   -1.929913    3.113660
     54          1           0        9.685376   -0.832676    2.545110
     55          1           0       11.369472   -0.335814    2.758548
     56          1           0       10.233674   -2.912234   -0.299164
     57          1           0       10.172864   -3.461939    1.453668
     58          1           0        9.129695   -2.089750    0.482113
     59          1           0      -11.907260   -0.807682    2.470644
     60          1           0      -10.915506   -2.257112    1.817072
     61          1           0      -12.525302   -2.361637    2.149149
     62          1           0      -13.548319   -3.038810   -0.264481
     63          1           0      -11.734369   -3.273165   -0.198766
     64          1           0      -12.618218   -2.418292   -1.529521
     65          1           0        8.770022   -0.199652    0.091756
     66          1           0      -10.095193   -2.065624   -0.951224
     67          1           0       10.961897    1.428511   -2.114931
     68          1           0       12.186966    2.122480   -1.482398
     69          1           0       12.404115    0.734716   -2.756417
     70          1           0      -10.929145    2.837134   -1.766233
     71          1           0       -9.857397    1.307512   -2.142067
     72          1           0       -9.905732    2.488662   -0.443215
     73          1           0       14.701906   -3.114747    0.342902
     74          1           0      -15.392545    1.082377    1.639229
     75          1           0       10.326555    2.320257   -0.097712
     76          1           0       -8.624249    0.603273    0.251519
     77          1           0        8.741437    4.159660    0.463956
     78          1           0        7.427083    4.337841   -0.503052
     79          1           0        7.047048    4.082042    1.112328
     80          1           0       -7.922678   -3.139636   -0.427735
     81          1           0       -8.149990   -2.477047   -1.933351
     82          1           0       -6.588723   -2.948028   -1.591530
     83          1           0        6.905492    0.513062   -0.153575
     84          1           0       -6.425932    0.450355    0.153723
     85          1           0        5.526910    3.195096    0.307345
     86          1           0       -5.144574   -1.900471   -0.867900
     87          1           0        4.675424    0.393885   -0.470147
     88          1           0       -4.063282    0.844529   -0.029866
     89          1           0        3.048186    3.482208    1.603790
     90          1           0        1.631879    3.278244    0.651883
     91          1           0        3.256487    3.993477    0.074056
     92          1           0       -2.651634   -2.503688   -0.189457
     93          1           0       -3.056320   -2.141611   -2.146317
     94          1           0       -1.311077   -2.212005   -1.555273
     95          1           0        2.409352   -0.158337   -0.340497
     96          1           0       -1.843594    1.486050    0.161025
     97          1           0        0.556453    2.080841    0.256681
     98          1           0        0.215361   -0.892446   -0.558623
 ---------------------------------------------------------------------

 SCF Done:  E(RCAM-B3LYP) =  -1706.86913276     A.U. after   15 cycles

 Excitation energies and oscillator strengths:

 Excited State   1:      Singlet-A      2.3968 eV  517.29 nm  f=3.4888  <S**2>=0.000
     155 ->158        -0.14420
     156 ->157         0.69222
 This state for optimization and/or second-order correction.
 Total Energy, E(TD-HF/TD-DFT) =  -1706.78105124
 Copying the excited state density for this state as the 1-particle RhoCI density.

 The electronic state is 1-A.
 Alpha  occ. eigenvalues --  -19.20659 -19.20213 -10.30348 -10.29658 -10.28481
 Alpha  occ. eigenvalues --  -10.27920 -10.27805 -10.27725 -10.27672 -10.27537
 Alpha  occ. eigenvalues --  -10.27247 -10.26911 -10.26873 -10.26866 -10.26845
 Alpha  occ. eigenvalues --  -10.26819 -10.26589 -10.26429 -10.26351 -10.26133
 Alpha  occ. eigenvalues --  -10.26093 -10.26042 -10.25782 -10.25749 -10.25704
 Alpha  occ. eigenvalues --  -10.25670 -10.25537 -10.25453 -10.25244 -10.25178
 Alpha  occ. eigenvalues --  -10.25056 -10.24956 -10.24803 -10.24540 -10.24448
 Alpha  occ. eigenvalues --  -10.24338 -10.24142 -10.23957 -10.23817 -10.23625
 Alpha  occ. eigenvalues --  -10.23407 -10.23164  -1.12898  -1.08448  -0.94421
 Alpha  occ. eigenvalues --   -0.93636  -0.92495  -0.91989  -0.90356  -0.89626
 Alpha  occ. eigenvalues --   -0.87785  -0.87149  -0.86845  -0.85908  -0.84585
 Alpha  occ. eigenvalues --   -0.83200  -0.81877  -0.80598  -0.79835  -0.78628
 Alpha  occ. eigenvalues --   -0.77477  -0.77196  -0.77049  -0.76575  -0.76015
 Alpha  occ. eigenvalues --   -0.75455  -0.75246  -0.74932  -0.73538  -0.71333
 Alpha  occ. eigenvalues --   -0.69334  -0.67496  -0.66486  -0.65714  -0.64785
 Alpha  occ. eigenvalues --   -0.64231  -0.63117  -0.62427  -0.61573  -0.61034
 Alpha  occ. eigenvalues --   -0.59674  -0.58587  -0.57996  -0.57065  -0.56552
 Alpha  occ. eigenvalues --   -0.55952  -0.55634  -0.55125  -0.54964  -0.54381
 Alpha  occ. eigenvalues --   -0.53686  -0.53190  -0.52425  -0.52310  -0.51807
 Alpha  occ. eigenvalues --   -0.50680  -0.50486  -0.50043  -0.49890  -0.49300
 Alpha  occ. eigenvalues --   -0.49147  -0.48547  -0.48449  -0.48117  -0.48041
 Alpha  occ. eigenvalues --   -0.47655  -0.47429  -0.46972  -0.46486  -0.46182
 Alpha  occ. eigenvalues --   -0.46013  -0.45744  -0.45455  -0.45204  -0.44880
 Alpha  occ. eigenvalues --   -0.44353  -0.44046  -0.43887  -0.43838  -0.43293
 Alpha  occ. eigenvalues --   -0.43048  -0.43016  -0.42927  -0.42579  -0.42506
 Alpha  occ. eigenvalues --   -0.41986  -0.41523  -0.41275  -0.40987  -0.40806
 Alpha  occ. eigenvalues --   -0.40594  -0.40549  -0.40240  -0.39977  -0.39768
 Alpha  occ. eigenvalues --   -0.39474  -0.39203  -0.38890  -0.38562  -0.38002
 Alpha  occ. eigenvalues --   -0.37096  -0.36945  -0.36729  -0.35999  -0.35481
 Alpha  occ. eigenvalues --   -0.35117  -0.34889  -0.34340  -0.32778  -0.31370
 Alpha  occ. eigenvalues --   -0.30530  -0.29655  -0.28405  -0.26378  -0.23935
 Alpha  occ. eigenvalues --   -0.19642
 Alpha virt. eigenvalues --   -0.05191   0.00017   0.02856   0.06426   0.08083
 Alpha virt. eigenvalues --    0.09996   0.11466   0.11759   0.12006   0.12538
 Alpha virt. eigenvalues --    0.13037   0.13212   0.13269   0.13503   0.13679

 Mulliken charges:
               1
     1  O   -0.520526
     2  O   -0.583581
     3  C   -0.028915
     4  C   -0.021923
     5  C   -0.207835
     6  C   -0.198795
     7  C    0.165866
     8  C    0.179440
     9  C    0.062494
    10  C    0.094449
    11  C   -0.209636
    12  C   -0.204518
    13  C    0.005487
    14  C    0.047038
    15  C   -0.295159
    16  C   -0.266014
    17  C   -0.291061
    18  C   -0.321243
    19  C   -0.087306
    20  C   -0.123130
    21  C   -0.340750
    22  C   -0.361459
    23  C   -0.107251
    24  C   -0.103046
    25  C    0.060014
    26  C    0.083903
    27  C   -0.323014
    28  C   -0.364950
    29  C   -0.104193
    30  C   -0.094873
    31  C   -0.077926
    32  C   -0.049963
    33  C   -0.125052
    34  C   -0.118820
    35  C    0.103386
    36  C    0.090361
    37  C   -0.372957
    38  C   -0.351534
    39  C   -0.107790
    40  C   -0.102639
    41  C   -0.058697
    42  C   -0.091221
    43  H    0.104375
    44  H    0.084993
    45  H    0.084004
    46  H    0.108950
    47  H    0.050101
    48  H    0.072613
    49  H    0.093006
    50  H    0.114722
    51  H    0.128633
    52  H    0.109407
    53  H    0.096863
    54  H    0.089879
    55  H    0.094603
    56  H    0.109090
    57  H    0.094323
    58  H    0.091191
    59  H    0.106460
    60  H    0.112836
    61  H    0.110874
    62  H    0.104829
    63  H    0.075160
    64  H    0.084107
    65  H    0.073010
    66  H    0.070715
    67  H    0.127151
    68  H    0.122036
    69  H    0.114747
    70  H    0.089748
    71  H    0.113399
    72  H    0.098915
    73  H    0.284786
    74  H    0.298770
    75  H    0.078251
    76  H    0.086408
    77  H    0.089735
    78  H    0.112807
    79  H    0.098277
    80  H    0.125479
    81  H    0.132136
    82  H    0.084701
    83  H    0.074420
    84  H    0.062033
    85  H    0.072806
    86  H    0.073251
    87  H    0.079752
    88  H    0.075863
    89  H    0.134203
    90  H    0.107761
    91  H    0.121075
    92  H    0.098740
    93  H    0.097416
    94  H    0.103132
    95  H    0.075751
    96  H    0.074859
    97  H    0.056830
    98  H    0.093357
 Sum of Mulliken charges =  -0.00000

 Dipole moment (field-independent basis, Debye):
    X=             -0.4196    Y=             -1.5108    Z=              0.4695  Tot=              1.6368
 Quadrupole moment (field-independent basis, Debye-Ang):
   XX=           -254.7250   YY=           -242.7279   ZZ=           -261.8625
   XY=             15.5379   XZ=              2.5192   YZ=             -0.3291

 Normal termination of Gaussian 16 at Wed Jul 17 13:04:08 2019.
