 Gaussian 16, Revision A.03,
 Gaussian 16:  ES64L-G16RevA.03 25-Dec-2016

 -------------------------------------
 # td=(NStates=1) CAM-B3LYP/6-31G(d,p)
 -------------------------------------

 --
 TD
 --
 Symbolic Z-matrix:
 Charge =  0 Multiplicity = 1

                         Standard orientation:
 ---------------------------------------------------------------------
 Center     Atomic      Atomic             Coordinates (Angstroms)
 Number     Number       Type             X           Y           Z
 ---------------------------------------------------------------------
      1          8           0       14.798376   -2.189549   -0.363413
      2          8           0      -14.461910    2.142074    0.940848
      3          6           0       11.312922   -1.388735    0.966581
      4          6           0      -12.443161   -0.961928    0.580785
      5          6           0       12.791599   -1.798532    1.003204
      6          6           0      -13.610425   -0.143468    0.613866
      7          6           0       13.379033   -1.918674   -0.400616
      8          6           0      -13.302492    1.298103    0.867560
      9          6           0       10.974181   -0.191567    0.016150
     10          6           0      -11.249603   -0.260778   -0.277428
     11          6           0       13.258905   -0.491249   -0.984326
     12          6           0      -12.645648    1.874970   -0.374715
     13          6           0       11.836042    0.079050   -0.934285
     14          6           0      -11.438404    0.916235   -0.722431
     15          6           0       10.926374   -0.992508    2.496229
     16          6           0       10.464461   -2.590478    0.579389
     17          6           0      -11.922561   -1.208912    2.035427
     18          6           0      -12.815469   -2.272956   -0.048736
     19          6           0        9.669071    0.445407    0.150179
     20          6           0      -10.056695   -1.063843   -0.333432
     21          6           0       11.394596    0.962978   -2.163532
     22          6           0      -10.534347    1.638680   -1.703266
     23          6           0        9.244926    1.724532   -0.016704
     24          6           0       -8.773463   -0.614795   -0.212205
     25          6           0        8.014863    2.308170    0.225104
     26          6           0       -7.609828   -1.335474   -0.472879
     27          6           0        7.826402    3.825238    0.611105
     28          6           0       -7.625595   -2.812799   -0.955839
     29          6           0        6.866636    1.570528    0.155489
     30          6           0       -6.356720   -0.820071   -0.286378
     31          6           0        5.517580    2.058118    0.261432
     32          6           0       -5.082868   -1.315849   -0.430888
     33          6           0        4.391121    1.264169   -0.058415
     34          6           0       -3.964121   -0.337768   -0.283428
     35          6           0        3.016639    1.728518    0.130626
     36          6           0       -2.516708   -0.755005   -0.384539
     37          6           0        2.659363    3.134273    0.499652
     38          6           0       -2.317247   -2.295559   -0.605262
     39          6           0        2.081099    0.752219   -0.178881
     40          6           0       -1.591593    0.179402   -0.199644
     41          6           0        0.727605    0.862777   -0.166594
     42          6           0       -0.260656   -0.044391   -0.305973
     43          1           0       13.430259   -1.033769    1.508177
     44          1           0       12.854677   -2.791279    1.670713
     45          1           0      -14.440666   -0.615098    1.338357
     46          1           0      -14.244481   -0.235906   -0.306634
     47          1           0       12.936777   -2.799276   -0.948746
     48          1           0      -12.693396    1.592228    1.779033
     49          1           0       13.918305    0.206215   -0.374068
     50          1           0       13.392144   -0.107346   -2.031092
     51          1           0      -13.304393    1.983225   -1.212249
     52          1           0      -12.202553    2.870665   -0.132447
     53          1           0       11.082914   -1.789681    3.258167
     54          1           0        9.779320   -0.884160    2.518843
     55          1           0       11.528202    0.006943    2.852754
     56          1           0       10.889096   -2.957951   -0.294919
     57          1           0       10.525220   -3.398496    1.291599
     58          1           0        9.459625   -2.383091    0.396491
     59          1           0      -11.892557   -0.259440    2.552400
     60          1           0      -10.980975   -1.690889    2.018650
     61          1           0      -12.706901   -1.970048    2.487073
     62          1           0      -13.598747   -2.840581    0.529948
     63          1           0      -11.927085   -3.096631    0.086927
     64          1           0      -13.196965   -2.160423   -1.099601
     65          1           0        8.912191   -0.203486    0.433725
     66          1           0      -10.117193   -2.142781   -0.660083
     67          1           0       10.427236    1.282984   -2.225930
     68          1           0       11.893707    1.934547   -2.059831
     69          1           0       11.722476    0.427730   -3.109573
     70          1           0      -10.867788    2.166593   -2.495328
     71          1           0       -9.813706    1.107378   -2.229339
     72          1           0       -9.958783    2.472114   -1.112627
     73          1           0       14.795246   -3.049834   -0.070386
     74          1           0      -15.383523    1.665987    1.266343
     75          1           0       10.064992    2.420760   -0.250714
     76          1           0       -8.676073    0.321754    0.023147
     77          1           0        8.729066    4.298716    0.688340
     78          1           0        7.309475    4.368463   -0.095029
     79          1           0        7.315629    3.833345    1.575726
     80          1           0       -8.294471   -3.343347   -0.146219
     81          1           0       -7.875932   -2.920265   -1.973360
     82          1           0       -6.638668   -3.051331   -0.758670
     83          1           0        6.917452    0.557483   -0.106526
     84          1           0       -6.533407    0.288499    0.059883
     85          1           0        5.316654    3.047163    0.760588
     86          1           0       -4.835691   -2.363904   -0.675703
     87          1           0        4.755349    0.169652   -0.524964
     88          1           0       -4.135479    0.741862    0.093889
     89          1           0        2.984651    3.250977    1.575141
     90          1           0        1.784900    3.518560    0.157379
     91          1           0        3.603234    3.572934    0.014629
     92          1           0       -2.883758   -2.749335    0.040789
     93          1           0       -2.703746   -2.363896   -1.562951
     94          1           0       -1.386681   -2.569469   -0.623842
     95          1           0        2.421894   -0.180124   -0.542720
     96          1           0       -1.871406    1.192162    0.079368
     97          1           0        0.216579    1.880458    0.367437
     98          1           0        0.091138   -0.895920   -0.575728
 ---------------------------------------------------------------------

 SCF Done:  E(RCAM-B3LYP) =  -1706.98275776     A.U. after   15 cycles

 Excitation energies and oscillator strengths:

 Excited State   1:      Singlet-A      2.2343 eV  554.92 nm  f=3.9173  <S**2>=0.000
     155 ->158         0.17057
     156 ->157         0.68485
 This state for optimization and/or second-order correction.
 Total Energy, E(TD-HF/TD-DFT) =  -1706.90065043
 Copying the excited state density for this state as the 1-particle RhoCI density.

 The electronic state is 1-A.
 Alpha  occ. eigenvalues --  -19.20605 -19.20486 -10.31895 -10.30178 -10.28743
 Alpha  occ. eigenvalues --  -10.28425 -10.28232 -10.27958 -10.27822 -10.27594
 Alpha  occ. eigenvalues --  -10.26934 -10.26838 -10.26616 -10.26471 -10.26450
 Alpha  occ. eigenvalues --  -10.26376 -10.26275 -10.26245 -10.26157 -10.26151
 Alpha  occ. eigenvalues --  -10.26009 -10.25996 -10.25890 -10.25733 -10.25691
 Alpha  occ. eigenvalues --  -10.25638 -10.25389 -10.25324 -10.25262 -10.25199
 Alpha  occ. eigenvalues --  -10.25146 -10.25126 -10.24982 -10.24831 -10.24779
 Alpha  occ. eigenvalues --  -10.24514 -10.24513 -10.24151 -10.24049 -10.23615
 Alpha  occ. eigenvalues --  -10.23495 -10.23359  -1.10461  -1.06199  -0.94060
 Alpha  occ. eigenvalues --   -0.93523  -0.92761  -0.91592  -0.91181  -0.90388
 Alpha  occ. eigenvalues --   -0.87746  -0.87046  -0.86467  -0.85367  -0.84858
 Alpha  occ. eigenvalues --   -0.82944  -0.82104  -0.80649  -0.80120  -0.79616
 Alpha  occ. eigenvalues --   -0.77211  -0.77105  -0.77004  -0.75923  -0.75712
 Alpha  occ. eigenvalues --   -0.75652  -0.75083  -0.74356  -0.73838  -0.71416
 Alpha  occ. eigenvalues --   -0.69740  -0.67551  -0.66269  -0.65595  -0.64288
 Alpha  occ. eigenvalues --   -0.63323  -0.62662  -0.62291  -0.60417  -0.60088
 Alpha  occ. eigenvalues --   -0.59434  -0.59417  -0.58442  -0.57522  -0.56356
 Alpha  occ. eigenvalues --   -0.55844  -0.55499  -0.54958  -0.54594  -0.53879
 Alpha  occ. eigenvalues --   -0.53212  -0.52947  -0.51910  -0.51570  -0.51127
 Alpha  occ. eigenvalues --   -0.50825  -0.50330  -0.49916  -0.49824  -0.49593
 Alpha  occ. eigenvalues --   -0.49224  -0.49166  -0.49012  -0.48722  -0.48458
 Alpha  occ. eigenvalues --   -0.48337  -0.47609  -0.47431  -0.46907  -0.46854
 Alpha  occ. eigenvalues --   -0.46128  -0.45760  -0.45464  -0.45068  -0.44850
 Alpha  occ. eigenvalues --   -0.44532  -0.43942  -0.43925  -0.43840  -0.43547
 Alpha  occ. eigenvalues --   -0.43321  -0.42919  -0.42665  -0.42443  -0.42207
 Alpha  occ. eigenvalues --   -0.42033  -0.41696  -0.41246  -0.41023  -0.40931
 Alpha  occ. eigenvalues --   -0.40649  -0.40512  -0.39866  -0.39747  -0.39678
 Alpha  occ. eigenvalues --   -0.39595  -0.38887  -0.38655  -0.38191  -0.37717
 Alpha  occ. eigenvalues --   -0.37707  -0.37109  -0.37066  -0.36265  -0.35849
 Alpha  occ. eigenvalues --   -0.35768  -0.34853  -0.34060  -0.33016  -0.32125
 Alpha  occ. eigenvalues --   -0.31172  -0.30053  -0.29001  -0.26309  -0.23006
 Alpha  occ. eigenvalues --   -0.19460
 Alpha virt. eigenvalues --   -0.05696  -0.01424   0.02592   0.06383   0.08565
 Alpha virt. eigenvalues --    0.10893   0.11168   0.11977   0.12289   0.12471
 Alpha virt. eigenvalues --    0.12502   0.13073   0.13507   0.13653   0.14166

 Mulliken charges:
               1
     1  O   -0.540610
     2  O   -0.597639
     3  C   -0.025553
     4  C    0.008045
     5  C   -0.187948
     6  C   -0.198031
     7  C    0.146468
     8  C    0.193553
     9  C    0.098700
    10  C    0.094265
    11  C   -0.201119
    12  C   -0.191888
    13  C   -0.005626
    14  C    0.001516
    15  C   -0.295405
    16  C   -0.301406
    17  C   -0.288600
    18  C   -0.304899
    19  C   -0.094987
    20  C   -0.156115
    21  C   -0.362076
    22  C   -0.364284
    23  C   -0.121641
    24  C   -0.050641
    25  C    0.072892
    26  C    0.076535
    27  C   -0.364175
    28  C   -0.353314
    29  C   -0.115330
    30  C   -0.102427
    31  C   -0.103538
    32  C   -0.126710
    33  C   -0.111195
    34  C   -0.128867
    35  C    0.086438
    36  C    0.056983
    37  C   -0.361260
    38  C   -0.340802
    39  C   -0.106079
    40  C   -0.103359
    41  C   -0.091613
    42  C   -0.041053
    43  H    0.110739
    44  H    0.070858
    45  H    0.062566
    46  H    0.096953
    47  H    0.085821
    48  H    0.090419
    49  H    0.124990
    50  H    0.100762
    51  H    0.123594
    52  H    0.110148
    53  H    0.094843
    54  H    0.091130
    55  H    0.085570
    56  H    0.103820
    57  H    0.100396
    58  H    0.110226
    59  H    0.105897
    60  H    0.114890
    61  H    0.076355
    62  H    0.095543
    63  H    0.077697
    64  H    0.105229
    65  H    0.071303
    66  H    0.086909
    67  H    0.128686
    68  H    0.111404
    69  H    0.103857
    70  H    0.116848
    71  H    0.115983
    72  H    0.088076
    73  H    0.293729
    74  H    0.297145
    75  H    0.073131
    76  H    0.062105
    77  H    0.110803
    78  H    0.131761
    79  H    0.127280
    80  H    0.099907
    81  H    0.129820
    82  H    0.105269
    83  H    0.073669
    84  H    0.064549
    85  H    0.080618
    86  H    0.108081
    87  H    0.083803
    88  H    0.095176
    89  H    0.129831
    90  H    0.133226
    91  H    0.116087
    92  H    0.135785
    93  H    0.134856
    94  H    0.110326
    95  H    0.077274
    96  H    0.079332
    97  H    0.034980
    98  H    0.052742
 Sum of Mulliken charges =  -0.00000

 Dipole moment (field-independent basis, Debye):
    X=             -0.3864    Y=             -2.0114    Z=              0.1265  Tot=              2.0521
 Quadrupole moment (field-independent basis, Debye-Ang):
   XX=           -280.4127   YY=           -243.3334   ZZ=           -263.0738
   XY=              8.9549   XZ=              6.0409   YZ=              0.4777

 Normal termination of Gaussian 16 at Thu Jul 11 15:35:08 2019.
