 Gaussian 16, Revision A.03,
 Gaussian 16:  ES64L-G16RevA.03 25-Dec-2016

 -------------------------------------
 # td=(NStates=1) CAM-B3LYP/6-31G(d,p)
 -------------------------------------

 --
 TD
 --
 Symbolic Z-matrix:
 Charge =  0 Multiplicity = 1

                         Standard orientation:
 ---------------------------------------------------------------------
 Center     Atomic      Atomic             Coordinates (Angstroms)
 Number     Number       Type             X           Y           Z
 ---------------------------------------------------------------------
      1          8           0       14.635145   -2.256136   -0.310613
      2          8           0      -14.762045    1.729348    1.346683
      3          6           0       11.191590   -1.439347    0.969259
      4          6           0      -12.287165   -1.130631    0.484582
      5          6           0       12.665752   -1.948707    0.943611
      6          6           0      -13.680209   -0.300837    0.657516
      7          6           0       13.269274   -1.927072   -0.353176
      8          6           0      -13.452359    1.132444    1.081152
      9          6           0       10.908643   -0.378008    0.064712
     10          6           0      -11.274417   -0.266434   -0.232694
     11          6           0       13.189250   -0.623427   -1.110385
     12          6           0      -12.833517    1.705732   -0.157941
     13          6           0       11.814493   -0.002596   -0.919387
     14          6           0      -11.561441    1.048369   -0.621227
     15          6           0       10.757661   -1.172596    2.502371
     16          6           0       10.205596   -2.639084    0.618943
     17          6           0      -11.716537   -1.625503    1.826514
     18          6           0      -12.606147   -2.388092   -0.249123
     19          6           0        9.607467    0.299325    0.156458
     20          6           0      -10.034324   -0.995589   -0.572411
     21          6           0       11.699219    1.178718   -1.848346
     22          6           0      -10.683572    1.934053   -1.448918
     23          6           0        9.447504    1.685486    0.087563
     24          6           0       -8.833115   -0.477563   -0.390105
     25          6           0        8.108829    2.275043    0.163943
     26          6           0       -7.596433   -1.110583   -0.651084
     27          6           0        8.042067    3.742512    0.283811
     28          6           0       -7.581436   -2.470566   -1.205096
     29          6           0        6.940255    1.547207    0.040139
     30          6           0       -6.395947   -0.453848   -0.417496
     31          6           0        5.678932    1.980628    0.090824
     32          6           0       -5.039752   -1.003090   -0.490101
     33          6           0        4.457602    1.277945    0.130545
     34          6           0       -3.952285   -0.280464   -0.359670
     35          6           0        3.121757    1.795700    0.202013
     36          6           0       -2.551625   -0.661345   -0.488541
     37          6           0        2.902709    3.233907    0.594969
     38          6           0       -2.264157   -2.098452   -0.833840
     39          6           0        2.164133    0.865460   -0.011120
     40          6           0       -1.675352    0.327725   -0.241840
     41          6           0        0.652151    1.002826    0.093863
     42          6           0       -0.235421    0.096603   -0.210559
     43          1           0       13.177789   -1.064429    1.424890
     44          1           0       12.906981   -2.908464    1.509505
     45          1           0      -14.254543   -0.891541    1.336977
     46          1           0      -14.132028   -0.469688   -0.315412
     47          1           0       12.824786   -2.693248   -0.975151
     48          1           0      -12.768489    1.273793    1.951677
     49          1           0       13.901151   -0.157486   -0.583870
     50          1           0       13.263571   -0.529688   -2.199489
     51          1           0      -13.315737    1.726403   -1.240350
     52          1           0      -12.527620    2.593578   -0.009285
     53          1           0       11.311176   -2.018016    3.254572
     54          1           0        9.738188   -0.930846    2.793315
     55          1           0       11.297655   -0.317337    2.924429
     56          1           0       10.784246   -2.921178   -0.413190
     57          1           0       10.311374   -3.497136    1.331065
     58          1           0        9.000938   -2.647616    0.569582
     59          1           0      -11.569703   -0.765192    2.430758
     60          1           0      -10.758017   -2.236724    2.024780
     61          1           0      -12.479995   -2.212082    2.411624
     62          1           0      -13.479339   -2.753626    0.272212
     63          1           0      -11.795707   -3.162469   -0.413960
     64          1           0      -12.872225   -2.116127   -1.391337
     65          1           0        8.648433   -0.162135    0.543413
     66          1           0       -9.971277   -2.022742   -1.062966
     67          1           0       10.677765    1.206320   -2.240796
     68          1           0       11.961292    2.116557   -1.281620
     69          1           0       12.387856    1.018721   -2.720770
     70          1           0      -11.326054    2.528188   -2.025377
     71          1           0      -10.091518    1.363276   -1.743202
     72          1           0      -10.158961    2.645179   -0.755983
     73          1           0       14.841054   -2.957322    0.417326
     74          1           0      -15.206534    1.326827    2.213961
     75          1           0       10.215406    2.301919    0.035659
     76          1           0       -8.762565    0.452570    0.178379
     77          1           0        8.978307    4.357341    0.332901
     78          1           0        7.630149    4.033508   -0.686698
     79          1           0        7.381251    4.232866    1.025511
     80          1           0       -7.604532   -3.329699   -0.339349
     81          1           0       -8.346867   -2.615208   -2.081876
     82          1           0       -6.628981   -2.873419   -1.637816
     83          1           0        6.967359    0.426998   -0.209856
     84          1           0       -6.447985    0.574584   -0.014994
     85          1           0        5.508899    3.223503    0.436776
     86          1           0       -5.043177   -1.955409   -0.612416
     87          1           0        4.546717    0.192006   -0.135008
     88          1           0       -4.147922    0.780845   -0.263397
     89          1           0        3.840977    3.569588    1.279708
     90          1           0        1.798464    3.254898    1.022104
     91          1           0        2.761641    3.836722   -0.414386
     92          1           0       -2.807502   -2.822112   -0.298782
     93          1           0       -2.620993   -2.398921   -1.855771
     94          1           0       -1.148652   -2.368078   -0.627243
     95          1           0        2.487735    0.053506   -0.391937
     96          1           0       -2.008496    1.262291    0.079422
     97          1           0        0.472089    1.971264    0.377341
     98          1           0        0.249327   -0.726111   -0.602524
 ---------------------------------------------------------------------

 SCF Done:  E(RCAM-B3LYP) =  -1706.91906239     A.U. after   15 cycles

 Excitation energies and oscillator strengths:

 Excited State   1:      Singlet-A      2.6062 eV  475.73 nm  f=3.0562  <S**2>=0.000
     155 ->158        -0.17534
     156 ->157         0.67608
 This state for optimization and/or second-order correction.
 Total Energy, E(TD-HF/TD-DFT) =  -1706.82328735
 Copying the excited state density for this state as the 1-particle RhoCI density.

 The electronic state is 1-A.
 Alpha  occ. eigenvalues --  -19.21300 -19.21231 -10.31252 -10.29384 -10.28722
 Alpha  occ. eigenvalues --  -10.28238 -10.27677 -10.27317 -10.27260 -10.27217
 Alpha  occ. eigenvalues --  -10.26998 -10.26989 -10.26929 -10.26882 -10.26809
 Alpha  occ. eigenvalues --  -10.26662 -10.26628 -10.26581 -10.26518 -10.26313
 Alpha  occ. eigenvalues --  -10.26304 -10.26297 -10.25971 -10.25937 -10.25663
 Alpha  occ. eigenvalues --  -10.25597 -10.25544 -10.25498 -10.25473 -10.25435
 Alpha  occ. eigenvalues --  -10.25312 -10.25279 -10.25098 -10.25042 -10.24730
 Alpha  occ. eigenvalues --  -10.24637 -10.24487 -10.24469 -10.24362 -10.24351
 Alpha  occ. eigenvalues --  -10.24236 -10.22835  -1.09148  -1.06378  -0.94459
 Alpha  occ. eigenvalues --   -0.93547  -0.92336  -0.91822  -0.90937  -0.90272
 Alpha  occ. eigenvalues --   -0.88033  -0.87567  -0.87037  -0.86099  -0.85137
 Alpha  occ. eigenvalues --   -0.83623  -0.82810  -0.80798  -0.80279  -0.78144
 Alpha  occ. eigenvalues --   -0.76743  -0.76683  -0.76234  -0.76154  -0.75550
 Alpha  occ. eigenvalues --   -0.75383  -0.75053  -0.74243  -0.74001  -0.70224
 Alpha  occ. eigenvalues --   -0.69169  -0.67805  -0.66401  -0.65584  -0.64792
 Alpha  occ. eigenvalues --   -0.63692  -0.63395  -0.62824  -0.61779  -0.59754
 Alpha  occ. eigenvalues --   -0.59247  -0.58657  -0.58128  -0.57784  -0.56879
 Alpha  occ. eigenvalues --   -0.56159  -0.55703  -0.55062  -0.54843  -0.54096
 Alpha  occ. eigenvalues --   -0.53838  -0.53145  -0.52309  -0.51632  -0.51079
 Alpha  occ. eigenvalues --   -0.50924  -0.50554  -0.49855  -0.49507  -0.49100
 Alpha  occ. eigenvalues --   -0.48837  -0.48507  -0.48385  -0.48259  -0.47857
 Alpha  occ. eigenvalues --   -0.47715  -0.47439  -0.47152  -0.47001  -0.46262
 Alpha  occ. eigenvalues --   -0.46212  -0.45727  -0.45353  -0.45050  -0.45003
 Alpha  occ. eigenvalues --   -0.44726  -0.44444  -0.44150  -0.43936  -0.43512
 Alpha  occ. eigenvalues --   -0.43399  -0.43370  -0.43003  -0.42495  -0.42110
 Alpha  occ. eigenvalues --   -0.41948  -0.41608  -0.41281  -0.41047  -0.40773
 Alpha  occ. eigenvalues --   -0.40348  -0.40272  -0.39969  -0.39472  -0.39428
 Alpha  occ. eigenvalues --   -0.39085  -0.38912  -0.38405  -0.37698  -0.37492
 Alpha  occ. eigenvalues --   -0.37074  -0.36825  -0.36424  -0.36183  -0.36114
 Alpha  occ. eigenvalues --   -0.35804  -0.34980  -0.34217  -0.32211  -0.31920
 Alpha  occ. eigenvalues --   -0.31453  -0.29360  -0.27620  -0.26307  -0.23040
 Alpha  occ. eigenvalues --   -0.20418
 Alpha virt. eigenvalues --   -0.04374  -0.01084   0.02944   0.05705   0.07897
 Alpha virt. eigenvalues --    0.09320   0.10663   0.10802   0.11234   0.11615
 Alpha virt. eigenvalues --    0.12307   0.13047   0.13294   0.13871   0.13923

 Mulliken charges:
               1
     1  O   -0.580735
     2  O   -0.583863
     3  C   -0.044243
     4  C   -0.033780
     5  C   -0.209078
     6  C   -0.193467
     7  C    0.187939
     8  C    0.176276
     9  C    0.118799
    10  C    0.063039
    11  C   -0.191766
    12  C   -0.181429
    13  C    0.000678
    14  C   -0.021655
    15  C   -0.303739
    16  C   -0.282014
    17  C   -0.302017
    18  C   -0.285014
    19  C   -0.123997
    20  C   -0.142663
    21  C   -0.359197
    22  C   -0.291589
    23  C   -0.073623
    24  C   -0.083104
    25  C    0.090800
    26  C    0.141115
    27  C   -0.397529
    28  C   -0.392468
    29  C   -0.114634
    30  C   -0.154147
    31  C   -0.075696
    32  C   -0.044698
    33  C   -0.144903
    34  C   -0.113510
    35  C    0.143575
    36  C    0.144936
    37  C   -0.361324
    38  C   -0.384680
    39  C   -0.121383
    40  C   -0.128497
    41  C   -0.068480
    42  C   -0.074058
    43  H    0.101516
    44  H    0.092847
    45  H    0.075002
    46  H    0.117320
    47  H    0.078382
    48  H    0.096236
    49  H    0.130941
    50  H    0.112549
    51  H    0.112021
    52  H    0.104156
    53  H    0.066878
    54  H    0.117814
    55  H    0.098004
    56  H    0.073449
    57  H    0.095180
    58  H    0.096933
    59  H    0.096206
    60  H    0.106170
    61  H    0.083039
    62  H    0.102803
    63  H    0.102952
    64  H    0.069735
    65  H    0.097910
    66  H    0.084460
    67  H    0.130486
    68  H    0.123459
    69  H    0.093192
    70  H    0.108891
    71  H    0.109462
    72  H    0.106038
    73  H    0.303347
    74  H    0.307477
    75  H    0.071555
    76  H    0.080607
    77  H    0.104999
    78  H    0.136599
    79  H    0.124524
    80  H    0.099704
    81  H    0.110929
    82  H    0.112708
    83  H    0.080715
    84  H    0.070317
    85  H    0.034843
    86  H    0.049978
    87  H    0.073679
    88  H    0.073852
    89  H    0.111975
    90  H    0.105432
    91  H    0.121594
    92  H    0.131217
    93  H    0.121674
    94  H    0.105248
    95  H    0.053867
    96  H    0.091003
    97  H    0.054440
    98  H    0.079509
 Sum of Mulliken charges =  -0.00000

 Dipole moment (field-independent basis, Debye):
    X=              1.0599    Y=             -1.0110    Z=              1.6268  Tot=              2.1891
 Quadrupole moment (field-independent basis, Debye-Ang):
   XX=           -274.4178   YY=           -245.2390   ZZ=           -259.0028
   XY=             12.9600   XZ=              1.2999   YZ=             -1.8856

 Normal termination of Gaussian 16 at Wed Jul 17 17:12:25 2019.
