 Gaussian 16, Revision A.03,
 Gaussian 16:  ES64L-G16RevA.03 25-Dec-2016

 -------------------------------------
 # td=(NStates=1) CAM-B3LYP/6-31G(d,p)
 -------------------------------------

 --
 TD
 --
 Symbolic Z-matrix:
 Charge =  0 Multiplicity = 1

                         Standard orientation:
 ---------------------------------------------------------------------
 Center     Atomic      Atomic             Coordinates (Angstroms)
 Number     Number       Type             X           Y           Z
 ---------------------------------------------------------------------
      1          8           0       14.740366   -2.165956   -0.332685
      2          8           0      -14.714040    2.040270    1.032885
      3          6           0       11.244242   -1.418148    1.056625
      4          6           0      -12.370567   -1.041575    0.627632
      5          6           0       12.780337   -1.681289    1.032936
      6          6           0      -13.680927   -0.171332    0.727124
      7          6           0       13.365398   -1.949395   -0.426994
      8          6           0      -13.428195    1.342997    0.869586
      9          6           0       11.004634   -0.276395    0.068619
     10          6           0      -11.302102   -0.249566   -0.227420
     11          6           0       13.216914   -0.590314   -1.141869
     12          6           0      -12.683378    1.843232   -0.319473
     13          6           0       11.876580    0.198009   -0.977940
     14          6           0      -11.494302    1.004497   -0.707042
     15          6           0       11.002271   -0.847026    2.420735
     16          6           0       10.462523   -2.603828    0.680738
     17          6           0      -11.799869   -1.311951    1.977148
     18          6           0      -12.798689   -2.330573   -0.045208
     19          6           0        9.686284    0.358822    0.056357
     20          6           0      -10.048855   -1.020522   -0.381922
     21          6           0       11.596090    1.240474   -2.092422
     22          6           0      -10.645130    1.761719   -1.670739
     23          6           0        9.375137    1.621605    0.097264
     24          6           0       -8.816885   -0.438461   -0.397828
     25          6           0        8.081994    2.216097    0.201878
     26          6           0       -7.637672   -1.289956   -0.543893
     27          6           0        7.843256    3.660565    0.357941
     28          6           0       -7.672210   -2.796718   -0.862786
     29          6           0        6.906204    1.537914    0.070624
     30          6           0       -6.433517   -0.585270   -0.423733
     31          6           0        5.573975    1.988743    0.238930
     32          6           0       -5.061461   -1.078935   -0.600776
     33          6           0        4.473336    1.178079    0.070778
     34          6           0       -3.943737   -0.291200   -0.395685
     35          6           0        3.167033    1.533722    0.272149
     36          6           0       -2.625810   -0.795713   -0.527645
     37          6           0        2.822884    3.015707    0.701499
     38          6           0       -2.400079   -2.165350   -0.827070
     39          6           0        2.029202    0.682042   -0.002679
     40          6           0       -1.577647    0.134556   -0.264943
     41          6           0        0.755980    0.895474    0.043156
     42          6           0       -0.263334   -0.072755   -0.313050
     43          1           0       13.217822   -0.739601    1.525185
     44          1           0       13.080789   -2.419479    1.768087
     45          1           0      -14.461083   -0.654512    1.331000
     46          1           0      -14.203638   -0.287449   -0.221092
     47          1           0       12.897040   -2.776527   -0.822058
     48          1           0      -12.878873    1.405265    1.879238
     49          1           0       13.998580   -0.003928   -0.702260
     50          1           0       13.431057   -0.677494   -2.301306
     51          1           0      -13.325405    1.827362   -1.184313
     52          1           0      -12.462782    2.832529   -0.259187
     53          1           0       11.345903   -1.508678    3.345763
     54          1           0        9.860512   -0.735053    2.696889
     55          1           0       11.250960    0.285165    2.670791
     56          1           0       10.540135   -3.036514   -0.266956
     57          1           0       10.604714   -3.503067    1.396089
     58          1           0        9.315667   -2.405380    0.804427
     59          1           0      -11.725679   -0.475107    2.598792
     60          1           0      -10.858012   -1.894513    2.053263
     61          1           0      -12.470558   -2.037262    2.581876
     62          1           0      -13.843544   -2.669456    0.374386
     63          1           0      -11.946128   -3.192293   -0.049522
     64          1           0      -13.100703   -2.037439   -1.052262
     65          1           0        8.756899   -0.279439    0.432251
     66          1           0      -10.224466   -2.076031   -0.525757
     67          1           0       10.412036    1.122653   -2.457704
     68          1           0       11.911464    2.242106   -1.765759
     69          1           0       12.039174    0.963366   -3.094580
     70          1           0      -11.118394    2.010454   -2.596812
     71          1           0      -10.051421    1.044678   -1.991205
     72          1           0      -10.273827    2.648084   -1.063273
     73          1           0       14.916726   -3.163553    0.031617
     74          1           0      -15.226381    1.538796    1.689602
     75          1           0       10.357474    2.186984   -0.164718
     76          1           0       -8.451444    0.530570   -0.255031
     77          1           0        8.859548    4.214939    0.447780
     78          1           0        7.272084    4.225732   -0.523836
     79          1           0        7.464875    3.783581    1.444796
     80          1           0       -8.199360   -3.421453   -0.047178
     81          1           0       -8.183666   -2.946479   -1.748149
     82          1           0       -6.744916   -3.341963   -0.850794
     83          1           0        7.018757    0.453358   -0.271530
     84          1           0       -6.460692    0.455513   -0.080320
     85          1           0        5.357413    3.030815    0.422393
     86          1           0       -5.155271   -2.052002   -0.757056
     87          1           0        4.791239   -0.010274   -0.062954
     88          1           0       -4.123973    0.829580   -0.135516
     89          1           0        3.783075    3.260916    1.508938
     90          1           0        1.927460    3.228441    1.222078
     91          1           0        2.968537    3.785481   -0.065468
     92          1           0       -2.696100   -2.983042   -0.277235
     93          1           0       -2.709879   -2.391065   -1.930450
     94          1           0       -1.332447   -2.399794   -0.816862
     95          1           0        2.283647   -0.130618   -0.308082
     96          1           0       -1.862380    1.071033    0.239497
     97          1           0        0.537489    2.051306    0.519917
     98          1           0        0.199879   -1.021631   -0.460657
 ---------------------------------------------------------------------

 SCF Done:  E(RCAM-B3LYP) =  -1706.95182007     A.U. after   16 cycles

 Excitation energies and oscillator strengths:

 Excited State   1:      Singlet-A      1.7738 eV  698.96 nm  f=3.6662  <S**2>=0.000
     155 ->158        -0.11688
     156 ->157         0.70848
     156 <-157        -0.14650
 This state for optimization and/or second-order correction.
 Total Energy, E(TD-HF/TD-DFT) =  -1706.88663292
 Copying the excited state density for this state as the 1-particle RhoCI density.

 The electronic state is 1-A.
 Alpha  occ. eigenvalues --  -19.22002 -19.20552 -10.30894 -10.30307 -10.28377
 Alpha  occ. eigenvalues --  -10.27929 -10.27914 -10.27633 -10.27587 -10.27566
 Alpha  occ. eigenvalues --  -10.27431 -10.27026 -10.27020 -10.26949 -10.26913
 Alpha  occ. eigenvalues --  -10.26765 -10.26713 -10.26665 -10.26628 -10.26456
 Alpha  occ. eigenvalues --  -10.26252 -10.26228 -10.26087 -10.26034 -10.26031
 Alpha  occ. eigenvalues --  -10.25940 -10.25856 -10.25843 -10.25826 -10.25802
 Alpha  occ. eigenvalues --  -10.25608 -10.25484 -10.25393 -10.25355 -10.25333
 Alpha  occ. eigenvalues --  -10.25183 -10.24998 -10.24970 -10.24137 -10.24000
 Alpha  occ. eigenvalues --  -10.23808 -10.23485  -1.08758  -1.07377  -0.93472
 Alpha  occ. eigenvalues --   -0.93392  -0.92525  -0.91676  -0.90732  -0.90032
 Alpha  occ. eigenvalues --   -0.87965  -0.87652  -0.86229  -0.85387  -0.84420
 Alpha  occ. eigenvalues --   -0.83240  -0.81716  -0.80225  -0.79784  -0.78740
 Alpha  occ. eigenvalues --   -0.77507  -0.76682  -0.76645  -0.76038  -0.75430
 Alpha  occ. eigenvalues --   -0.75296  -0.74854  -0.73793  -0.72913  -0.70790
 Alpha  occ. eigenvalues --   -0.68464  -0.67417  -0.66097  -0.64678  -0.63874
 Alpha  occ. eigenvalues --   -0.63761  -0.62515  -0.61960  -0.61472  -0.59996
 Alpha  occ. eigenvalues --   -0.59244  -0.58992  -0.58152  -0.57830  -0.56272
 Alpha  occ. eigenvalues --   -0.55585  -0.55237  -0.54553  -0.54353  -0.54021
 Alpha  occ. eigenvalues --   -0.53258  -0.52829  -0.51621  -0.51444  -0.51266
 Alpha  occ. eigenvalues --   -0.50622  -0.50474  -0.50119  -0.49536  -0.49250
 Alpha  occ. eigenvalues --   -0.48811  -0.48697  -0.48613  -0.48540  -0.47969
 Alpha  occ. eigenvalues --   -0.47902  -0.47411  -0.47135  -0.46777  -0.46189
 Alpha  occ. eigenvalues --   -0.45920  -0.45601  -0.45471  -0.44849  -0.44607
 Alpha  occ. eigenvalues --   -0.44290  -0.44005  -0.43559  -0.43111  -0.42935
 Alpha  occ. eigenvalues --   -0.42503  -0.42295  -0.41917  -0.41808  -0.41608
 Alpha  occ. eigenvalues --   -0.41592  -0.41420  -0.40977  -0.40835  -0.40680
 Alpha  occ. eigenvalues --   -0.40133  -0.39909  -0.39648  -0.39331  -0.39222
 Alpha  occ. eigenvalues --   -0.39120  -0.38707  -0.38313  -0.38150  -0.37964
 Alpha  occ. eigenvalues --   -0.37572  -0.37112  -0.36763  -0.36577  -0.35965
 Alpha  occ. eigenvalues --   -0.35247  -0.35035  -0.34865  -0.32628  -0.31502
 Alpha  occ. eigenvalues --   -0.30950  -0.29790  -0.28299  -0.25632  -0.23513
 Alpha  occ. eigenvalues --   -0.17734
 Alpha virt. eigenvalues --   -0.07400  -0.00368   0.02229   0.05716   0.07774
 Alpha virt. eigenvalues --    0.09872   0.10167   0.11962   0.12035   0.12477
 Alpha virt. eigenvalues --    0.12890   0.13079   0.13302   0.13684   0.14253

 Mulliken charges:
               1
     1  O   -0.557939
     2  O   -0.576231
     3  C    0.028988
     4  C    0.000591
     5  C   -0.199551
     6  C   -0.227265
     7  C    0.182219
     8  C    0.174468
     9  C    0.035942
    10  C    0.067519
    11  C   -0.213671
    12  C   -0.202706
    13  C    0.035326
    14  C    0.002932
    15  C   -0.313515
    16  C   -0.305143
    17  C   -0.291822
    18  C   -0.301235
    19  C   -0.113478
    20  C   -0.156369
    21  C   -0.361345
    22  C   -0.340135
    23  C   -0.087058
    24  C   -0.059083
    25  C    0.105220
    26  C    0.103722
    27  C   -0.379798
    28  C   -0.379426
    29  C   -0.125258
    30  C   -0.168632
    31  C   -0.076370
    32  C   -0.048815
    33  C   -0.107521
    34  C   -0.124898
    35  C    0.080754
    36  C    0.131096
    37  C   -0.371352
    38  C   -0.389308
    39  C   -0.035614
    40  C   -0.110605
    41  C   -0.069230
    42  C   -0.109985
    43  H    0.096725
    44  H    0.074240
    45  H    0.081097
    46  H    0.097790
    47  H    0.085152
    48  H    0.073090
    49  H    0.134034
    50  H    0.082807
    51  H    0.122002
    52  H    0.113384
    53  H    0.088381
    54  H    0.087266
    55  H    0.113222
    56  H    0.121692
    57  H    0.088884
    58  H    0.094838
    59  H    0.109699
    60  H    0.105167
    61  H    0.075747
    62  H    0.092912
    63  H    0.084893
    64  H    0.113230
    65  H    0.064913
    66  H    0.089991
    67  H    0.110264
    68  H    0.134333
    69  H    0.112136
    70  H    0.113175
    71  H    0.121182
    72  H    0.112526
    73  H    0.306008
    74  H    0.305432
    75  H    0.072099
    76  H    0.096726
    77  H    0.089826
    78  H    0.117646
    79  H    0.121660
    80  H    0.106541
    81  H    0.135619
    82  H    0.118558
    83  H    0.069630
    84  H    0.070166
    85  H    0.093394
    86  H    0.061919
    87  H    0.071340
    88  H    0.086264
    89  H    0.072626
    90  H    0.123754
    91  H    0.129985
    92  H    0.137475
    93  H    0.110486
    94  H    0.106274
    95  H    0.029469
    96  H    0.089520
    97  H    0.046797
    98  H    0.090593
 Sum of Mulliken charges =  -0.00000

 Dipole moment (field-independent basis, Debye):
    X=              0.1265    Y=             -3.3631    Z=              0.4617  Tot=              3.3970
 Quadrupole moment (field-independent basis, Debye-Ang):
   XX=           -269.6834   YY=           -241.1929   ZZ=           -260.8140
   XY=              6.4153   XZ=             -2.1407   YZ=              0.2775

 Normal termination of Gaussian 16 at Thu Jul 18 19:01:30 2019.
