 Gaussian 16, Revision A.03,
 Gaussian 16:  ES64L-G16RevA.03 25-Dec-2016

 -------------------------------------
 # td=(NStates=1) CAM-B3LYP/6-31G(d,p)
 -------------------------------------

 --
 TD
 --
 Symbolic Z-matrix:
 Charge =  0 Multiplicity = 1

                         Standard orientation:
 ---------------------------------------------------------------------
 Center     Atomic      Atomic             Coordinates (Angstroms)
 Number     Number       Type             X           Y           Z
 ---------------------------------------------------------------------
      1          8           0       14.772542   -2.113701   -0.394813
      2          8           0      -14.700771    2.097288    1.016119
      3          6           0       11.247867   -1.335135    1.014722
      4          6           0      -12.427536   -0.891304    0.606588
      5          6           0       12.822845   -1.630849    0.964479
      6          6           0      -13.704968   -0.090389    0.641826
      7          6           0       13.390379   -1.842173   -0.438415
      8          6           0      -13.538456    1.280530    0.823295
      9          6           0       10.960391   -0.257377    0.018095
     10          6           0      -11.281643   -0.187308   -0.238791
     11          6           0       13.285738   -0.441768   -1.069187
     12          6           0      -12.677271    1.984190   -0.341747
     13          6           0       11.831967    0.103721   -0.968735
     14          6           0      -11.499156    1.089134   -0.622647
     15          6           0       10.893097   -0.895105    2.401987
     16          6           0       10.438416   -2.572047    0.622392
     17          6           0      -11.933049   -1.221670    2.046797
     18          6           0      -12.653422   -2.316036   -0.131317
     19          6           0        9.657457    0.313998    0.189421
     20          6           0      -10.135056   -0.972204   -0.532287
     21          6           0       11.611872    1.228396   -1.981159
     22          6           0      -10.565759    1.812517   -1.643831
     23          6           0        9.374819    1.645496    0.135648
     24          6           0       -8.830009   -0.512322   -0.352055
     25          6           0        7.981648    2.186835    0.240767
     26          6           0       -7.722042   -1.312611   -0.517409
     27          6           0        7.960401    3.638235    0.517961
     28          6           0       -7.884382   -2.735458   -0.945675
     29          6           0        6.914652    1.497711   -0.065059
     30          6           0       -6.373023   -0.778224   -0.419487
     31          6           0        5.634593    1.975142    0.127451
     32          6           0       -5.129026   -1.306111   -0.494934
     33          6           0        4.515003    1.153842   -0.065280
     34          6           0       -3.971606   -0.583736   -0.123218
     35          6           0        3.181469    1.648407    0.094814
     36          6           0       -2.626413   -1.003875   -0.200773
     37          6           0        2.822338    3.044016    0.374039
     38          6           0       -2.194775   -2.390952   -0.674463
     39          6           0        2.031707    0.727743    0.011681
     40          6           0       -1.624786   -0.034625   -0.040064
     41          6           0        0.690391    0.959443    0.024734
     42          6           0       -0.241326   -0.158323   -0.216494
     43          1           0       13.416909   -0.694533    1.464441
     44          1           0       12.770847   -2.524412    1.838974
     45          1           0      -14.378397   -0.357839    1.355541
     46          1           0      -14.177666   -0.156631   -0.305230
     47          1           0       12.855046   -2.692993   -0.954393
     48          1           0      -12.831488    1.456966    1.638770
     49          1           0       14.018046    0.178264   -0.593255
     50          1           0       13.609680   -0.557288   -2.014110
     51          1           0      -13.273928    2.036646   -1.362417
     52          1           0      -12.251461    2.945660    0.216311
     53          1           0       11.345744   -1.612716    3.023573
     54          1           0        9.831346   -0.898345    2.657505
     55          1           0       11.301877    0.160035    2.451509
     56          1           0       10.780222   -3.151094   -0.331094
     57          1           0       10.579613   -3.365672    1.444621
     58          1           0        9.429571   -2.083008    0.752735
     59          1           0      -11.636607   -0.400542    2.569857
     60          1           0      -10.957171   -1.836693    1.896720
     61          1           0      -12.475010   -2.030436    2.436746
     62          1           0      -13.502172   -2.676479    0.145132
     63          1           0      -11.845241   -3.012210    0.154466
     64          1           0      -12.645471   -2.218742   -1.214254
     65          1           0        8.912646   -0.352381    0.479212
     66          1           0      -10.134232   -2.205361   -0.740687
     67          1           0       10.517744    1.398425   -2.049380
     68          1           0       12.094941    2.218374   -1.767498
     69          1           0       12.033743    1.024416   -2.825538
     70          1           0      -11.079461    2.550329   -2.357562
     71          1           0       -9.904617    1.085206   -2.080770
     72          1           0      -10.004607    2.550273   -0.939342
     73          1           0       14.996009   -2.833000    0.330124
     74          1           0      -15.357039    1.993835    1.850163
     75          1           0       10.194063    2.202357    0.173636
     76          1           0       -8.399026    0.569267   -0.302397
     77          1           0        8.931602    4.089640    0.924327
     78          1           0        7.546398    4.283551   -0.277869
     79          1           0        7.129622    3.936726    1.390994
     80          1           0       -8.334810   -3.323902   -0.081046
     81          1           0       -8.420350   -3.035928   -1.860024
     82          1           0       -6.919811   -3.273255   -1.264385
     83          1           0        6.989540    0.562139   -0.417354
     84          1           0       -6.259400    0.287546   -0.225997
     85          1           0        5.466707    3.133002    0.293989
     86          1           0       -4.976088   -2.328151   -1.003278
     87          1           0        4.494646    0.255402   -0.299696
     88          1           0       -4.191117    0.467352    0.099965
     89          1           0        3.148269    3.468869    1.405838
     90          1           0        1.738790    3.164673    0.294125
     91          1           0        3.278328    3.802698   -0.499472
     92          1           0       -3.363786   -3.101736   -0.480465
     93          1           0       -2.012970   -2.652305   -2.028528
     94          1           0       -1.079960   -2.640350    0.170967
     95          1           0        2.535399   -0.368792   -0.244117
     96          1           0       -2.051341    0.910026    0.086909
     97          1           0        0.194189    1.991601    0.042691
     98          1           0        0.347456   -1.125700   -0.682167
 ---------------------------------------------------------------------

 SCF Done:  E(RCAM-B3LYP) =  -1706.82023939     A.U. after   17 cycles

 Excitation energies and oscillator strengths:

 Excited State   1:      Singlet-A      1.6905 eV  733.43 nm  f=3.6124  <S**2>=0.000
     155 ->158        -0.12141
     156 ->157         0.70641
     156 <-157        -0.13723
 This state for optimization and/or second-order correction.
 Total Energy, E(TD-HF/TD-DFT) =  -1706.75811573
 Copying the excited state density for this state as the 1-particle RhoCI density.

 The electronic state is 1-A.
 Alpha  occ. eigenvalues --  -19.21538 -19.20781 -10.32392 -10.31103 -10.29356
 Alpha  occ. eigenvalues --  -10.28499 -10.28296 -10.28201 -10.28035 -10.27612
 Alpha  occ. eigenvalues --  -10.27585 -10.27581 -10.27546 -10.27441 -10.27333
 Alpha  occ. eigenvalues --  -10.27304 -10.27290 -10.27212 -10.27151 -10.26973
 Alpha  occ. eigenvalues --  -10.26971 -10.26866 -10.26563 -10.26473 -10.26232
 Alpha  occ. eigenvalues --  -10.26218 -10.26097 -10.25991 -10.25972 -10.25640
 Alpha  occ. eigenvalues --  -10.25588 -10.25517 -10.25491 -10.25359 -10.25245
 Alpha  occ. eigenvalues --  -10.24600 -10.24597 -10.24179 -10.23962 -10.23605
 Alpha  occ. eigenvalues --  -10.23290 -10.22585  -1.08476  -1.06221  -0.94457
 Alpha  occ. eigenvalues --   -0.93237  -0.92726  -0.91614  -0.90712  -0.89920
 Alpha  occ. eigenvalues --   -0.87410  -0.87167  -0.86433  -0.85760  -0.84805
 Alpha  occ. eigenvalues --   -0.83676  -0.82015  -0.80417  -0.79444  -0.77500
 Alpha  occ. eigenvalues --   -0.76986  -0.76818  -0.76472  -0.75939  -0.75769
 Alpha  occ. eigenvalues --   -0.74991  -0.74900  -0.73557  -0.72030  -0.70740
 Alpha  occ. eigenvalues --   -0.69150  -0.67677  -0.65551  -0.65449  -0.63860
 Alpha  occ. eigenvalues --   -0.63466  -0.63075  -0.61515  -0.60826  -0.59694
 Alpha  occ. eigenvalues --   -0.58890  -0.58281  -0.57766  -0.57131  -0.56760
 Alpha  occ. eigenvalues --   -0.56181  -0.55405  -0.55071  -0.54290  -0.53894
 Alpha  occ. eigenvalues --   -0.53449  -0.52742  -0.52211  -0.51352  -0.51268
 Alpha  occ. eigenvalues --   -0.50781  -0.49905  -0.49634  -0.49036  -0.48874
 Alpha  occ. eigenvalues --   -0.48732  -0.48423  -0.48253  -0.47623  -0.47503
 Alpha  occ. eigenvalues --   -0.47376  -0.47237  -0.47052  -0.46780  -0.46467
 Alpha  occ. eigenvalues --   -0.46062  -0.45653  -0.45340  -0.44812  -0.44759
 Alpha  occ. eigenvalues --   -0.44521  -0.44388  -0.43612  -0.43463  -0.43325
 Alpha  occ. eigenvalues --   -0.43020  -0.42965  -0.42081  -0.41929  -0.41727
 Alpha  occ. eigenvalues --   -0.41654  -0.41250  -0.40950  -0.40657  -0.40581
 Alpha  occ. eigenvalues --   -0.40347  -0.40135  -0.39698  -0.39654  -0.39267
 Alpha  occ. eigenvalues --   -0.38750  -0.38606  -0.38409  -0.38289  -0.38010
 Alpha  occ. eigenvalues --   -0.37011  -0.36140  -0.36066  -0.35852  -0.35769
 Alpha  occ. eigenvalues --   -0.34510  -0.34074  -0.32665  -0.32256  -0.32089
 Alpha  occ. eigenvalues --   -0.31865  -0.29887  -0.28334  -0.26213  -0.23198
 Alpha  occ. eigenvalues --   -0.17939
 Alpha virt. eigenvalues --   -0.07789  -0.01702   0.01447   0.05478   0.07655
 Alpha virt. eigenvalues --    0.08049   0.09241   0.10357   0.10695   0.11112
 Alpha virt. eigenvalues --    0.11484   0.11578   0.11804   0.12021   0.12607

 Mulliken charges:
               1
     1  O   -0.574494
     2  O   -0.602237
     3  C   -0.053712
     4  C   -0.032424
     5  C   -0.187566
     6  C   -0.144824
     7  C    0.187046
     8  C    0.184749
     9  C    0.088104
    10  C    0.098777
    11  C   -0.209195
    12  C   -0.218847
    13  C    0.013615
    14  C    0.023408
    15  C   -0.284968
    16  C   -0.274403
    17  C   -0.303332
    18  C   -0.316679
    19  C   -0.108530
    20  C   -0.184049
    21  C   -0.356136
    22  C   -0.346782
    23  C   -0.107491
    24  C   -0.081195
    25  C    0.112148
    26  C    0.136916
    27  C   -0.390105
    28  C   -0.396283
    29  C   -0.075660
    30  C   -0.146951
    31  C   -0.097446
    32  C   -0.068638
    33  C   -0.057336
    34  C   -0.129032
    35  C    0.108206
    36  C    0.122754
    37  C   -0.367631
    38  C   -0.291370
    39  C   -0.122751
    40  C   -0.104224
    41  C   -0.094234
    42  C   -0.109944
    43  H    0.080153
    44  H    0.043874
    45  H    0.086664
    46  H    0.098195
    47  H    0.077397
    48  H    0.064936
    49  H    0.129203
    50  H    0.113662
    51  H    0.112341
    52  H    0.108530
    53  H    0.103561
    54  H    0.101731
    55  H    0.106700
    56  H    0.103527
    57  H    0.084133
    58  H    0.098282
    59  H    0.115943
    60  H    0.085529
    61  H    0.107505
    62  H    0.106674
    63  H    0.095666
    64  H    0.107829
    65  H    0.085929
    66  H    0.093977
    67  H    0.118082
    68  H    0.104698
    69  H    0.114143
    70  H    0.102425
    71  H    0.122053
    72  H    0.096601
    73  H    0.309315
    74  H    0.307905
    75  H    0.086437
    76  H    0.088229
    77  H    0.109987
    78  H    0.133291
    79  H    0.087480
    80  H    0.115486
    81  H    0.125287
    82  H    0.097010
    83  H    0.079871
    84  H    0.069530
    85  H    0.091947
    86  H    0.081186
    87  H    0.046558
    88  H    0.085239
    89  H    0.115605
    90  H    0.109718
    91  H    0.087482
    92  H    0.056335
    93  H    0.083517
    94  H    0.078967
    95  H    0.063579
    96  H    0.080375
    97  H    0.106655
    98  H    0.095815
 Sum of Mulliken charges =  -0.00000

 Dipole moment (field-independent basis, Debye):
    X=              1.4052    Y=             -0.3379    Z=              1.2152  Tot=              1.8882
 Quadrupole moment (field-independent basis, Debye-Ang):
   XX=           -254.6703   YY=           -247.3572   ZZ=           -261.5988
   XY=             12.3197   XZ=             -2.7474   YZ=              1.8557

 Normal termination of Gaussian 16 at Tue Jul 16 05:51:41 2019.
