 Gaussian 16, Revision A.03,
 Gaussian 16:  ES64L-G16RevA.03 25-Dec-2016

 -------------------------------------
 # td=(NStates=1) CAM-B3LYP/6-31G(d,p)
 -------------------------------------

 --
 TD
 --
 Symbolic Z-matrix:
 Charge =  0 Multiplicity = 1

                         Standard orientation:
 ---------------------------------------------------------------------
 Center     Atomic      Atomic             Coordinates (Angstroms)
 Number     Number       Type             X           Y           Z
 ---------------------------------------------------------------------
      1          8           0       14.576718   -2.422738   -0.283404
      2          8           0      -14.750988    1.743049    1.106636
      3          6           0       10.962984   -1.637339    0.941167
      4          6           0      -12.345065   -1.228709    0.491474
      5          6           0       12.424803   -2.214965    0.986410
      6          6           0      -13.698718   -0.509160    0.509416
      7          6           0       13.179816   -2.051111   -0.367396
      8          6           0      -13.628507    1.012504    0.998115
      9          6           0       10.903231   -0.287709    0.135982
     10          6           0      -11.232955   -0.250687   -0.229863
     11          6           0       13.235552   -0.618449   -0.691715
     12          6           0      -12.820840    1.775196   -0.087902
     13          6           0       11.830340    0.030377   -0.706626
     14          6           0      -11.473787    1.055469   -0.484367
     15          6           0       10.530250   -1.412228    2.455926
     16          6           0       10.023942   -2.809737    0.407908
     17          6           0      -11.843015   -1.396064    2.012269
     18          6           0      -12.556514   -2.535813   -0.255086
     19          6           0        9.650712    0.381840    0.161842
     20          6           0      -10.021631   -0.981297   -0.506903
     21          6           0       11.735780    1.145580   -1.734872
     22          6           0      -10.648472    1.928607   -1.255280
     23          6           0        9.409243    1.710662    0.071171
     24          6           0       -8.798541   -0.503663   -0.337899
     25          6           0        8.125330    2.388275    0.149590
     26          6           0       -7.464301   -1.140588   -0.527351
     27          6           0        8.133359    3.866127    0.448688
     28          6           0       -7.522502   -2.592829   -1.083381
     29          6           0        6.913395    1.728629   -0.027733
     30          6           0       -6.375172   -0.552988   -0.386989
     31          6           0        5.673468    2.249185    0.091574
     32          6           0       -4.995600   -1.041297   -0.465199
     33          6           0        4.511451    1.521774   -0.110080
     34          6           0       -3.848764   -0.228375   -0.318061
     35          6           0        3.230851    1.876536    0.025840
     36          6           0       -2.522058   -0.609041   -0.486196
     37          6           0        2.859410    3.265635    0.588280
     38          6           0       -2.217258   -2.015350   -1.001370
     39          6           0        2.153710    1.061482   -0.308064
     40          6           0       -1.484970    0.384390   -0.363559
     41          6           0        0.764558    1.129911   -0.059264
     42          6           0       -0.047428    0.158312   -0.399536
     43          1           0       13.012254   -1.389370    1.579763
     44          1           0       12.429744   -3.081547    1.393917
     45          1           0      -14.405937   -1.045352    1.240993
     46          1           0      -14.011437   -0.427450   -0.361000
     47          1           0       12.588535   -2.591716   -1.138140
     48          1           0      -13.069572    0.998841    1.752548
     49          1           0       13.775448    0.003562   -0.138051
     50          1           0       13.684709   -0.366006   -1.654555
     51          1           0      -13.293648    2.115183   -1.127043
     52          1           0      -12.416006    2.662119    0.679743
     53          1           0       10.596189   -2.439794    2.891263
     54          1           0        9.439553   -1.199330    2.601511
     55          1           0       11.203214   -0.618635    2.895299
     56          1           0       10.521568   -2.972168   -0.528643
     57          1           0       10.051524   -3.726662    0.914864
     58          1           0        8.997148   -2.449677    0.295225
     59          1           0      -11.526173   -0.621273    2.482141
     60          1           0      -10.988540   -1.911746    1.904451
     61          1           0      -12.609979   -1.823619    2.576078
     62          1           0      -13.336730   -3.295051    0.209983
     63          1           0      -11.789512   -3.261900   -0.150220
     64          1           0      -12.705935   -2.360597   -1.349057
     65          1           0        8.767221   -0.307485    0.471304
     66          1           0      -10.101082   -2.004382   -0.691789
     67          1           0       10.769772    1.423093   -1.856728
     68          1           0       12.339452    2.088292   -1.307283
     69          1           0       12.230375    0.752541   -2.490076
     70          1           0      -11.178407    2.797342   -1.762393
     71          1           0       -9.748084    1.425043   -1.675494
     72          1           0       -9.983189    2.525350   -0.584719
     73          1           0       14.490244   -3.453413    0.048813
     74          1           0      -15.114957    1.184444    1.809635
     75          1           0       10.228894    2.405461   -0.017045
     76          1           0       -8.774955    0.519093    0.084638
     77          1           0        9.237238    4.272655    0.681010
     78          1           0        7.866597    4.414226   -0.503834
     79          1           0        7.452822    4.146794    1.392308
     80          1           0       -7.988811   -3.256250   -0.483697
     81          1           0       -8.137010   -2.703601   -1.936357
     82          1           0       -6.543976   -2.799269   -1.326591
     83          1           0        6.991172    0.572387   -0.285328
     84          1           0       -6.273725    0.494297    0.016356
     85          1           0        5.628275    2.960199    0.680466
     86          1           0       -4.818312   -2.036669   -0.811706
     87          1           0        4.681789    0.340299   -0.442541
     88          1           0       -3.921063    0.801390   -0.102471
     89          1           0        3.261229    3.433494    1.687857
     90          1           0        1.815858    3.441614    0.639446
     91          1           0        3.317068    4.134064    0.029165
     92          1           0       -2.597748   -2.835731   -0.277313
     93          1           0       -2.884651   -2.133388   -1.860764
     94          1           0       -1.132360   -2.318950   -1.334608
     95          1           0        2.323269   -0.037365   -0.502344
     96          1           0       -1.884894    1.457255   -0.092888
     97          1           0        0.370056    2.209214    0.118801
     98          1           0        0.323122   -0.990879   -0.556504
 ---------------------------------------------------------------------

 SCF Done:  E(RCAM-B3LYP) =  -1706.90096436     A.U. after   15 cycles

 Excitation energies and oscillator strengths:

 Excited State   1:      Singlet-A      2.2187 eV  558.82 nm  f=3.5235  <S**2>=0.000
     155 ->158         0.14597
     156 ->157         0.69191
 This state for optimization and/or second-order correction.
 Total Energy, E(TD-HF/TD-DFT) =  -1706.81942908
 Copying the excited state density for this state as the 1-particle RhoCI density.

 The electronic state is 1-A.
 Alpha  occ. eigenvalues --  -19.22609 -19.22182 -10.30795 -10.28509 -10.28208
 Alpha  occ. eigenvalues --  -10.28167 -10.28147 -10.28103 -10.27883 -10.27804
 Alpha  occ. eigenvalues --  -10.27222 -10.27192 -10.27149 -10.27084 -10.26916
 Alpha  occ. eigenvalues --  -10.26700 -10.26674 -10.26390 -10.26356 -10.26323
 Alpha  occ. eigenvalues --  -10.26267 -10.26258 -10.26215 -10.25898 -10.25760
 Alpha  occ. eigenvalues --  -10.25739 -10.25670 -10.25606 -10.25598 -10.25304
 Alpha  occ. eigenvalues --  -10.25156 -10.24889 -10.24862 -10.24839 -10.24811
 Alpha  occ. eigenvalues --  -10.24474 -10.23993 -10.23960 -10.23893 -10.23475
 Alpha  occ. eigenvalues --  -10.23309 -10.21978  -1.13489  -1.07569  -0.93790
 Alpha  occ. eigenvalues --   -0.92869  -0.92523  -0.91755  -0.90873  -0.89877
 Alpha  occ. eigenvalues --   -0.88073  -0.87177  -0.87068  -0.85800  -0.85246
 Alpha  occ. eigenvalues --   -0.83235  -0.81729  -0.80413  -0.79994  -0.78173
 Alpha  occ. eigenvalues --   -0.77913  -0.77143  -0.76919  -0.76403  -0.75765
 Alpha  occ. eigenvalues --   -0.75534  -0.75429  -0.75029  -0.73632  -0.70990
 Alpha  occ. eigenvalues --   -0.68924  -0.67712  -0.66648  -0.65826  -0.64732
 Alpha  occ. eigenvalues --   -0.63687  -0.63014  -0.61244  -0.60673  -0.60595
 Alpha  occ. eigenvalues --   -0.60454  -0.59661  -0.58471  -0.57508  -0.56106
 Alpha  occ. eigenvalues --   -0.55761  -0.55689  -0.55327  -0.54140  -0.53606
 Alpha  occ. eigenvalues --   -0.52761  -0.52401  -0.51887  -0.51368  -0.51211
 Alpha  occ. eigenvalues --   -0.50578  -0.49891  -0.49721  -0.49656  -0.49150
 Alpha  occ. eigenvalues --   -0.48896  -0.48828  -0.48691  -0.48272  -0.48146
 Alpha  occ. eigenvalues --   -0.47726  -0.47665  -0.47407  -0.47091  -0.46976
 Alpha  occ. eigenvalues --   -0.46769  -0.46707  -0.46583  -0.46156  -0.45878
 Alpha  occ. eigenvalues --   -0.45475  -0.44815  -0.44761  -0.44576  -0.43640
 Alpha  occ. eigenvalues --   -0.43176  -0.42914  -0.42759  -0.42499  -0.42302
 Alpha  occ. eigenvalues --   -0.41988  -0.41720  -0.41364  -0.40992  -0.40968
 Alpha  occ. eigenvalues --   -0.40741  -0.40511  -0.40321  -0.40216  -0.39582
 Alpha  occ. eigenvalues --   -0.39227  -0.38659  -0.38307  -0.37768  -0.37555
 Alpha  occ. eigenvalues --   -0.37298  -0.37184  -0.36724  -0.36344  -0.35976
 Alpha  occ. eigenvalues --   -0.35637  -0.35173  -0.34114  -0.32927  -0.32268
 Alpha  occ. eigenvalues --   -0.31438  -0.31055  -0.28364  -0.26303  -0.23665
 Alpha  occ. eigenvalues --   -0.19609
 Alpha virt. eigenvalues --   -0.06040  -0.01003   0.02978   0.05197   0.08778
 Alpha virt. eigenvalues --    0.10020   0.10748   0.11015   0.12006   0.12164
 Alpha virt. eigenvalues --    0.12497   0.13068   0.13427   0.13823   0.14079

 Mulliken charges:
               1
     1  O   -0.556036
     2  O   -0.510460
     3  C   -0.048703
     4  C   -0.014846
     5  C   -0.174247
     6  C   -0.167028
     7  C    0.166940
     8  C    0.168377
     9  C    0.107171
    10  C    0.020839
    11  C   -0.204554
    12  C   -0.232155
    13  C   -0.014925
    14  C    0.077470
    15  C   -0.287967
    16  C   -0.309302
    17  C   -0.301633
    18  C   -0.317399
    19  C   -0.115627
    20  C   -0.097199
    21  C   -0.330179
    22  C   -0.389299
    23  C   -0.113257
    24  C   -0.114922
    25  C    0.078353
    26  C    0.120344
    27  C   -0.373830
    28  C   -0.368564
    29  C   -0.107980
    30  C   -0.125771
    31  C   -0.047434
    32  C   -0.112757
    33  C   -0.126121
    34  C   -0.108729
    35  C    0.145998
    36  C    0.128296
    37  C   -0.372599
    38  C   -0.381566
    39  C   -0.145211
    40  C   -0.154337
    41  C   -0.066886
    42  C   -0.070543
    43  H    0.092967
    44  H    0.076506
    45  H    0.054561
    46  H    0.098939
    47  H    0.080627
    48  H    0.079838
    49  H    0.134761
    50  H    0.096159
    51  H    0.111627
    52  H    0.083845
    53  H    0.088544
    54  H    0.097297
    55  H    0.100744
    56  H    0.101644
    57  H    0.109740
    58  H    0.104253
    59  H    0.114621
    60  H    0.106524
    61  H    0.097113
    62  H    0.087023
    63  H    0.105988
    64  H    0.115412
    65  H    0.080205
    66  H    0.072938
    67  H    0.128550
    68  H    0.090206
    69  H    0.116797
    70  H    0.111921
    71  H    0.120326
    72  H    0.113580
    73  H    0.299230
    74  H    0.299833
    75  H    0.086153
    76  H    0.072663
    77  H    0.093001
    78  H    0.130851
    79  H    0.113845
    80  H    0.124367
    81  H    0.120743
    82  H    0.106816
    83  H    0.065902
    84  H    0.074217
    85  H    0.069187
    86  H    0.079675
    87  H    0.061326
    88  H    0.078725
    89  H    0.102370
    90  H    0.112145
    91  H    0.113964
    92  H    0.112254
    93  H    0.129409
    94  H    0.103785
    95  H    0.068052
    96  H    0.081971
    97  H    0.082262
    98  H    0.092272
 Sum of Mulliken charges =  -0.00000

 Dipole moment (field-independent basis, Debye):
    X=             -0.0220    Y=             -2.1436    Z=              1.4728  Tot=              2.6009
 Quadrupole moment (field-independent basis, Debye-Ang):
   XX=           -282.6133   YY=           -239.4785   ZZ=           -262.5282
   XY=             12.8332   XZ=             -9.3272   YZ=              2.0795

 Normal termination of Gaussian 16 at Tue Jul  9 16:06:32 2019.
