 Gaussian 16, Revision A.03,
 Gaussian 16:  ES64L-G16RevA.03 25-Dec-2016

 -------------------------------------
 # td=(NStates=1) CAM-B3LYP/6-31G(d,p)
 -------------------------------------

 --
 TD
 --
 Symbolic Z-matrix:
 Charge =  0 Multiplicity = 1

                         Standard orientation:
 ---------------------------------------------------------------------
 Center     Atomic      Atomic             Coordinates (Angstroms)
 Number     Number       Type             X           Y           Z
 ---------------------------------------------------------------------
      1          8           0       14.938607   -2.075346   -0.235522
      2          8           0      -14.883091    1.898352    0.937543
      3          6           0       11.249219   -1.481210    0.804424
      4          6           0      -12.383467   -1.066936    0.545169
      5          6           0       12.786600   -1.783723    1.013849
      6          6           0      -13.708434   -0.260350    0.517693
      7          6           0       13.516469   -1.790263   -0.254079
      8          6           0      -13.609944    1.185882    0.921565
      9          6           0       11.085045   -0.325512    0.009130
     10          6           0      -11.319607   -0.242066   -0.208776
     11          6           0       13.388520   -0.403216   -0.879395
     12          6           0      -12.902662    1.714629   -0.310930
     13          6           0       12.076682    0.233780   -0.791784
     14          6           0      -11.592397    1.059201   -0.582893
     15          6           0       10.773873   -1.177260    2.235534
     16          6           0       10.489270   -2.796209    0.246145
     17          6           0      -11.887720   -1.236200    2.001586
     18          6           0      -12.529734   -2.414162   -0.134433
     19          6           0        9.746269    0.254004    0.019062
     20          6           0      -10.120379   -0.962528   -0.369077
     21          6           0       11.841141    1.364552   -1.841114
     22          6           0      -10.673731    1.819993   -1.522384
     23          6           0        9.348773    1.604400    0.173599
     24          6           0       -8.865488   -0.485188   -0.285575
     25          6           0        7.973540    2.218209    0.207852
     26          6           0       -7.695918   -1.195561   -0.538110
     27          6           0        7.903642    3.652673    0.544242
     28          6           0       -7.641077   -2.542239   -1.010484
     29          6           0        6.810779    1.543595    0.011944
     30          6           0       -6.428071   -0.535474   -0.270901
     31          6           0        5.541984    2.104222    0.030040
     32          6           0       -5.081264   -1.047149   -0.576504
     33          6           0        4.454051    1.247522   -0.058627
     34          6           0       -4.024445   -0.395921   -0.249369
     35          6           0        3.104612    1.722648    0.184772
     36          6           0       -2.658564   -0.774951   -0.289265
     37          6           0        2.860124    3.114593    0.545882
     38          6           0       -2.385415   -2.186770   -0.765563
     39          6           0        2.137524    0.740952   -0.084239
     40          6           0       -1.590322    0.114510   -0.133176
     41          6           0        0.688422    0.849126    0.106665
     42          6           0       -0.274850   -0.209380   -0.184843
     43          1           0       13.279557   -1.077842    1.675664
     44          1           0       12.920274   -2.855333    1.441219
     45          1           0      -14.439070   -0.877974    1.240665
     46          1           0      -14.394576   -0.422054   -0.665444
     47          1           0       12.917313   -2.540557   -0.957018
     48          1           0      -12.906776    1.273717    1.692936
     49          1           0       14.286249    0.227136   -0.429013
     50          1           0       13.786579   -0.366047   -2.082175
     51          1           0      -13.645828    1.777019   -1.285193
     52          1           0      -12.523278    2.744321    0.014052
     53          1           0       10.866417   -2.108008    2.998810
     54          1           0        9.707350   -1.002910    2.372722
     55          1           0       11.156059   -0.212293    2.717612
     56          1           0       10.948249   -3.069211   -0.775765
     57          1           0       10.748649   -3.696347    0.804630
     58          1           0        9.365283   -2.589935    0.166796
     59          1           0      -11.695742   -0.244647    2.539330
     60          1           0      -10.857043   -1.640571    2.080161
     61          1           0      -12.545727   -1.849140    2.671452
     62          1           0      -13.435903   -2.956289    0.219345
     63          1           0      -11.661706   -3.192657    0.246720
     64          1           0      -12.667070   -2.260428   -1.154605
     65          1           0        8.856314   -0.269420    0.214435
     66          1           0      -10.163391   -1.989266   -0.723188
     67          1           0       10.786325    1.310486   -2.051914
     68          1           0       12.241476    2.227898   -1.541153
     69          1           0       12.264266    1.099765   -2.691281
     70          1           0      -11.270941    2.372691   -2.300601
     71          1           0      -10.041106    1.298214   -1.997829
     72          1           0      -10.106850    2.641545   -0.962493
     73          1           0       15.169888   -2.766435    0.318266
     74          1           0      -15.277964    1.491587    1.632399
     75          1           0       10.101531    2.452557    0.289780
     76          1           0       -8.658818    0.581387    0.015211
     77          1           0        8.987166    3.939361    0.774419
     78          1           0        7.666760    4.274923   -0.366318
     79          1           0        7.039869    3.967732    1.493870
     80          1           0       -8.388106   -3.123147   -0.376430
     81          1           0       -8.179920   -2.692481   -2.023004
     82          1           0       -6.695503   -3.103510   -1.163299
     83          1           0        6.946356    0.590524   -0.294005
     84          1           0       -6.632290    0.647897   -0.297791
     85          1           0        5.268319    3.061700    0.284268
     86          1           0       -4.892331   -1.980486   -1.125694
     87          1           0        4.523745    0.284952   -0.358360
     88          1           0       -4.142419    0.583928    0.055815
     89          1           0        3.119296    3.284050    1.547825
     90          1           0        1.672123    3.496532    0.476549
     91          1           0        3.455785    3.763117   -0.004671
     92          1           0       -3.202271   -3.006106   -0.254815
     93          1           0       -2.369315   -2.207560   -1.906469
     94          1           0       -1.243251   -2.541552   -0.496140
     95          1           0        2.330307   -0.250012   -0.434132
     96          1           0       -1.689612    0.894118    0.322511
     97          1           0        0.352684    1.848017    0.566463
     98          1           0        0.100193   -1.220351   -0.437096
 ---------------------------------------------------------------------

 SCF Done:  E(RCAM-B3LYP) =  -1706.92044297     A.U. after   15 cycles

 Excitation energies and oscillator strengths:

 Excited State   1:      Singlet-A      2.1324 eV  581.42 nm  f=3.7318  <S**2>=0.000
     155 ->158        -0.15983
     156 ->157         0.68764
 This state for optimization and/or second-order correction.
 Total Energy, E(TD-HF/TD-DFT) =  -1706.84207711
 Copying the excited state density for this state as the 1-particle RhoCI density.

 The electronic state is 1-A.
 Alpha  occ. eigenvalues --  -19.21659 -19.20844 -10.30928 -10.30396 -10.28287
 Alpha  occ. eigenvalues --  -10.28283 -10.28192 -10.28011 -10.27919 -10.27865
 Alpha  occ. eigenvalues --  -10.27534 -10.27507 -10.27375 -10.27217 -10.27165
 Alpha  occ. eigenvalues --  -10.27081 -10.27079 -10.26933 -10.26740 -10.26707
 Alpha  occ. eigenvalues --  -10.26693 -10.26572 -10.26532 -10.26374 -10.26205
 Alpha  occ. eigenvalues --  -10.26182 -10.26106 -10.25727 -10.25726 -10.25717
 Alpha  occ. eigenvalues --  -10.25713 -10.25693 -10.25666 -10.25646 -10.25604
 Alpha  occ. eigenvalues --  -10.25375 -10.25300 -10.24297 -10.24178 -10.24146
 Alpha  occ. eigenvalues --  -10.24043 -10.22692  -1.10874  -1.09310  -0.94570
 Alpha  occ. eigenvalues --   -0.94345  -0.92606  -0.92229  -0.91078  -0.89973
 Alpha  occ. eigenvalues --   -0.87995  -0.87043  -0.86461  -0.85861  -0.85365
 Alpha  occ. eigenvalues --   -0.83766  -0.82126  -0.80714  -0.80040  -0.78941
 Alpha  occ. eigenvalues --   -0.76880  -0.76538  -0.76297  -0.76202  -0.75654
 Alpha  occ. eigenvalues --   -0.74905  -0.74501  -0.74147  -0.73198  -0.70973
 Alpha  occ. eigenvalues --   -0.69151  -0.68026  -0.65829  -0.64942  -0.64218
 Alpha  occ. eigenvalues --   -0.63888  -0.62906  -0.62698  -0.61404  -0.59820
 Alpha  occ. eigenvalues --   -0.59602  -0.59264  -0.58789  -0.58346  -0.56698
 Alpha  occ. eigenvalues --   -0.56049  -0.55533  -0.54963  -0.54068  -0.53816
 Alpha  occ. eigenvalues --   -0.53513  -0.52871  -0.51957  -0.51421  -0.51276
 Alpha  occ. eigenvalues --   -0.50691  -0.50201  -0.50038  -0.49949  -0.49617
 Alpha  occ. eigenvalues --   -0.48697  -0.48404  -0.48065  -0.47939  -0.47478
 Alpha  occ. eigenvalues --   -0.47423  -0.46950  -0.46773  -0.46466  -0.46382
 Alpha  occ. eigenvalues --   -0.46229  -0.45957  -0.45685  -0.45207  -0.45043
 Alpha  occ. eigenvalues --   -0.44606  -0.44269  -0.43863  -0.43320  -0.43051
 Alpha  occ. eigenvalues --   -0.42928  -0.42727  -0.42502  -0.42316  -0.42091
 Alpha  occ. eigenvalues --   -0.41733  -0.41207  -0.40944  -0.40810  -0.40679
 Alpha  occ. eigenvalues --   -0.40559  -0.40528  -0.40059  -0.39881  -0.39788
 Alpha  occ. eigenvalues --   -0.39417  -0.39081  -0.38923  -0.38827  -0.38537
 Alpha  occ. eigenvalues --   -0.38178  -0.37289  -0.36986  -0.36400  -0.35771
 Alpha  occ. eigenvalues --   -0.35577  -0.34385  -0.34101  -0.33446  -0.32470
 Alpha  occ. eigenvalues --   -0.32225  -0.29617  -0.28091  -0.25456  -0.22950
 Alpha  occ. eigenvalues --   -0.19277
 Alpha virt. eigenvalues --   -0.05990  -0.01401   0.01398   0.05213   0.07297
 Alpha virt. eigenvalues --    0.08872   0.10701   0.11165   0.11517   0.11557
 Alpha virt. eigenvalues --    0.12240   0.12831   0.13022   0.13468   0.13711

 Mulliken charges:
               1
     1  O   -0.561177
     2  O   -0.534328
     3  C   -0.034877
     4  C    0.007854
     5  C   -0.184075
     6  C   -0.167882
     7  C    0.183358
     8  C    0.153950
     9  C    0.116840
    10  C    0.071050
    11  C   -0.224206
    12  C   -0.206810
    13  C    0.043342
    14  C    0.029507
    15  C   -0.302081
    16  C   -0.308965
    17  C   -0.311826
    18  C   -0.304161
    19  C   -0.146585
    20  C   -0.147713
    21  C   -0.342949
    22  C   -0.341025
    23  C   -0.106553
    24  C   -0.087456
    25  C    0.091061
    26  C    0.153414
    27  C   -0.360431
    28  C   -0.394187
    29  C   -0.094933
    30  C   -0.169876
    31  C   -0.079854
    32  C   -0.095278
    33  C   -0.082068
    34  C   -0.057718
    35  C    0.115771
    36  C    0.086472
    37  C   -0.387972
    38  C   -0.368389
    39  C   -0.131515
    40  C   -0.053648
    41  C   -0.116871
    42  C   -0.090796
    43  H    0.108159
    44  H    0.069867
    45  H    0.051454
    46  H    0.045580
    47  H    0.060234
    48  H    0.106865
    49  H    0.107894
    50  H    0.076332
    51  H    0.111098
    52  H    0.094576
    53  H    0.075523
    54  H    0.104117
    55  H    0.105933
    56  H    0.101411
    57  H    0.112605
    58  H    0.107793
    59  H    0.092757
    60  H    0.114538
    61  H    0.098663
    62  H    0.099222
    63  H    0.086355
    64  H    0.121128
    65  H    0.083771
    66  H    0.093311
    67  H    0.124063
    68  H    0.125451
    69  H    0.115261
    70  H    0.102073
    71  H    0.125962
    72  H    0.099144
    73  H    0.296365
    74  H    0.297339
    75  H    0.070396
    76  H    0.079788
    77  H    0.095878
    78  H    0.123129
    79  H    0.082622
    80  H    0.106452
    81  H    0.112918
    82  H    0.121165
    83  H    0.070074
    84  H    0.076034
    85  H    0.075196
    86  H    0.088545
    87  H    0.078352
    88  H    0.067800
    89  H    0.140643
    90  H    0.093120
    91  H    0.137805
    92  H    0.093190
    93  H    0.126199
    94  H    0.085545
    95  H    0.081923
    96  H    0.059283
    97  H    0.077135
    98  H    0.085553
 Sum of Mulliken charges =  -0.00000

 Dipole moment (field-independent basis, Debye):
    X=             -0.2907    Y=             -1.6389    Z=              1.2593  Tot=              2.0872
 Quadrupole moment (field-independent basis, Debye-Ang):
   XX=           -289.0597   YY=           -246.1595   ZZ=           -260.5857
   XY=             11.9934   XZ=              1.5835   YZ=              1.6384

 Normal termination of Gaussian 16 at Fri Jul 19 23:37:21 2019.
