 Gaussian 16, Revision A.03,
 Gaussian 16:  ES64L-G16RevA.03 25-Dec-2016

 -------------------------------------
 # td=(NStates=1) CAM-B3LYP/6-31G(d,p)
 -------------------------------------

 --
 TD
 --
 Symbolic Z-matrix:
 Charge =  0 Multiplicity = 1

                         Standard orientation:
 ---------------------------------------------------------------------
 Center     Atomic      Atomic             Coordinates (Angstroms)
 Number     Number       Type             X           Y           Z
 ---------------------------------------------------------------------
      1          8           0       14.733753   -2.301260   -0.067208
      2          8           0      -14.796150    1.746434    1.163430
      3          6           0       11.130982   -1.482258    0.996710
      4          6           0      -12.478989   -1.190683    0.626036
      5          6           0       12.638212   -1.909647    1.190507
      6          6           0      -13.594622   -0.345176    0.958948
      7          6           0       13.343671   -1.994464   -0.241651
      8          6           0      -13.521310    1.200038    1.183716
      9          6           0       10.962812   -0.283988    0.138960
     10          6           0      -11.339983   -0.241020   -0.093784
     11          6           0       13.215947   -0.570711   -0.762638
     12          6           0      -12.955377    1.755434   -0.162275
     13          6           0       11.982652    0.057851   -0.789377
     14          6           0      -11.602600    1.014110   -0.500313
     15          6           0       10.586750   -1.179285    2.400950
     16          6           0       10.391486   -2.715039    0.383896
     17          6           0      -11.809990   -1.489834    2.071629
     18          6           0      -12.737885   -2.442260   -0.142123
     19          6           0        9.710866    0.272417    0.123878
     20          6           0      -10.104450   -0.894823   -0.375135
     21          6           0       11.822979    1.278646   -1.707327
     22          6           0      -10.763446    1.769625   -1.341969
     23          6           0        9.454957    1.676968    0.307080
     24          6           0       -8.870320   -0.450343   -0.359314
     25          6           0        8.180971    2.252553    0.198050
     26          6           0       -7.546076   -1.160133   -0.712195
     27          6           0        8.092069    3.774240    0.721101
     28          6           0       -7.654011   -2.492279   -1.129655
     29          6           0        6.876677    1.485185   -0.015706
     30          6           0       -6.356020   -0.519817   -0.523883
     31          6           0        5.581517    2.229648   -0.029521
     32          6           0       -5.097902   -0.999303   -0.641574
     33          6           0        4.446496    1.354322   -0.296164
     34          6           0       -3.894804   -0.242136   -0.538468
     35          6           0        3.116709    1.823456   -0.140290
     36          6           0       -2.594298   -0.653161   -0.672430
     37          6           0        2.886138    3.130878    0.438167
     38          6           0       -2.190119   -2.171976   -1.123057
     39          6           0        2.131169    0.817670   -0.296127
     40          6           0       -1.540893    0.311193   -0.474000
     41          6           0        0.763981    0.948171   -0.119151
     42          6           0       -0.121191    0.038633   -0.657832
     43          1           0       13.394454   -1.280087    1.703242
     44          1           0       12.536546   -2.980497    1.738476
     45          1           0      -14.137799   -0.918800    1.755227
     46          1           0      -14.273501   -0.430301    0.059167
     47          1           0       12.970128   -2.959172   -0.760148
     48          1           0      -12.921263    1.265607    2.009425
     49          1           0       14.086974   -0.025476   -0.192788
     50          1           0       13.789995   -0.423919   -1.724276
     51          1           0      -13.654249    1.611601   -1.004539
     52          1           0      -12.662288    2.783271    0.119592
     53          1           0       10.667841   -1.962149    3.032202
     54          1           0        9.571210   -0.955804    2.506059
     55          1           0       11.346463   -0.439760    2.844285
     56          1           0       10.599087   -2.969237   -0.615493
     57          1           0       10.685833   -3.495293    0.934354
     58          1           0        9.238414   -2.675582    0.434048
     59          1           0      -11.836978   -0.569365    2.771113
     60          1           0      -10.887521   -1.929582    2.175272
     61          1           0      -12.671492   -1.991062    2.738437
     62          1           0      -13.599058   -2.956979    0.331712
     63          1           0      -11.915376   -3.049742    0.134958
     64          1           0      -12.773381   -2.402905   -1.259101
     65          1           0        8.855234   -0.280377    0.168526
     66          1           0      -10.215232   -2.056939   -0.515864
     67          1           0       10.679929    1.272810   -2.034748
     68          1           0       12.151725    2.225254   -1.298773
     69          1           0       12.459447    1.024884   -2.573568
     70          1           0      -11.353166    2.579223   -1.927933
     71          1           0      -10.094460    1.384332   -2.027386
     72          1           0      -10.179063    2.502451   -0.801931
     73          1           0       14.748676   -3.263238    0.139159
     74          1           0      -15.092712    1.710335    2.174049
     75          1           0       10.348045    2.526599    0.533304
     76          1           0       -8.744812    0.494596   -0.143291
     77          1           0        8.967174    4.514663    0.605720
     78          1           0        7.585711    4.213233   -0.235275
     79          1           0        7.637640    4.070683    1.751251
     80          1           0       -8.150327   -3.281483   -0.429799
     81          1           0       -8.294628   -2.601861   -2.089879
     82          1           0       -6.671545   -2.934415   -1.346624
     83          1           0        7.049188    0.450079   -0.362610
     84          1           0       -6.346753    0.544023   -0.343646
     85          1           0        5.532008    3.139421    0.234375
     86          1           0       -5.025290   -2.062397   -0.812831
     87          1           0        4.662154    0.296127   -0.541502
     88          1           0       -4.092034    0.641000   -0.073515
     89          1           0        2.862652    3.053614    1.750984
     90          1           0        1.744123    3.413835    0.382116
     91          1           0        3.775640    3.911168   -0.194754
     92          1           0       -2.677859   -2.916056   -0.572534
     93          1           0       -2.680677   -2.191697   -2.145176
     94          1           0       -1.158991   -2.049204   -1.171493
     95          1           0        2.498014    0.012878   -0.847052
     96          1           0       -1.759128    1.439286   -0.215941
     97          1           0        0.457301    1.743781    0.211278
     98          1           0        0.210634   -0.909002   -1.107643
 ---------------------------------------------------------------------

 SCF Done:  E(RCAM-B3LYP) =  -1706.84323817     A.U. after   16 cycles

 Excitation energies and oscillator strengths:

 Excited State   1:      Singlet-A      1.8082 eV  685.69 nm  f=3.5552  <S**2>=0.000
     155 ->158         0.15830
     156 ->157         0.69147
     156 <-157        -0.10288
 This state for optimization and/or second-order correction.
 Total Energy, E(TD-HF/TD-DFT) =  -1706.77678903
 Copying the excited state density for this state as the 1-particle RhoCI density.

 The electronic state is 1-A.
 Alpha  occ. eigenvalues --  -19.22789 -19.21168 -10.31466 -10.30171 -10.30095
 Alpha  occ. eigenvalues --  -10.28386 -10.28108 -10.27978 -10.27915 -10.27627
 Alpha  occ. eigenvalues --  -10.27414 -10.27254 -10.27210 -10.27181 -10.27160
 Alpha  occ. eigenvalues --  -10.27039 -10.26992 -10.26418 -10.26267 -10.26146
 Alpha  occ. eigenvalues --  -10.25902 -10.25870 -10.25830 -10.25800 -10.25786
 Alpha  occ. eigenvalues --  -10.25685 -10.25542 -10.25393 -10.25351 -10.25325
 Alpha  occ. eigenvalues --  -10.25309 -10.25244 -10.25116 -10.25044 -10.24871
 Alpha  occ. eigenvalues --  -10.24772 -10.24533 -10.24303 -10.23914 -10.23895
 Alpha  occ. eigenvalues --  -10.23704 -10.23023  -1.10126  -1.08960  -0.93852
 Alpha  occ. eigenvalues --   -0.93274  -0.92213  -0.91769  -0.89836  -0.88431
 Alpha  occ. eigenvalues --   -0.88011  -0.87324  -0.87135  -0.85356  -0.84163
 Alpha  occ. eigenvalues --   -0.82719  -0.81306  -0.80568  -0.78788  -0.77516
 Alpha  occ. eigenvalues --   -0.77096  -0.77017  -0.76548  -0.76139  -0.75059
 Alpha  occ. eigenvalues --   -0.74473  -0.74443  -0.74346  -0.72314  -0.70513
 Alpha  occ. eigenvalues --   -0.69055  -0.67949  -0.66125  -0.65050  -0.64595
 Alpha  occ. eigenvalues --   -0.64136  -0.64057  -0.61656  -0.61107  -0.60414
 Alpha  occ. eigenvalues --   -0.60045  -0.59015  -0.58865  -0.56707  -0.56358
 Alpha  occ. eigenvalues --   -0.55465  -0.55205  -0.55017  -0.54437  -0.53923
 Alpha  occ. eigenvalues --   -0.53014  -0.52570  -0.52508  -0.51323  -0.50491
 Alpha  occ. eigenvalues --   -0.50376  -0.50032  -0.49682  -0.49556  -0.49183
 Alpha  occ. eigenvalues --   -0.48718  -0.48608  -0.48060  -0.47877  -0.47587
 Alpha  occ. eigenvalues --   -0.47357  -0.47119  -0.46809  -0.46632  -0.46449
 Alpha  occ. eigenvalues --   -0.46166  -0.45844  -0.45357  -0.45290  -0.45044
 Alpha  occ. eigenvalues --   -0.44870  -0.44745  -0.44139  -0.43990  -0.43585
 Alpha  occ. eigenvalues --   -0.43133  -0.42640  -0.42594  -0.42239  -0.42057
 Alpha  occ. eigenvalues --   -0.41669  -0.41352  -0.41203  -0.40724  -0.40582
 Alpha  occ. eigenvalues --   -0.40091  -0.39843  -0.39715  -0.39396  -0.38999
 Alpha  occ. eigenvalues --   -0.38740  -0.38618  -0.38564  -0.38033  -0.37600
 Alpha  occ. eigenvalues --   -0.37400  -0.37196  -0.36754  -0.36111  -0.35885
 Alpha  occ. eigenvalues --   -0.35014  -0.34866  -0.33547  -0.32145  -0.31394
 Alpha  occ. eigenvalues --   -0.30725  -0.28871  -0.27140  -0.25626  -0.22027
 Alpha  occ. eigenvalues --   -0.18120
 Alpha virt. eigenvalues --   -0.06674  -0.02182   0.02008   0.05302   0.06737
 Alpha virt. eigenvalues --    0.09086   0.09855   0.10500   0.10964   0.11393
 Alpha virt. eigenvalues --    0.12590   0.12805   0.13141   0.13544   0.13761

 Mulliken charges:
               1
     1  O   -0.562627
     2  O   -0.534452
     3  C   -0.046673
     4  C    0.033073
     5  C   -0.190858
     6  C   -0.202558
     7  C    0.150546
     8  C    0.158903
     9  C    0.112017
    10  C    0.060135
    11  C   -0.245078
    12  C   -0.212354
    13  C    0.079443
    14  C    0.054031
    15  C   -0.292806
    16  C   -0.305202
    17  C   -0.313259
    18  C   -0.304492
    19  C   -0.146240
    20  C   -0.122783
    21  C   -0.350210
    22  C   -0.391424
    23  C   -0.091303
    24  C   -0.077564
    25  C    0.047457
    26  C    0.130746
    27  C   -0.372983
    28  C   -0.396838
    29  C   -0.127336
    30  C   -0.108452
    31  C   -0.067707
    32  C   -0.089872
    33  C   -0.106988
    34  C   -0.109850
    35  C    0.121038
    36  C    0.057858
    37  C   -0.345920
    38  C   -0.340598
    39  C   -0.123599
    40  C   -0.136412
    41  C   -0.020938
    42  C   -0.094173
    43  H    0.111034
    44  H    0.056520
    45  H    0.063799
    46  H    0.083479
    47  H    0.072959
    48  H    0.091776
    49  H    0.121581
    50  H    0.102525
    51  H    0.133116
    52  H    0.106162
    53  H    0.099750
    54  H    0.107981
    55  H    0.095763
    56  H    0.112318
    57  H    0.107652
    58  H    0.086215
    59  H    0.086973
    60  H    0.116275
    61  H    0.067686
    62  H    0.102322
    63  H    0.115087
    64  H    0.115029
    65  H    0.085342
    66  H    0.058782
    67  H    0.114497
    68  H    0.124325
    69  H    0.094610
    70  H    0.090980
    71  H    0.130909
    72  H    0.118106
    73  H    0.307742
    74  H    0.303995
    75  H    0.079617
    76  H    0.057485
    77  H    0.100103
    78  H    0.106482
    79  H    0.122276
    80  H    0.109894
    81  H    0.115531
    82  H    0.105445
    83  H    0.092768
    84  H    0.073037
    85  H    0.082812
    86  H    0.066784
    87  H    0.091577
    88  H    0.078754
    89  H    0.096834
    90  H    0.104674
    91  H    0.093005
    92  H    0.133306
    93  H    0.120604
    94  H    0.109516
    95  H    0.075392
    96  H    0.086994
    97  H    0.040739
    98  H    0.097383
 Sum of Mulliken charges =  -0.00000

 Dipole moment (field-independent basis, Debye):
    X=             -1.2716    Y=             -1.4207    Z=              1.4018  Tot=              2.3665
 Quadrupole moment (field-independent basis, Debye-Ang):
   XX=           -283.2911   YY=           -240.3008   ZZ=           -259.4472
   XY=             -8.0553   XZ=            -16.5745   YZ=              5.7327

 Normal termination of Gaussian 16 at Wed Jul 17 22:57:45 2019.
