 Gaussian 16, Revision A.03,
 Gaussian 16:  ES64L-G16RevA.03 25-Dec-2016

 -------------------------------------
 # td=(NStates=1) CAM-B3LYP/6-31G(d,p)
 -------------------------------------

 --
 TD
 --
 Symbolic Z-matrix:
 Charge =  0 Multiplicity = 1

                         Standard orientation:
 ---------------------------------------------------------------------
 Center     Atomic      Atomic             Coordinates (Angstroms)
 Number     Number       Type             X           Y           Z
 ---------------------------------------------------------------------
      1          8           0       14.716269   -2.020207   -0.294795
      2          8           0      -14.883797    1.957013    0.820376
      3          6           0       11.279801   -1.380209    0.995495
      4          6           0      -12.242568   -0.870842    0.728629
      5          6           0       12.733558   -1.778027    0.919415
      6          6           0      -13.690582   -0.206180    0.581843
      7          6           0       13.401604   -1.717138   -0.360255
      8          6           0      -13.530322    1.399992    0.789432
      9          6           0       11.013148   -0.195180    0.078000
     10          6           0      -11.240574   -0.199319   -0.204668
     11          6           0       13.309705   -0.327515   -1.002853
     12          6           0      -12.743977    1.856960   -0.429616
     13          6           0       11.892883    0.155231   -0.888949
     14          6           0      -11.589233    0.983231   -0.711608
     15          6           0       10.739451   -0.975103    2.388982
     16          6           0       10.435190   -2.664190    0.486922
     17          6           0      -11.707361   -0.889862    2.155483
     18          6           0      -12.482260   -2.364807    0.286603
     19          6           0        9.562165    0.293582    0.144851
     20          6           0      -10.082189   -0.960048   -0.386061
     21          6           0       11.727843    1.274244   -1.893852
     22          6           0      -10.583663    1.755785   -1.668709
     23          6           0        9.300218    1.615065    0.159683
     24          6           0       -8.810879   -0.477655   -0.358482
     25          6           0        7.934516    2.223516    0.237930
     26          6           0       -7.574214   -1.245373   -0.505238
     27          6           0        8.006950    3.767749    0.620225
     28          6           0       -7.738447   -2.727010   -0.870831
     29          6           0        6.820386    1.530866   -0.139160
     30          6           0       -6.379751   -0.640474   -0.479063
     31          6           0        5.473772    2.080268    0.187657
     32          6           0       -5.055786   -1.279488   -0.644488
     33          6           0        4.417522    1.217076   -0.040524
     34          6           0       -3.873814   -0.500015   -0.437081
     35          6           0        3.097582    1.604474    0.126700
     36          6           0       -2.618385   -0.990365   -0.573313
     37          6           0        2.796016    2.978583    0.637640
     38          6           0       -2.229233   -2.351028   -0.956275
     39          6           0        2.114048    0.622595   -0.125570
     40          6           0       -1.522401   -0.102824   -0.136133
     41          6           0        0.705762    0.826136   -0.075846
     42          6           0       -0.175327   -0.214639   -0.181237
     43          1           0       13.043173   -1.142609    1.814380
     44          1           0       12.743445   -2.781158    1.383756
     45          1           0      -14.429955   -0.652571    1.319710
     46          1           0      -14.155515   -0.272307   -0.324028
     47          1           0       12.705962   -2.299956   -0.974345
     48          1           0      -13.027732    1.633937    1.718053
     49          1           0       13.893050    0.382633   -0.560413
     50          1           0       13.623862   -0.240347   -2.088298
     51          1           0      -13.587864    1.983128   -1.079096
     52          1           0      -12.426427    2.728338   -0.284478
     53          1           0       10.996039   -1.702364    3.207241
     54          1           0        9.566873   -0.881270    2.325676
     55          1           0       11.174325    0.018265    2.673129
     56          1           0       10.665739   -3.196593   -0.442196
     57          1           0       10.526504   -3.466939    1.151337
     58          1           0        9.401612   -2.480236    0.463706
     59          1           0      -11.418681    0.071831    2.610748
     60          1           0      -10.901966   -1.423957    2.266675
     61          1           0      -12.570504   -1.440159    2.477517
     62          1           0      -13.326772   -2.641724    1.083580
     63          1           0      -11.479187   -2.942431    0.726597
     64          1           0      -12.784416   -2.506730   -0.697109
     65          1           0        8.774403   -0.683178    0.120931
     66          1           0      -10.069797   -2.061532   -0.248616
     67          1           0       10.503149    1.604518   -1.958938
     68          1           0       12.274682    2.198167   -1.352448
     69          1           0       11.957482    0.905222   -2.894188
     70          1           0      -11.254697    2.390125   -2.209851
     71          1           0       -9.921478    1.145365   -2.243502
     72          1           0       -9.819071    2.432451   -1.216606
     73          1           0       14.812714   -2.830269    0.188725
     74          1           0      -15.439966    1.478026    1.556394
     75          1           0       10.290992    2.185908    0.062565
     76          1           0       -8.561521    0.596530   -0.335710
     77          1           0        9.087880    4.152202    0.556296
     78          1           0        7.425743    4.244125   -0.120959
     79          1           0        7.496792    4.099260    1.561377
     80          1           0       -8.402903   -3.038724    0.008060
     81          1           0       -8.390134   -2.711372   -1.926803
     82          1           0       -7.047358   -3.546203   -0.822591
     83          1           0        6.953092    0.471143   -0.292788
     84          1           0       -6.321242    0.533327   -0.395575
     85          1           0        5.302489    2.966139    0.415182
     86          1           0       -5.083675   -2.284489   -0.817865
     87          1           0        4.589151    0.223949   -0.168973
     88          1           0       -3.999683    0.479177    0.040575
     89          1           0        3.850648    3.521304    1.312674
     90          1           0        1.806472    2.725201    1.544342
     91          1           0        2.496019    3.610106   -0.527665
     92          1           0       -2.276066   -3.299676   -0.030274
     93          1           0       -2.878757   -2.902377   -1.634248
     94          1           0       -1.141625   -2.588716   -1.280708
     95          1           0        2.494651   -0.319027   -0.658500
     96          1           0       -1.941721    0.906411    0.121658
     97          1           0        0.053640    1.743029    0.577309
     98          1           0        0.141442   -1.355712   -0.640146
 ---------------------------------------------------------------------

 SCF Done:  E(RCAM-B3LYP) =  -1706.81269576     A.U. after   15 cycles

 Excitation energies and oscillator strengths:

 Excited State   1:      Singlet-A      2.0530 eV  603.90 nm  f=3.4800  <S**2>=0.000
     155 ->158        -0.12571
     156 ->157         0.70008
     156 <-157        -0.10931
 This state for optimization and/or second-order correction.
 Total Energy, E(TD-HF/TD-DFT) =  -1706.73724779
 Copying the excited state density for this state as the 1-particle RhoCI density.

 The electronic state is 1-A.
 Alpha  occ. eigenvalues --  -19.21692 -19.21067 -10.32435 -10.30201 -10.29993
 Alpha  occ. eigenvalues --  -10.28595 -10.28148 -10.27954 -10.27897 -10.27733
 Alpha  occ. eigenvalues --  -10.27718 -10.27406 -10.27374 -10.27298 -10.27235
 Alpha  occ. eigenvalues --  -10.27234 -10.27161 -10.27088 -10.26698 -10.26671
 Alpha  occ. eigenvalues --  -10.26652 -10.26617 -10.26557 -10.26516 -10.26454
 Alpha  occ. eigenvalues --  -10.26225 -10.26189 -10.26129 -10.26070 -10.26046
 Alpha  occ. eigenvalues --  -10.25725 -10.25449 -10.25443 -10.25064 -10.24948
 Alpha  occ. eigenvalues --  -10.24845 -10.24723 -10.24415 -10.24082 -10.23841
 Alpha  occ. eigenvalues --  -10.23495 -10.23187  -1.12675  -1.06322  -0.93790
 Alpha  occ. eigenvalues --   -0.93767  -0.92385  -0.91687  -0.90307  -0.89387
 Alpha  occ. eigenvalues --   -0.87543  -0.87390  -0.87067  -0.85379  -0.84841
 Alpha  occ. eigenvalues --   -0.82684  -0.81316  -0.79761  -0.79071  -0.77461
 Alpha  occ. eigenvalues --   -0.77115  -0.76705  -0.76131  -0.75747  -0.75673
 Alpha  occ. eigenvalues --   -0.75255  -0.74926  -0.74463  -0.73196  -0.71450
 Alpha  occ. eigenvalues --   -0.68654  -0.67769  -0.66316  -0.64978  -0.64499
 Alpha  occ. eigenvalues --   -0.63569  -0.63045  -0.61364  -0.60545  -0.60349
 Alpha  occ. eigenvalues --   -0.59208  -0.58784  -0.58693  -0.57262  -0.56189
 Alpha  occ. eigenvalues --   -0.55744  -0.55482  -0.54511  -0.54350  -0.53583
 Alpha  occ. eigenvalues --   -0.53082  -0.52656  -0.52324  -0.51686  -0.51556
 Alpha  occ. eigenvalues --   -0.50411  -0.50025  -0.49873  -0.49365  -0.49108
 Alpha  occ. eigenvalues --   -0.48887  -0.48527  -0.47956  -0.47356  -0.47146
 Alpha  occ. eigenvalues --   -0.46874  -0.46737  -0.46407  -0.46261  -0.46020
 Alpha  occ. eigenvalues --   -0.45361  -0.45239  -0.44920  -0.44701  -0.44620
 Alpha  occ. eigenvalues --   -0.44528  -0.44091  -0.43877  -0.43468  -0.43387
 Alpha  occ. eigenvalues --   -0.42983  -0.42522  -0.42431  -0.42248  -0.42214
 Alpha  occ. eigenvalues --   -0.41962  -0.41467  -0.41334  -0.41292  -0.40982
 Alpha  occ. eigenvalues --   -0.40487  -0.40134  -0.40126  -0.39650  -0.39324
 Alpha  occ. eigenvalues --   -0.39101  -0.38655  -0.38160  -0.38075  -0.37873
 Alpha  occ. eigenvalues --   -0.37492  -0.37255  -0.35859  -0.35666  -0.35478
 Alpha  occ. eigenvalues --   -0.34942  -0.34029  -0.33626  -0.32781  -0.31877
 Alpha  occ. eigenvalues --   -0.30706  -0.30100  -0.28082  -0.26289  -0.24016
 Alpha  occ. eigenvalues --   -0.18968
 Alpha virt. eigenvalues --   -0.06593  -0.00445   0.02358   0.05403   0.07651
 Alpha virt. eigenvalues --    0.08027   0.08916   0.09783   0.11029   0.11228
 Alpha virt. eigenvalues --    0.11406   0.11595   0.11782   0.12410   0.12893

 Mulliken charges:
               1
     1  O   -0.539211
     2  O   -0.590164
     3  C   -0.023231
     4  C   -0.081952
     5  C   -0.206618
     6  C   -0.193249
     7  C    0.211420
     8  C    0.145153
     9  C    0.052172
    10  C    0.144068
    11  C   -0.200917
    12  C   -0.208049
    13  C    0.022644
    14  C    0.009629
    15  C   -0.305818
    16  C   -0.325164
    17  C   -0.270787
    18  C   -0.280655
    19  C   -0.086401
    20  C   -0.151179
    21  C   -0.353330
    22  C   -0.373920
    23  C   -0.134114
    24  C   -0.087815
    25  C    0.077661
    26  C    0.104455
    27  C   -0.375475
    28  C   -0.359832
    29  C   -0.123046
    30  C   -0.139986
    31  C   -0.050185
    32  C   -0.088068
    33  C   -0.086910
    34  C   -0.130348
    35  C    0.129693
    36  C    0.168827
    37  C   -0.312025
    38  C   -0.374161
    39  C   -0.142361
    40  C   -0.138613
    41  C   -0.106659
    42  C   -0.038625
    43  H    0.084823
    44  H    0.077560
    45  H    0.061453
    46  H    0.115655
    47  H    0.074445
    48  H    0.085888
    49  H    0.126941
    50  H    0.096776
    51  H    0.131977
    52  H    0.121871
    53  H    0.092894
    54  H    0.104897
    55  H    0.109105
    56  H    0.103621
    57  H    0.102892
    58  H    0.094506
    59  H    0.103518
    60  H    0.113547
    61  H    0.096214
    62  H    0.077131
    63  H    0.075252
    64  H    0.123715
    65  H    0.084552
    66  H    0.085162
    67  H    0.086134
    68  H    0.108413
    69  H    0.120398
    70  H    0.104211
    71  H    0.120649
    72  H    0.103337
    73  H    0.299661
    74  H    0.310636
    75  H    0.099790
    76  H    0.082986
    77  H    0.110788
    78  H    0.133146
    79  H    0.117638
    80  H    0.106338
    81  H    0.109512
    82  H    0.118509
    83  H    0.085261
    84  H    0.070098
    85  H    0.054197
    86  H    0.083219
    87  H    0.076614
    88  H    0.096546
    89  H    0.080767
    90  H    0.089931
    91  H    0.101944
    92  H    0.066535
    93  H    0.123115
    94  H    0.114831
    95  H    0.093205
    96  H    0.068007
    97  H    0.076983
    98  H    0.055351
 Sum of Mulliken charges =  -0.00000

 Dipole moment (field-independent basis, Debye):
    X=              1.3955    Y=             -2.0607    Z=              1.6591  Tot=              2.9911
 Quadrupole moment (field-independent basis, Debye-Ang):
   XX=           -277.7953   YY=           -245.6039   ZZ=           -263.7560
   XY=              8.0987   XZ=             -3.9881   YZ=              2.1810

 Normal termination of Gaussian 16 at Tue Jul  9 06:43:21 2019.
