 Gaussian 16, Revision A.03,
 Gaussian 16:  ES64L-G16RevA.03 25-Dec-2016

 -------------------------------------
 # td=(NStates=1) CAM-B3LYP/6-31G(d,p)
 -------------------------------------

 --
 TD
 --
 Symbolic Z-matrix:
 Charge =  0 Multiplicity = 1

                         Standard orientation:
 ---------------------------------------------------------------------
 Center     Atomic      Atomic             Coordinates (Angstroms)
 Number     Number       Type             X           Y           Z
 ---------------------------------------------------------------------
      1          8           0       14.725395   -2.161349   -0.031650
      2          8           0      -14.582054    1.978699    1.082554
      3          6           0       11.177062   -1.337576    0.937051
      4          6           0      -12.367197   -0.994242    0.535782
      5          6           0       12.656005   -1.768494    1.118092
      6          6           0      -13.698424   -0.152808    0.521543
      7          6           0       13.389546   -1.823499   -0.347367
      8          6           0      -13.399233    1.270151    0.952853
      9          6           0       10.879981   -0.306369   -0.072391
     10          6           0      -11.306157   -0.172183   -0.270250
     11          6           0       13.266059   -0.469551   -1.058852
     12          6           0      -12.643276    1.947924   -0.186132
     13          6           0       11.907449    0.186375   -0.867398
     14          6           0      -11.499144    1.093438   -0.631307
     15          6           0       10.714159   -0.941882    2.295688
     16          6           0       10.456410   -2.590315    0.585809
     17          6           0      -11.958090   -1.304123    1.884611
     18          6           0      -12.642527   -2.224344   -0.245530
     19          6           0        9.573977    0.361996    0.041803
     20          6           0      -10.033420   -0.978051   -0.605051
     21          6           0       11.696032    1.302857   -1.819079
     22          6           0      -10.471883    2.028913   -1.380498
     23          6           0        9.316730    1.686848    0.057139
     24          6           0       -8.749860   -0.470743   -0.342587
     25          6           0        7.977299    2.222645    0.112518
     26          6           0       -7.585639   -1.288928   -0.482927
     27          6           0        7.851166    3.771815    0.309060
     28          6           0       -7.649448   -2.664263   -1.074569
     29          6           0        6.836969    1.497232   -0.005610
     30          6           0       -6.326235   -0.781730   -0.145603
     31          6           0        5.561772    1.962438    0.155897
     32          6           0       -5.154561   -1.305501   -0.295996
     33          6           0        4.396829    1.282164   -0.140912
     34          6           0       -3.946876   -0.638933   -0.104374
     35          6           0        3.088349    1.662645    0.060112
     36          6           0       -2.637528   -0.979741   -0.307967
     37          6           0        2.851284    3.041196    0.452769
     38          6           0       -2.138328   -2.385693   -0.955090
     39          6           0        2.073984    0.658155   -0.195708
     40          6           0       -1.655769   -0.043341   -0.118299
     41          6           0        0.695049    0.785742    0.172730
     42          6           0       -0.231920   -0.187771   -0.208242
     43          1           0       13.476900   -1.069891    1.730091
     44          1           0       12.783177   -2.868142    1.578183
     45          1           0      -14.543755   -0.746427    1.203885
     46          1           0      -14.102331   -0.359587   -0.386411
     47          1           0       13.005400   -2.735528   -0.955152
     48          1           0      -12.708781    1.308693    1.923690
     49          1           0       14.258243    0.238250   -0.726825
     50          1           0       13.271960   -0.859440   -2.141954
     51          1           0      -13.334052    2.161116   -1.029708
     52          1           0      -12.318033    2.954682   -0.255958
     53          1           0       10.970327   -1.551303    3.047824
     54          1           0        9.587785   -0.893212    2.591189
     55          1           0       11.223086   -0.087158    2.589555
     56          1           0       10.631594   -2.937647   -0.531002
     57          1           0       10.461020   -3.294975    1.321561
     58          1           0        9.469723   -2.278633    0.713327
     59          1           0      -11.694446   -0.502381    2.452362
     60          1           0      -11.154661   -1.876474    1.931575
     61          1           0      -12.470854   -1.916536    2.569408
     62          1           0      -13.624287   -2.714649    0.208109
     63          1           0      -11.926274   -2.903061   -0.142132
     64          1           0      -12.772354   -2.086200   -1.270123
     65          1           0        8.615895   -0.178178    0.254426
     66          1           0      -10.167161   -1.903241   -1.006760
     67          1           0       10.602875    1.357200   -2.124022
     68          1           0       12.154122    2.300149   -1.502532
     69          1           0       12.359509    1.093411   -2.608619
     70          1           0      -10.993156    2.484077   -2.367486
     71          1           0       -9.537132    1.541395   -1.819978
     72          1           0      -10.195242    2.901287   -0.649377
     73          1           0       14.852553   -3.010685    0.206826
     74          1           0      -14.974827    1.732019    1.965198
     75          1           0       10.201906    2.420434    0.303623
     76          1           0       -8.705242    0.476804    0.247247
     77          1           0        8.990399    4.260453    0.588237
     78          1           0        7.521709    4.359434   -0.671399
     79          1           0        7.341997    4.288565    1.201837
     80          1           0       -8.028491   -3.378793   -0.402256
     81          1           0       -8.518386   -2.760245   -1.978938
     82          1           0       -6.800424   -2.980136   -1.689150
     83          1           0        6.993018    0.476717   -0.365186
     84          1           0       -6.503472    0.313165    0.160517
     85          1           0        5.267388    3.096563    0.469620
     86          1           0       -5.160598   -2.254390   -0.765964
     87          1           0        4.545602    0.265957   -0.460105
     88          1           0       -3.972082    0.325814    0.230388
     89          1           0        3.064793    3.257033    1.555768
     90          1           0        1.848824    3.245146    0.189175
     91          1           0        3.419647    3.802374   -0.077790
     92          1           0       -2.698053   -3.345358   -0.667651
     93          1           0       -2.385044   -2.249485   -2.151241
     94          1           0       -1.059046   -2.510247   -0.714835
     95          1           0        2.540726   -0.196693   -0.743861
     96          1           0       -1.986318    0.863070    0.430493
     97          1           0        0.192249    1.731641    0.632011
     98          1           0       -0.088231   -1.060256   -0.487258
 ---------------------------------------------------------------------

 SCF Done:  E(RCAM-B3LYP) =  -1706.91338551     A.U. after   15 cycles

 Excitation energies and oscillator strengths:

 Excited State   1:      Singlet-A      1.9290 eV  642.73 nm  f=3.9161  <S**2>=0.000
     155 ->158         0.14425
     156 ->157         0.69498
     156 <-157        -0.10320
 This state for optimization and/or second-order correction.
 Total Energy, E(TD-HF/TD-DFT) =  -1706.84249469
 Copying the excited state density for this state as the 1-particle RhoCI density.

 The electronic state is 1-A.
 Alpha  occ. eigenvalues --  -19.21259 -19.19701 -10.31445 -10.31412 -10.28219
 Alpha  occ. eigenvalues --  -10.28212 -10.28144 -10.28039 -10.27704 -10.27610
 Alpha  occ. eigenvalues --  -10.27544 -10.27332 -10.27182 -10.27147 -10.27144
 Alpha  occ. eigenvalues --  -10.26845 -10.26680 -10.26638 -10.26615 -10.26523
 Alpha  occ. eigenvalues --  -10.26363 -10.26341 -10.26302 -10.26236 -10.26234
 Alpha  occ. eigenvalues --  -10.26198 -10.26042 -10.25915 -10.25495 -10.25376
 Alpha  occ. eigenvalues --  -10.25307 -10.25179 -10.25159 -10.25148 -10.25109
 Alpha  occ. eigenvalues --  -10.24830 -10.24550 -10.24437 -10.23313 -10.23252
 Alpha  occ. eigenvalues --  -10.22708 -10.21299  -1.10305  -1.10117  -0.94142
 Alpha  occ. eigenvalues --   -0.93707  -0.92702  -0.92224  -0.90892  -0.90163
 Alpha  occ. eigenvalues --   -0.87868  -0.87628  -0.87259  -0.85506  -0.84473
 Alpha  occ. eigenvalues --   -0.82392  -0.81686  -0.79628  -0.79408  -0.78731
 Alpha  occ. eigenvalues --   -0.78105  -0.77086  -0.76406  -0.76115  -0.75939
 Alpha  occ. eigenvalues --   -0.75423  -0.74473  -0.73832  -0.73196  -0.71231
 Alpha  occ. eigenvalues --   -0.68965  -0.67573  -0.66552  -0.65026  -0.64407
 Alpha  occ. eigenvalues --   -0.64309  -0.63130  -0.62823  -0.60617  -0.59608
 Alpha  occ. eigenvalues --   -0.59320  -0.59180  -0.58064  -0.57691  -0.56350
 Alpha  occ. eigenvalues --   -0.55612  -0.55432  -0.54915  -0.54181  -0.53829
 Alpha  occ. eigenvalues --   -0.53113  -0.52786  -0.52310  -0.52117  -0.51025
 Alpha  occ. eigenvalues --   -0.50747  -0.50581  -0.50311  -0.49975  -0.49640
 Alpha  occ. eigenvalues --   -0.49144  -0.48795  -0.48579  -0.48343  -0.48083
 Alpha  occ. eigenvalues --   -0.47689  -0.47140  -0.46574  -0.46533  -0.46407
 Alpha  occ. eigenvalues --   -0.46030  -0.45250  -0.44809  -0.44410  -0.44318
 Alpha  occ. eigenvalues --   -0.43936  -0.43605  -0.43485  -0.43277  -0.43039
 Alpha  occ. eigenvalues --   -0.42727  -0.42373  -0.42180  -0.41628  -0.41543
 Alpha  occ. eigenvalues --   -0.41419  -0.41210  -0.41044  -0.40715  -0.40709
 Alpha  occ. eigenvalues --   -0.40335  -0.39941  -0.39646  -0.39482  -0.39395
 Alpha  occ. eigenvalues --   -0.39172  -0.38994  -0.38911  -0.38680  -0.38031
 Alpha  occ. eigenvalues --   -0.37856  -0.37561  -0.37329  -0.36102  -0.36029
 Alpha  occ. eigenvalues --   -0.35828  -0.34831  -0.34002  -0.32380  -0.31672
 Alpha  occ. eigenvalues --   -0.30085  -0.29711  -0.28348  -0.26646  -0.22940
 Alpha  occ. eigenvalues --   -0.18602
 Alpha virt. eigenvalues --   -0.06828  -0.01816   0.02397   0.05888   0.07801
 Alpha virt. eigenvalues --    0.09503   0.11311   0.11829   0.12045   0.12278
 Alpha virt. eigenvalues --    0.12589   0.13307   0.13498   0.13661   0.13753

 Mulliken charges:
               1
     1  O   -0.549541
     2  O   -0.554858
     3  C   -0.024735
     4  C   -0.017624
     5  C   -0.175095
     6  C   -0.163564
     7  C    0.155312
     8  C    0.175047
     9  C    0.097710
    10  C    0.017215
    11  C   -0.217625
    12  C   -0.217904
    13  C    0.038194
    14  C    0.073055
    15  C   -0.306870
    16  C   -0.283205
    17  C   -0.295287
    18  C   -0.310001
    19  C   -0.137368
    20  C   -0.124833
    21  C   -0.356982
    22  C   -0.363120
    23  C   -0.091531
    24  C   -0.108174
    25  C    0.096610
    26  C    0.108148
    27  C   -0.363561
    28  C   -0.383966
    29  C   -0.118499
    30  C   -0.088529
    31  C   -0.081395
    32  C   -0.080894
    33  C   -0.116353
    34  C   -0.114460
    35  C    0.129163
    36  C    0.117515
    37  C   -0.390996
    38  C   -0.362155
    39  C   -0.128892
    40  C   -0.154499
    41  C   -0.112868
    42  C   -0.001339
    43  H    0.080318
    44  H    0.064150
    45  H    0.047712
    46  H    0.111593
    47  H    0.071471
    48  H    0.070893
    49  H    0.112189
    50  H    0.117590
    51  H    0.115309
    52  H    0.109115
    53  H    0.108684
    54  H    0.080830
    55  H    0.110463
    56  H    0.087038
    57  H    0.102422
    58  H    0.098445
    59  H    0.102382
    60  H    0.105829
    61  H    0.098895
    62  H    0.076343
    63  H    0.106166
    64  H    0.111978
    65  H    0.092786
    66  H    0.088380
    67  H    0.124493
    68  H    0.106424
    69  H    0.103599
    70  H    0.088777
    71  H    0.116889
    72  H    0.107931
    73  H    0.294296
    74  H    0.305857
    75  H    0.095702
    76  H    0.100341
    77  H    0.064022
    78  H    0.114190
    79  H    0.119925
    80  H    0.137814
    81  H    0.076651
    82  H    0.124340
    83  H    0.088701
    84  H    0.066765
    85  H    0.072810
    86  H    0.074731
    87  H    0.064104
    88  H    0.071977
    89  H    0.119722
    90  H    0.114108
    91  H    0.127705
    92  H    0.112224
    93  H    0.105903
    94  H    0.120481
    95  H    0.097567
    96  H    0.069960
    97  H    0.097182
    98  H    0.032582
 Sum of Mulliken charges =  -0.00000

 Dipole moment (field-independent basis, Debye):
    X=             -0.5174    Y=             -1.8476    Z=              0.9734  Tot=              2.1514
 Quadrupole moment (field-independent basis, Debye-Ang):
   XX=           -279.3576   YY=           -242.7964   ZZ=           -257.8897
   XY=              3.8434   XZ=            -12.7807   YZ=              4.4474

 Normal termination of Gaussian 16 at Fri Jul 19 03:20:26 2019.
