 Gaussian 16, Revision A.03,
 Gaussian 16:  ES64L-G16RevA.03 25-Dec-2016

 -------------------------------------
 # td=(NStates=1) CAM-B3LYP/6-31G(d,p)
 -------------------------------------

 --
 TD
 --
 Symbolic Z-matrix:
 Charge =  0 Multiplicity = 1

                         Standard orientation:
 ---------------------------------------------------------------------
 Center     Atomic      Atomic             Coordinates (Angstroms)
 Number     Number       Type             X           Y           Z
 ---------------------------------------------------------------------
      1          8           0       14.748471   -2.156933   -0.213894
      2          8           0      -14.577320    2.073663    0.918407
      3          6           0       11.161358   -1.427170    1.027388
      4          6           0      -12.210127   -1.005258    0.869629
      5          6           0       12.615990   -1.835224    1.107902
      6          6           0      -13.593378   -0.172731    0.798754
      7          6           0       13.326669   -1.856849   -0.274723
      8          6           0      -13.389431    1.432272    0.919158
      9          6           0       10.867247   -0.346906   -0.019871
     10          6           0      -11.221347   -0.254009   -0.193116
     11          6           0       13.190876   -0.542160   -0.876196
     12          6           0      -12.519925    1.835868   -0.313219
     13          6           0       11.857069    0.107020   -0.882361
     14          6           0      -11.379304    0.916018   -0.696093
     15          6           0       10.828239   -0.889612    2.400746
     16          6           0       10.387873   -2.606861    0.720349
     17          6           0      -11.711472   -1.090618    2.243171
     18          6           0      -12.596767   -2.440113    0.412683
     19          6           0        9.558261    0.316007    0.085206
     20          6           0      -10.033392   -1.006763   -0.471397
     21          6           0       11.708806    1.151889   -1.977002
     22          6           0      -10.504767    1.721386   -1.667694
     23          6           0        9.228532    1.620303    0.090107
     24          6           0       -8.780108   -0.577928   -0.394511
     25          6           0        8.009805    2.304706    0.320682
     26          6           0       -7.596442   -1.411029   -0.692798
     27          6           0        7.894423    3.760423    0.637536
     28          6           0       -7.774840   -2.780498   -1.248663
     29          6           0        6.843784    1.591197   -0.028839
     30          6           0       -6.400178   -0.742820   -0.458476
     31          6           0        5.582282    2.106407    0.068500
     32          6           0       -5.109476   -1.230645   -0.702262
     33          6           0        4.420781    1.334427   -0.290538
     34          6           0       -4.072230   -0.468032   -0.348284
     35          6           0        3.093750    1.657487   -0.017965
     36          6           0       -2.654688   -0.826125   -0.454255
     37          6           0        2.640413    3.112740    0.417314
     38          6           0       -2.364272   -2.141326   -0.998342
     39          6           0        2.041820    0.714189   -0.377533
     40          6           0       -1.573828    0.038656    0.022690
     41          6           0        0.662075    0.870239   -0.017360
     42          6           0       -0.199915   -0.128196   -0.295162
     43          1           0       13.079604   -1.012969    1.664948
     44          1           0       12.648405   -2.782465    1.652418
     45          1           0      -14.186888   -0.294834    1.466038
     46          1           0      -14.142708   -0.335541   -0.311332
     47          1           0       12.911417   -2.585303   -0.955525
     48          1           0      -13.036601    1.765246    1.909740
     49          1           0       14.153722    0.129826   -0.552702
     50          1           0       13.477577   -0.569900   -1.999518
     51          1           0      -13.466593    1.890247   -1.093012
     52          1           0      -12.133091    2.789690   -0.277557
     53          1           0       11.158348   -1.568875    3.110028
     54          1           0        9.753767   -0.685609    2.710668
     55          1           0       11.216330    0.220713    2.685217
     56          1           0       10.542301   -3.040438   -0.180128
     57          1           0       10.226132   -3.575453    1.473348
     58          1           0        9.330776   -2.275358    0.526266
     59          1           0      -11.708445   -0.081534    2.788661
     60          1           0      -10.510731   -1.285133    2.103769
     61          1           0      -12.331286   -1.721655    2.775348
     62          1           0      -13.318078   -2.780219    1.155727
     63          1           0      -11.661962   -3.050787    0.444620
     64          1           0      -12.817228   -2.373215   -0.625122
     65          1           0        8.697374   -0.311855    0.385191
     66          1           0      -10.308747   -2.077183   -0.885227
     67          1           0       10.634993    1.428046   -2.130306
     68          1           0       12.300734    1.959070   -1.738225
     69          1           0       12.131475    0.742641   -2.830579
     70          1           0      -11.323113    2.169334   -2.298964
     71          1           0       -9.669067    1.088406   -1.939217
     72          1           0       -9.855281    2.603686   -1.488841
     73          1           0       14.937103   -2.998975    0.158113
     74          1           0      -15.276193    1.594965    1.440293
     75          1           0       10.012433    2.383126    0.052093
     76          1           0       -8.500519    0.481411    0.153902
     77          1           0        8.978121    4.147876    0.969676
     78          1           0        7.548021    4.469797   -0.147896
     79          1           0        7.197347    3.956948    1.504028
     80          1           0       -8.349181   -3.540516   -0.504592
     81          1           0       -8.523108   -2.608809   -1.948926
     82          1           0       -6.863298   -3.272020   -1.593627
     83          1           0        7.010923    0.452368   -0.178661
     84          1           0       -6.477788    0.324235    0.029806
     85          1           0        5.510755    3.111189    0.535523
     86          1           0       -4.697420   -2.154789   -0.930559
     87          1           0        4.677375    0.417406   -0.675036
     88          1           0       -4.037445    0.556683   -0.079371
     89          1           0        2.602981    3.044682    1.833906
     90          1           0        1.795984    3.532703   -0.170071
     91          1           0        3.610722    3.823643    0.109331
     92          1           0       -3.594326   -3.008026   -0.939794
     93          1           0       -1.912260   -2.005345   -2.429986
     94          1           0       -1.261902   -2.531124   -0.179187
     95          1           0        2.485424   -0.235388   -0.796171
     96          1           0       -1.842778    0.896401    0.367919
     97          1           0        0.125988    1.718665    0.359555
     98          1           0        0.275711   -1.131680   -0.793007
 ---------------------------------------------------------------------

 SCF Done:  E(RCAM-B3LYP) =  -1706.75150860     A.U. after   15 cycles

 Excitation energies and oscillator strengths:

 Excited State   1:      Singlet-A      1.9695 eV  629.51 nm  f=3.3642  <S**2>=0.000
     155 ->158         0.13781
     156 ->157         0.69681
     156 <-157        -0.10131
 This state for optimization and/or second-order correction.
 Total Energy, E(TD-HF/TD-DFT) =  -1706.67912970
 Copying the excited state density for this state as the 1-particle RhoCI density.

 The electronic state is 1-A.
 Alpha  occ. eigenvalues --  -19.20798 -19.20329 -10.33614 -10.30342 -10.30160
 Alpha  occ. eigenvalues --  -10.29976 -10.28373 -10.28131 -10.27946 -10.27717
 Alpha  occ. eigenvalues --  -10.27695 -10.27452 -10.27400 -10.27235 -10.27223
 Alpha  occ. eigenvalues --  -10.27114 -10.27004 -10.26908 -10.26671 -10.26579
 Alpha  occ. eigenvalues --  -10.26471 -10.26461 -10.26334 -10.26189 -10.26105
 Alpha  occ. eigenvalues --  -10.26097 -10.26006 -10.25967 -10.25918 -10.25855
 Alpha  occ. eigenvalues --  -10.25764 -10.25518 -10.25246 -10.25109 -10.24992
 Alpha  occ. eigenvalues --  -10.24967 -10.24839 -10.24757 -10.24732 -10.24724
 Alpha  occ. eigenvalues --  -10.24652 -10.23999  -1.10887  -1.08363  -0.94517
 Alpha  occ. eigenvalues --   -0.93241  -0.92355  -0.91773  -0.90818  -0.89561
 Alpha  occ. eigenvalues --   -0.88206  -0.87956  -0.87473  -0.85544  -0.84551
 Alpha  occ. eigenvalues --   -0.83085  -0.82007  -0.80501  -0.79514  -0.77548
 Alpha  occ. eigenvalues --   -0.77104  -0.76645  -0.76598  -0.76070  -0.75307
 Alpha  occ. eigenvalues --   -0.74982  -0.74840  -0.74631  -0.72273  -0.70740
 Alpha  occ. eigenvalues --   -0.69391  -0.67641  -0.66378  -0.64973  -0.64254
 Alpha  occ. eigenvalues --   -0.63824  -0.63260  -0.62421  -0.60384  -0.60132
 Alpha  occ. eigenvalues --   -0.58707  -0.58169  -0.57061  -0.56719  -0.56193
 Alpha  occ. eigenvalues --   -0.55982  -0.55588  -0.55109  -0.54378  -0.53757
 Alpha  occ. eigenvalues --   -0.53204  -0.52758  -0.52462  -0.51537  -0.51282
 Alpha  occ. eigenvalues --   -0.50896  -0.50641  -0.50001  -0.49745  -0.49139
 Alpha  occ. eigenvalues --   -0.48909  -0.48375  -0.48252  -0.48002  -0.47830
 Alpha  occ. eigenvalues --   -0.47192  -0.46802  -0.46702  -0.46310  -0.46171
 Alpha  occ. eigenvalues --   -0.45834  -0.45538  -0.45020  -0.44870  -0.44785
 Alpha  occ. eigenvalues --   -0.44569  -0.44551  -0.44073  -0.43556  -0.43186
 Alpha  occ. eigenvalues --   -0.42999  -0.42770  -0.42617  -0.42206  -0.41943
 Alpha  occ. eigenvalues --   -0.41589  -0.41503  -0.40430  -0.40354  -0.39899
 Alpha  occ. eigenvalues --   -0.39612  -0.39324  -0.39244  -0.39211  -0.38937
 Alpha  occ. eigenvalues --   -0.38820  -0.38640  -0.38479  -0.38168  -0.37513
 Alpha  occ. eigenvalues --   -0.37061  -0.36934  -0.36812  -0.35950  -0.35792
 Alpha  occ. eigenvalues --   -0.35232  -0.34398  -0.33217  -0.32078  -0.31732
 Alpha  occ. eigenvalues --   -0.30679  -0.29881  -0.28444  -0.26507  -0.23488
 Alpha  occ. eigenvalues --   -0.18965
 Alpha virt. eigenvalues --   -0.06730  -0.01423   0.02512   0.04762   0.05316
 Alpha virt. eigenvalues --    0.07710   0.08252   0.10098   0.10449   0.10837
 Alpha virt. eigenvalues --    0.11917   0.12064   0.12343   0.12479   0.12970

 Mulliken charges:
               1
     1  O   -0.574880
     2  O   -0.555580
     3  C    0.006377
     4  C   -0.004430
     5  C   -0.200594
     6  C   -0.157845
     7  C    0.184612
     8  C    0.172472
     9  C    0.047617
    10  C    0.029103
    11  C   -0.235381
    12  C   -0.227640
    13  C    0.050713
    14  C    0.079160
    15  C   -0.302381
    16  C   -0.296852
    17  C   -0.285420
    18  C   -0.297625
    19  C   -0.130427
    20  C   -0.165749
    21  C   -0.355898
    22  C   -0.366286
    23  C   -0.086917
    24  C   -0.092745
    25  C    0.078417
    26  C    0.123794
    27  C   -0.381936
    28  C   -0.365333
    29  C   -0.094464
    30  C   -0.147851
    31  C   -0.093244
    32  C   -0.019409
    33  C   -0.110630
    34  C   -0.082733
    35  C    0.098423
    36  C    0.100707
    37  C   -0.324512
    38  C   -0.287807
    39  C   -0.146689
    40  C   -0.121884
    41  C   -0.068329
    42  C   -0.056063
    43  H    0.107968
    44  H    0.087690
    45  H    0.052711
    46  H    0.067958
    47  H    0.086327
    48  H    0.067091
    49  H    0.107516
    50  H    0.091805
    51  H    0.091915
    52  H    0.114098
    53  H    0.107448
    54  H    0.096292
    55  H    0.087430
    56  H    0.117179
    57  H    0.074359
    58  H    0.091104
    59  H    0.094505
    60  H    0.095269
    61  H    0.107339
    62  H    0.105077
    63  H    0.093989
    64  H    0.113410
    65  H    0.081524
    66  H    0.081299
    67  H    0.118171
    68  H    0.127793
    69  H    0.115776
    70  H    0.114268
    71  H    0.114368
    72  H    0.113482
    73  H    0.300600
    74  H    0.308659
    75  H    0.073535
    76  H    0.088193
    77  H    0.092252
    78  H    0.132842
    79  H    0.125277
    80  H    0.102982
    81  H    0.137364
    82  H    0.118868
    83  H    0.078948
    84  H    0.083664
    85  H    0.083515
    86  H    0.038407
    87  H    0.080792
    88  H    0.072677
    89  H    0.070551
    90  H    0.133958
    91  H    0.090860
    92  H    0.059116
    93  H    0.054418
    94  H    0.074656
    95  H    0.088768
    96  H    0.066049
    97  H    0.097220
    98  H    0.086803
 Sum of Mulliken charges =  -0.00000

 Dipole moment (field-independent basis, Debye):
    X=             -0.7501    Y=             -1.1216    Z=              1.2651  Tot=              1.8496
 Quadrupole moment (field-independent basis, Debye-Ang):
   XX=           -269.2409   YY=           -247.3546   ZZ=           -263.1776
   XY=             10.0548   XZ=             -9.2709   YZ=              1.3014

 Normal termination of Gaussian 16 at Wed Jul 17 13:49:17 2019.
