 Gaussian 16, Revision A.03,
 Gaussian 16:  ES64L-G16RevA.03 25-Dec-2016

 -------------------------------------
 # td=(NStates=1) CAM-B3LYP/6-31G(d,p)
 -------------------------------------

 --
 TD
 --
 Symbolic Z-matrix:
 Charge =  0 Multiplicity = 1

                         Standard orientation:
 ---------------------------------------------------------------------
 Center     Atomic      Atomic             Coordinates (Angstroms)
 Number     Number       Type             X           Y           Z
 ---------------------------------------------------------------------
      1          8           0       14.815489   -2.106731   -0.204584
      2          8           0      -14.804434    1.973445    0.886695
      3          6           0       11.269943   -1.442745    0.850218
      4          6           0      -12.337546   -0.960194    0.532738
      5          6           0       12.683886   -1.780951    0.979600
      6          6           0      -13.705946   -0.198723    0.533579
      7          6           0       13.428977   -1.829951   -0.368350
      8          6           0      -13.455447    1.273601    0.821477
      9          6           0       11.005820   -0.250733   -0.047767
     10          6           0      -11.318315   -0.227866   -0.316699
     11          6           0       13.394916   -0.382223   -0.880825
     12          6           0      -12.650353    1.871756   -0.218312
     13          6           0       12.062402    0.282558   -0.814978
     14          6           0      -11.437063    1.060971   -0.712066
     15          6           0       10.667983   -1.134400    2.299715
     16          6           0       10.371788   -2.726917    0.268995
     17          6           0      -11.894638   -1.144678    2.039917
     18          6           0      -12.677233   -2.379482   -0.029044
     19          6           0        9.651192    0.279404   -0.053418
     20          6           0      -10.087392   -0.912691   -0.606081
     21          6           0       11.825602    1.434773   -1.758258
     22          6           0      -10.549879    1.782263   -1.534481
     23          6           0        9.340750    1.678309    0.054276
     24          6           0       -8.772955   -0.536210   -0.423170
     25          6           0        8.007789    2.129339    0.234824
     26          6           0       -7.627376   -1.336410   -0.536136
     27          6           0        7.830996    3.607469    0.523122
     28          6           0       -7.730782   -2.808215   -0.926345
     29          6           0        6.860198    1.355513   -0.098199
     30          6           0       -6.422146   -0.675704   -0.343560
     31          6           0        5.575001    1.901348    0.040207
     32          6           0       -5.055393   -1.168906   -0.388783
     33          6           0        4.405790    1.239082   -0.175571
     34          6           0       -4.002438   -0.428181   -0.209346
     35          6           0        3.067897    1.713615    0.107296
     36          6           0       -2.687182   -0.839374   -0.247705
     37          6           0        2.912010    3.078496    0.767857
     38          6           0       -2.287685   -2.210970   -0.650377
     39          6           0        2.071742    0.775827    0.014969
     40          6           0       -1.627585    0.160543   -0.092082
     41          6           0        0.650828    0.969557   -0.002779
     42          6           0       -0.193647   -0.063178   -0.105542
     43          1           0       13.251269   -1.323087    1.627297
     44          1           0       12.722059   -2.993106    1.308909
     45          1           0      -14.383561   -0.496572    1.419036
     46          1           0      -14.320874   -0.052032   -0.408328
     47          1           0       12.958989   -2.553225   -1.068184
     48          1           0      -12.913032    1.393553    1.775737
     49          1           0       14.093810    0.206505   -0.252021
     50          1           0       13.640548   -0.311190   -1.956021
     51          1           0      -13.330389    1.839944   -1.174774
     52          1           0      -12.274550    2.901116    0.138953
     53          1           0       10.902701   -1.847771    3.059980
     54          1           0        9.622984   -0.987012    2.243957
     55          1           0       11.121061   -0.179135    2.625302
     56          1           0       10.988340   -3.210285   -0.598530
     57          1           0       10.354095   -3.496664    1.181763
     58          1           0        9.281990   -2.424088    0.052966
     59          1           0      -11.929886   -0.168605    2.670758
     60          1           0      -10.657945   -1.536456    1.954383
     61          1           0      -12.621455   -2.206197    2.335338
     62          1           0      -13.634470   -2.827371    0.247208
     63          1           0      -11.850849   -2.939913   -0.071288
     64          1           0      -12.595124   -2.446040   -1.116342
     65          1           0        8.712011   -0.347352   -0.148104
     66          1           0      -10.091512   -1.925975   -0.678548
     67          1           0       10.838668    1.749353   -1.878536
     68          1           0       12.526180    2.372137   -1.346375
     69          1           0       12.118067    1.281412   -2.676971
     70          1           0      -11.232706    2.180849   -2.112558
     71          1           0       -9.871969    1.420880   -2.097662
     72          1           0       -9.901216    2.490313   -0.995592
     73          1           0       14.966155   -3.027295    0.016941
     74          1           0      -15.528717    1.091674    1.314935
     75          1           0       10.113827    2.383793    0.286914
     76          1           0       -8.708577    0.493226    0.003622
     77          1           0        8.798069    4.117849    0.705601
     78          1           0        7.221301    4.306558   -0.168492
     79          1           0        7.251009    3.528152    1.534664
     80          1           0       -8.299326   -3.288417   -0.178157
     81          1           0       -8.193130   -2.780232   -1.872445
     82          1           0       -6.883864   -3.347620   -0.975878
     83          1           0        6.970477    0.374808   -0.336706
     84          1           0       -6.531960    0.304356   -0.089225
     85          1           0        5.309753    2.841421    0.320268
     86          1           0       -4.829780   -2.213930   -0.610789
     87          1           0        4.611745    0.353728   -0.524762
     88          1           0       -4.023736    0.591899    0.289494
     89          1           0        3.046100    2.933558    1.841784
     90          1           0        1.827796    3.449420    0.663782
     91          1           0        3.369276    4.096191    0.242016
     92          1           0       -2.640035   -2.713179    0.042909
     93          1           0       -2.637073   -2.431111   -1.702881
     94          1           0       -1.203347   -2.291232   -0.574919
     95          1           0        2.456754   -0.252409   -0.184524
     96          1           0       -1.901896    1.231701   -0.346754
     97          1           0        0.365396    1.904223    0.261936
     98          1           0        0.075054   -1.089184   -0.651468
 ---------------------------------------------------------------------

 SCF Done:  E(RCAM-B3LYP) =  -1706.87297432     A.U. after   15 cycles

 Excitation energies and oscillator strengths:

 Excited State   1:      Singlet-A      2.2166 eV  559.35 nm  f=3.5832  <S**2>=0.000
     155 ->158        -0.19112
     156 ->157         0.67615
 This state for optimization and/or second-order correction.
 Total Energy, E(TD-HF/TD-DFT) =  -1706.79151603
 Copying the excited state density for this state as the 1-particle RhoCI density.

 The electronic state is 1-A.
 Alpha  occ. eigenvalues --  -19.22107 -19.21337 -10.30978 -10.29552 -10.29366
 Alpha  occ. eigenvalues --  -10.28511 -10.27952 -10.27792 -10.27613 -10.27556
 Alpha  occ. eigenvalues --  -10.27502 -10.27365 -10.27201 -10.27194 -10.27000
 Alpha  occ. eigenvalues --  -10.26952 -10.26833 -10.26578 -10.26387 -10.26346
 Alpha  occ. eigenvalues --  -10.26271 -10.26195 -10.26132 -10.25930 -10.25883
 Alpha  occ. eigenvalues --  -10.25717 -10.25549 -10.25499 -10.25496 -10.25402
 Alpha  occ. eigenvalues --  -10.25126 -10.25105 -10.25082 -10.24624 -10.24393
 Alpha  occ. eigenvalues --  -10.24238 -10.24197 -10.23974 -10.23876 -10.23830
 Alpha  occ. eigenvalues --  -10.23815 -10.21984  -1.09641  -1.03327  -0.94065
 Alpha  occ. eigenvalues --   -0.93432  -0.92462  -0.91753  -0.90681  -0.89985
 Alpha  occ. eigenvalues --   -0.88144  -0.87667  -0.86500  -0.85583  -0.84835
 Alpha  occ. eigenvalues --   -0.83717  -0.82618  -0.81415  -0.79489  -0.78496
 Alpha  occ. eigenvalues --   -0.78017  -0.76986  -0.76779  -0.76390  -0.75857
 Alpha  occ. eigenvalues --   -0.75517  -0.74338  -0.74072  -0.73466  -0.70855
 Alpha  occ. eigenvalues --   -0.69642  -0.67379  -0.65686  -0.64711  -0.64322
 Alpha  occ. eigenvalues --   -0.63810  -0.63201  -0.61727  -0.61482  -0.60644
 Alpha  occ. eigenvalues --   -0.59928  -0.59250  -0.58288  -0.57602  -0.56035
 Alpha  occ. eigenvalues --   -0.55551  -0.55183  -0.54947  -0.54505  -0.53545
 Alpha  occ. eigenvalues --   -0.53390  -0.53295  -0.52447  -0.51642  -0.51477
 Alpha  occ. eigenvalues --   -0.50675  -0.50562  -0.50392  -0.49963  -0.49627
 Alpha  occ. eigenvalues --   -0.49385  -0.49250  -0.48641  -0.48482  -0.48177
 Alpha  occ. eigenvalues --   -0.48093  -0.47679  -0.47235  -0.46549  -0.46387
 Alpha  occ. eigenvalues --   -0.46273  -0.46037  -0.45398  -0.45063  -0.44686
 Alpha  occ. eigenvalues --   -0.44420  -0.44285  -0.43884  -0.43846  -0.43365
 Alpha  occ. eigenvalues --   -0.43172  -0.42724  -0.42580  -0.42428  -0.42302
 Alpha  occ. eigenvalues --   -0.41444  -0.41202  -0.41048  -0.40732  -0.40290
 Alpha  occ. eigenvalues --   -0.40212  -0.40059  -0.39896  -0.39716  -0.39538
 Alpha  occ. eigenvalues --   -0.39068  -0.38946  -0.38709  -0.38509  -0.38264
 Alpha  occ. eigenvalues --   -0.37745  -0.37624  -0.37446  -0.36947  -0.36035
 Alpha  occ. eigenvalues --   -0.35703  -0.35036  -0.34019  -0.32221  -0.31822
 Alpha  occ. eigenvalues --   -0.31418  -0.29728  -0.27661  -0.25669  -0.22384
 Alpha  occ. eigenvalues --   -0.19323
 Alpha virt. eigenvalues --   -0.05300  -0.01835   0.02188   0.05565   0.07074
 Alpha virt. eigenvalues --    0.07459   0.09201   0.10528   0.10851   0.11036
 Alpha virt. eigenvalues --    0.12717   0.13037   0.13219   0.13607   0.13619

 Mulliken charges:
               1
     1  O   -0.559705
     2  O   -0.568515
     3  C   -0.004595
     4  C   -0.004698
     5  C   -0.165240
     6  C   -0.202427
     7  C    0.158038
     8  C    0.167897
     9  C    0.075681
    10  C    0.079927
    11  C   -0.211938
    12  C   -0.213306
    13  C    0.037949
    14  C    0.029741
    15  C   -0.310546
    16  C   -0.302104
    17  C   -0.262215
    18  C   -0.321618
    19  C   -0.131102
    20  C   -0.152568
    21  C   -0.343207
    22  C   -0.328420
    23  C   -0.111594
    24  C   -0.098516
    25  C    0.072807
    26  C    0.091997
    27  C   -0.363496
    28  C   -0.362716
    29  C   -0.098216
    30  C   -0.119505
    31  C   -0.056867
    32  C   -0.109579
    33  C   -0.103034
    34  C   -0.063379
    35  C    0.099643
    36  C    0.048429
    37  C   -0.385022
    38  C   -0.342197
    39  C   -0.127144
    40  C   -0.154300
    41  C   -0.060972
    42  C   -0.090268
    43  H    0.111993
    44  H    0.039618
    45  H    0.069296
    46  H    0.108747
    47  H    0.081049
    48  H    0.081529
    49  H    0.126176
    50  H    0.106736
    51  H    0.107999
    52  H    0.108272
    53  H    0.102961
    54  H    0.110140
    55  H    0.099219
    56  H    0.094237
    57  H    0.087940
    58  H    0.103456
    59  H    0.109602
    60  H    0.076684
    61  H    0.074859
    62  H    0.113484
    63  H    0.108175
    64  H    0.098040
    65  H    0.091415
    66  H    0.054138
    67  H    0.128347
    68  H    0.075954
    69  H    0.117715
    70  H    0.116320
    71  H    0.122389
    72  H    0.109022
    73  H    0.303051
    74  H    0.280752
    75  H    0.094393
    76  H    0.079001
    77  H    0.102462
    78  H    0.120204
    79  H    0.115524
    80  H    0.125146
    81  H    0.131036
    82  H    0.115787
    83  H    0.072174
    84  H    0.071195
    85  H    0.064913
    86  H    0.080341
    87  H    0.048560
    88  H    0.079377
    89  H    0.147821
    90  H    0.101674
    91  H    0.103157
    92  H    0.132743
    93  H    0.122344
    94  H    0.097473
    95  H    0.079660
    96  H    0.091090
    97  H    0.081600
    98  H    0.089913
 Sum of Mulliken charges =  -0.00000

 Dipole moment (field-independent basis, Debye):
    X=              1.6720    Y=             -2.5076    Z=             -0.0397  Tot=              3.0141
 Quadrupole moment (field-independent basis, Debye-Ang):
   XX=           -284.8404   YY=           -244.7093   ZZ=           -262.6900
   XY=             17.5098   XZ=              3.3409   YZ=              2.2111

 Normal termination of Gaussian 16 at Fri Jul 19 10:01:17 2019.
