 Gaussian 16, Revision A.03,
 Gaussian 16:  ES64L-G16RevA.03 25-Dec-2016

 -------------------------------------
 # td=(NStates=1) CAM-B3LYP/6-31G(d,p)
 -------------------------------------

 --
 TD
 --
 Symbolic Z-matrix:
 Charge =  0 Multiplicity = 1

                         Standard orientation:
 ---------------------------------------------------------------------
 Center     Atomic      Atomic             Coordinates (Angstroms)
 Number     Number       Type             X           Y           Z
 ---------------------------------------------------------------------
      1          8           0       14.666801   -2.298192   -0.012357
      2          8           0      -14.836456    1.746799    1.109483
      3          6           0       11.148394   -1.529139    0.928845
      4          6           0      -12.421439   -1.072567    0.560988
      5          6           0       12.662778   -1.816972    1.145834
      6          6           0      -13.704380   -0.371923    0.583119
      7          6           0       13.314528   -1.902543   -0.219421
      8          6           0      -13.545680    1.139558    1.044950
      9          6           0       10.916381   -0.321146    0.006032
     10          6           0      -11.287530   -0.234148   -0.005290
     11          6           0       13.263797   -0.547682   -0.887112
     12          6           0      -12.703855    1.821413    0.024993
     13          6           0       11.953792    0.131196   -0.779623
     14          6           0      -11.515783    1.075979   -0.376167
     15          6           0       10.693479   -1.239557    2.325461
     16          6           0       10.371845   -2.730214    0.357761
     17          6           0      -11.919075   -1.532990    1.988106
     18          6           0      -12.660147   -2.345080   -0.353289
     19          6           0        9.688631    0.416667    0.071335
     20          6           0      -10.081868   -0.851389   -0.487002
     21          6           0       11.819163    1.324566   -1.831169
     22          6           0      -10.574297    1.839004   -1.277465
     23          6           0        9.357825    1.674137    0.138431
     24          6           0       -8.816323   -0.430014   -0.356970
     25          6           0        8.048392    2.333103    0.150025
     26          6           0       -7.579495   -1.128300   -0.556624
     27          6           0        7.991211    3.687365    0.601292
     28          6           0       -7.606621   -2.435277   -1.056725
     29          6           0        6.922049    1.562382   -0.096224
     30          6           0       -6.386278   -0.529006   -0.416297
     31          6           0        5.631643    1.996396    0.094215
     32          6           0       -5.089015   -1.015365   -0.590503
     33          6           0        4.499028    1.168807   -0.086814
     34          6           0       -3.877274   -0.284583   -0.397066
     35          6           0        3.247986    1.641993    0.191263
     36          6           0       -2.598007   -0.711947   -0.588803
     37          6           0        2.864450    3.128767    0.474280
     38          6           0       -2.370352   -2.100795   -0.924605
     39          6           0        2.160168    0.713737   -0.096359
     40          6           0       -1.547013    0.240781   -0.354414
     41          6           0        0.755060    1.030308   -0.165998
     42          6           0       -0.170775    0.013250   -0.489836
     43          1           0       13.196030   -1.064381    1.608929
     44          1           0       12.677526   -2.850679    1.680192
     45          1           0      -14.629524   -0.775835    1.161283
     46          1           0      -14.039808   -0.446350   -0.494245
     47          1           0       12.706222   -2.673216   -0.918181
     48          1           0      -13.172051    0.982681    1.990881
     49          1           0       14.159870   -0.005215   -0.402563
     50          1           0       13.457749   -0.673024   -1.900030
     51          1           0      -13.280553    2.033275   -0.721539
     52          1           0      -12.214153    2.856412    0.474794
     53          1           0       10.790750   -2.005223    3.096592
     54          1           0        9.701757   -0.967364    2.533049
     55          1           0       11.043989   -0.363459    2.757358
     56          1           0       10.921058   -2.892153   -0.650520
     57          1           0       10.477714   -3.744183    1.138333
     58          1           0        9.340026   -2.508665    0.054358
     59          1           0      -11.697600   -0.557724    2.461603
     60          1           0      -11.133901   -2.361681    1.955706
     61          1           0      -12.698605   -2.264493    2.416668
     62          1           0      -13.381279   -3.038849    0.006201
     63          1           0      -11.678952   -3.031158   -0.408122
     64          1           0      -12.989678   -2.100987   -1.279863
     65          1           0        8.858355   -0.176217    0.503463
     66          1           0      -10.161886   -2.012206   -0.567867
     67          1           0       10.780728    1.723130   -2.047523
     68          1           0       12.182301    2.268084   -1.426052
     69          1           0       12.382003    0.970197   -2.684026
     70          1           0      -11.155619    2.604035   -1.815116
     71          1           0      -10.177980    1.048237   -2.145594
     72          1           0       -9.736740    2.433823   -0.638318
     73          1           0       14.515682   -3.302300    0.108492
     74          1           0      -15.339699    1.190139    1.654065
     75          1           0       10.220662    2.443721    0.142297
     76          1           0       -8.682453    0.623046   -0.101694
     77          1           0        8.931373    4.265487    0.654353
     78          1           0        7.485794    4.333700   -0.167464
     79          1           0        7.270930    3.630341    1.461014
     80          1           0       -7.886102   -3.184979   -0.352915
     81          1           0       -8.310776   -2.446454   -1.861696
     82          1           0       -6.537683   -2.702038   -1.608787
     83          1           0        6.962650    0.603032   -0.461524
     84          1           0       -6.311769    0.497955    0.001788
     85          1           0        5.552573    3.110297    0.289650
     86          1           0       -5.048032   -1.981529   -1.042425
     87          1           0        4.520534    0.124485   -0.306159
     88          1           0       -3.938963    0.973406   -0.317505
     89          1           0        3.807284    3.618640    1.255477
     90          1           0        1.748089    2.965779    1.195102
     91          1           0        2.791756    3.887498   -0.509464
     92          1           0       -2.623522   -2.856848    0.024187
     93          1           0       -3.063608   -2.469638   -1.748177
     94          1           0       -1.398842   -2.406610   -1.363205
     95          1           0        2.403086   -0.103882   -0.307747
     96          1           0       -1.791900    1.297534    0.041101
     97          1           0        0.393698    2.020366   -0.119209
     98          1           0        0.026382   -0.979450   -0.835348
 ---------------------------------------------------------------------

 SCF Done:  E(RCAM-B3LYP) =  -1706.90442454     A.U. after   17 cycles

 Excitation energies and oscillator strengths:

 Excited State   1:      Singlet-A      1.7667 eV  701.77 nm  f=3.7314  <S**2>=0.000
     155 ->158         0.13065
     156 ->157         0.70198
     156 <-157        -0.12378
 This state for optimization and/or second-order correction.
 Total Energy, E(TD-HF/TD-DFT) =  -1706.83949839
 Copying the excited state density for this state as the 1-particle RhoCI density.

 The electronic state is 1-A.
 Alpha  occ. eigenvalues --  -19.21849 -19.20779 -10.31253 -10.30735 -10.29866
 Alpha  occ. eigenvalues --  -10.27783 -10.27631 -10.27500 -10.27465 -10.27442
 Alpha  occ. eigenvalues --  -10.27323 -10.27289 -10.27221 -10.27150 -10.27108
 Alpha  occ. eigenvalues --  -10.27069 -10.27015 -10.26519 -10.26463 -10.26303
 Alpha  occ. eigenvalues --  -10.26294 -10.26231 -10.26096 -10.26060 -10.25960
 Alpha  occ. eigenvalues --  -10.25816 -10.25767 -10.25758 -10.25658 -10.25600
 Alpha  occ. eigenvalues --  -10.25580 -10.25263 -10.25237 -10.25228 -10.25073
 Alpha  occ. eigenvalues --  -10.25055 -10.24910 -10.24858 -10.24791 -10.24651
 Alpha  occ. eigenvalues --  -10.24428 -10.22479  -1.10191  -1.09164  -0.94379
 Alpha  occ. eigenvalues --   -0.93972  -0.92601  -0.92360  -0.91488  -0.90478
 Alpha  occ. eigenvalues --   -0.87505  -0.87382  -0.86960  -0.86110  -0.85581
 Alpha  occ. eigenvalues --   -0.83238  -0.81998  -0.80461  -0.79572  -0.78206
 Alpha  occ. eigenvalues --   -0.77164  -0.76506  -0.76058  -0.75917  -0.75577
 Alpha  occ. eigenvalues --   -0.75481  -0.75187  -0.74650  -0.72973  -0.70884
 Alpha  occ. eigenvalues --   -0.69072  -0.67998  -0.65907  -0.64830  -0.64362
 Alpha  occ. eigenvalues --   -0.63748  -0.63268  -0.62029  -0.60600  -0.59769
 Alpha  occ. eigenvalues --   -0.59551  -0.59404  -0.58962  -0.58106  -0.56370
 Alpha  occ. eigenvalues --   -0.55766  -0.55594  -0.54890  -0.54505  -0.53876
 Alpha  occ. eigenvalues --   -0.53678  -0.52990  -0.51750  -0.51335  -0.51165
 Alpha  occ. eigenvalues --   -0.50797  -0.50517  -0.50224  -0.50089  -0.49578
 Alpha  occ. eigenvalues --   -0.49416  -0.49178  -0.48921  -0.48483  -0.47897
 Alpha  occ. eigenvalues --   -0.47700  -0.47293  -0.46547  -0.46290  -0.46138
 Alpha  occ. eigenvalues --   -0.46021  -0.45353  -0.45051  -0.44609  -0.44387
 Alpha  occ. eigenvalues --   -0.44280  -0.44183  -0.43968  -0.43661  -0.43482
 Alpha  occ. eigenvalues --   -0.43200  -0.42459  -0.42382  -0.42080  -0.41946
 Alpha  occ. eigenvalues --   -0.41722  -0.41635  -0.41426  -0.41067  -0.40921
 Alpha  occ. eigenvalues --   -0.40727  -0.40632  -0.39976  -0.39513  -0.39322
 Alpha  occ. eigenvalues --   -0.38986  -0.38444  -0.38324  -0.38274  -0.38144
 Alpha  occ. eigenvalues --   -0.37612  -0.37452  -0.37075  -0.36688  -0.36218
 Alpha  occ. eigenvalues --   -0.35680  -0.35306  -0.34804  -0.32665  -0.31215
 Alpha  occ. eigenvalues --   -0.31177  -0.30189  -0.27911  -0.26038  -0.22903
 Alpha  occ. eigenvalues --   -0.18037
 Alpha virt. eigenvalues --   -0.07303  -0.01476   0.02235   0.05045   0.07493
 Alpha virt. eigenvalues --    0.09615   0.10601   0.10667   0.11220   0.11660
 Alpha virt. eigenvalues --    0.11902   0.12413   0.13104   0.13153   0.13481

 Mulliken charges:
               1
     1  O   -0.555935
     2  O   -0.556549
     3  C   -0.018209
     4  C   -0.019668
     5  C   -0.137689
     6  C   -0.207487
     7  C    0.125096
     8  C    0.164917
     9  C    0.061267
    10  C    0.093615
    11  C   -0.223498
    12  C   -0.189221
    13  C    0.034567
    14  C    0.044980
    15  C   -0.315173
    16  C   -0.279473
    17  C   -0.292469
    18  C   -0.311177
    19  C   -0.104785
    20  C   -0.159846
    21  C   -0.359339
    22  C   -0.351457
    23  C   -0.109459
    24  C   -0.064380
    25  C    0.102509
    26  C    0.147828
    27  C   -0.397329
    28  C   -0.390123
    29  C   -0.089385
    30  C   -0.118132
    31  C   -0.111746
    32  C   -0.102186
    33  C   -0.109488
    34  C   -0.124724
    35  C    0.107985
    36  C    0.151373
    37  C   -0.323239
    38  C   -0.384088
    39  C   -0.053683
    40  C   -0.129735
    41  C   -0.108397
    42  C   -0.066757
    43  H    0.115928
    44  H    0.073773
    45  H    0.068289
    46  H    0.093967
    47  H    0.057145
    48  H    0.090661
    49  H    0.119053
    50  H    0.117760
    51  H    0.132527
    52  H    0.082728
    53  H    0.095115
    54  H    0.094921
    55  H    0.107703
    56  H    0.088584
    57  H    0.068198
    58  H    0.117038
    59  H    0.110592
    60  H    0.102024
    61  H    0.084658
    62  H    0.104712
    63  H    0.077369
    64  H    0.117336
    65  H    0.078586
    66  H    0.058930
    67  H    0.117189
    68  H    0.120666
    69  H    0.106571
    70  H    0.105253
    71  H    0.110294
    72  H    0.104592
    73  H    0.312388
    74  H    0.299021
    75  H    0.059371
    76  H    0.074008
    77  H    0.117945
    78  H    0.119727
    79  H    0.134780
    80  H    0.126722
    81  H    0.123916
    82  H    0.082671
    83  H    0.077980
    84  H    0.067491
    85  H    0.082346
    86  H    0.072497
    87  H    0.091370
    88  H    0.068203
    89  H    0.072610
    90  H    0.085168
    91  H    0.117331
    92  H    0.107942
    93  H    0.116139
    94  H    0.111697
    95  H    0.027732
    96  H    0.079272
    97  H    0.097907
    98  H    0.082291
 Sum of Mulliken charges =  -0.00000

 Dipole moment (field-independent basis, Debye):
    X=             -0.0223    Y=             -1.8164    Z=             -0.0744  Tot=              1.8181
 Quadrupole moment (field-independent basis, Debye-Ang):
   XX=           -279.8173   YY=           -243.3177   ZZ=           -262.7342
   XY=             19.3552   XZ=             -7.1544   YZ=              0.7380

 Normal termination of Gaussian 16 at Tue Jul  9 04:55:58 2019.
