 Gaussian 16, Revision A.03,
 Gaussian 16:  ES64L-G16RevA.03 25-Dec-2016

 -------------------------------------
 # td=(NStates=1) CAM-B3LYP/6-31G(d,p)
 -------------------------------------

 --
 TD
 --
 Symbolic Z-matrix:
 Charge =  0 Multiplicity = 1

                         Standard orientation:
 ---------------------------------------------------------------------
 Center     Atomic      Atomic             Coordinates (Angstroms)
 Number     Number       Type             X           Y           Z
 ---------------------------------------------------------------------
      1          8           0       14.659734   -2.304169   -0.022373
      2          8           0      -14.716854    1.863238    1.177196
      3          6           0       11.076485   -1.434259    1.069325
      4          6           0      -12.270783   -1.085045    0.605569
      5          6           0       12.577240   -1.866247    1.132325
      6          6           0      -13.622555   -0.286283    0.800919
      7          6           0       13.297553   -1.955124   -0.218123
      8          6           0      -13.449716    1.231283    0.978972
      9          6           0       10.906766   -0.191495    0.065902
     10          6           0      -11.298750   -0.228584   -0.162875
     11          6           0       13.203938   -0.672369   -0.850606
     12          6           0      -12.684917    1.933021   -0.062020
     13          6           0       11.861302    0.049006   -0.831501
     14          6           0      -11.421123    1.093422   -0.485199
     15          6           0       10.605176   -1.119108    2.439195
     16          6           0       10.337311   -2.719793    0.571802
     17          6           0      -11.831347   -1.298328    1.992718
     18          6           0      -12.595932   -2.330186   -0.037551
     19          6           0        9.613106    0.420587    0.135493
     20          6           0      -10.068076   -0.999034   -0.532237
     21          6           0       11.653638    1.200951   -1.724859
     22          6           0      -10.417772    1.965549   -1.282100
     23          6           0        9.291127    1.710443    0.101882
     24          6           0       -8.764337   -0.621394   -0.281788
     25          6           0        8.097143    2.338251    0.066922
     26          6           0       -7.576763   -1.365275   -0.618804
     27          6           0        7.851107    3.719585    0.543666
     28          6           0       -7.681630   -2.688546   -1.241036
     29          6           0        6.929018    1.659308   -0.246942
     30          6           0       -6.331778   -0.717850   -0.489306
     31          6           0        5.620334    2.075589    0.013605
     32          6           0       -4.963114   -1.241488   -0.638608
     33          6           0        4.469706    1.413420   -0.262066
     34          6           0       -3.913534   -0.421777   -0.417914
     35          6           0        3.172112    1.734006    0.078111
     36          6           0       -2.588367   -0.786772   -0.558521
     37          6           0        2.838579    3.208360    0.468751
     38          6           0       -2.252218   -2.274890   -1.001174
     39          6           0        2.125504    0.917063   -0.302966
     40          6           0       -1.588226    0.225276   -0.347496
     41          6           0        0.707296    1.122307   -0.167079
     42          6           0       -0.279311    0.043132   -0.430778
     43          1           0       13.081343   -1.036724    1.875038
     44          1           0       12.765619   -2.813390    1.550916
     45          1           0      -14.163737   -0.774255    1.596589
     46          1           0      -14.441023   -0.257383   -0.054393
     47          1           0       12.539183   -2.689187   -0.737472
     48          1           0      -12.906550    1.361991    2.104177
     49          1           0       13.930922   -0.005254   -0.848969
     50          1           0       13.335377   -0.719921   -1.945802
     51          1           0      -13.215143    1.753742   -1.083416
     52          1           0      -12.409437    2.968278    0.198188
     53          1           0       10.804414   -2.087731    3.138726
     54          1           0        9.550640   -0.963280    2.607114
     55          1           0       11.112586   -0.243008    2.814092
     56          1           0       10.576413   -3.157687   -0.375017
     57          1           0       10.466687   -3.490757    1.383354
     58          1           0        9.024833   -2.765769    0.655641
     59          1           0      -11.527811   -0.367742    2.418117
     60          1           0      -10.920670   -1.769335    1.966351
     61          1           0      -12.565289   -1.845335    2.518657
     62          1           0      -13.414851   -2.771788    0.498818
     63          1           0      -11.796297   -3.025205    0.161099
     64          1           0      -12.758471   -2.329521   -1.133341
     65          1           0        8.730649   -0.103363    0.432944
     66          1           0      -10.359690   -2.089345   -0.896323
     67          1           0       10.560162    1.366837   -1.973268
     68          1           0       12.207893    2.153067   -1.429122
     69          1           0       11.848345    0.998262   -2.850724
     70          1           0      -11.113713    2.538608   -1.991731
     71          1           0       -9.800000    1.326522   -1.756796
     72          1           0       -9.796545    2.537490   -0.814859
     73          1           0       14.825366   -3.148715    0.424420
     74          1           0      -15.164311    1.216185    1.796211
     75          1           0       10.147099    2.484857    0.358633
     76          1           0       -8.609178    0.333844    0.180808
     77          1           0        9.002960    4.152227    0.708114
     78          1           0        7.166495    4.204572   -0.255093
     79          1           0        7.469920    3.997559    1.525256
     80          1           0       -8.207381   -3.545017   -0.638189
     81          1           0       -8.006274   -2.493989   -2.222788
     82          1           0       -6.605050   -3.057780   -1.192884
     83          1           0        7.140988    0.605944   -0.686374
     84          1           0       -6.484040    0.241701   -0.171027
     85          1           0        5.512664    2.934905    0.372857
     86          1           0       -4.832343   -2.455719   -0.792827
     87          1           0        4.826679    0.427776   -0.877061
     88          1           0       -4.113399    0.553711    0.146554
     89          1           0        3.357110    3.322544    1.649455
     90          1           0        1.742225    3.595194    0.507683
     91          1           0        3.528782    3.926469   -0.010976
     92          1           0       -3.046118   -3.055972   -0.591884
     93          1           0       -2.364378   -2.509419   -2.129903
     94          1           0       -1.147306   -2.499293   -0.611839
     95          1           0        2.486299    0.023707   -1.028442
     96          1           0       -1.995429    1.071081   -0.045888
     97          1           0        0.466770    1.984632    0.089620
     98          1           0        0.207817   -1.022631   -1.013238
 ---------------------------------------------------------------------

 SCF Done:  E(RCAM-B3LYP) =  -1706.86328064     A.U. after   17 cycles

 Excitation energies and oscillator strengths:

 Excited State   1:      Singlet-A      1.8896 eV  656.13 nm  f=3.6443  <S**2>=0.000
     155 ->158         0.14152
     156 ->157         0.69645
     156 <-157        -0.10843
 This state for optimization and/or second-order correction.
 Total Energy, E(TD-HF/TD-DFT) =  -1706.79383798
 Copying the excited state density for this state as the 1-particle RhoCI density.

 The electronic state is 1-A.
 Alpha  occ. eigenvalues --  -19.21838 -19.21085 -10.31401 -10.31165 -10.29083
 Alpha  occ. eigenvalues --  -10.28732 -10.28725 -10.28578 -10.28503 -10.27782
 Alpha  occ. eigenvalues --  -10.27732 -10.27661 -10.27528 -10.27424 -10.27421
 Alpha  occ. eigenvalues --  -10.26751 -10.26726 -10.26676 -10.26661 -10.26487
 Alpha  occ. eigenvalues --  -10.26486 -10.26480 -10.26448 -10.26393 -10.26227
 Alpha  occ. eigenvalues --  -10.26075 -10.25970 -10.25919 -10.25714 -10.25639
 Alpha  occ. eigenvalues --  -10.25605 -10.25549 -10.25427 -10.25248 -10.25207
 Alpha  occ. eigenvalues --  -10.24860 -10.24772 -10.24216 -10.23944 -10.23913
 Alpha  occ. eigenvalues --  -10.23842 -10.22951  -1.09572  -1.08755  -0.94654
 Alpha  occ. eigenvalues --   -0.93785  -0.92493  -0.92241  -0.90991  -0.90478
 Alpha  occ. eigenvalues --   -0.88185  -0.87545  -0.87344  -0.86180  -0.84629
 Alpha  occ. eigenvalues --   -0.83851  -0.81702  -0.80645  -0.80025  -0.78203
 Alpha  occ. eigenvalues --   -0.78014  -0.77213  -0.76459  -0.76171  -0.75591
 Alpha  occ. eigenvalues --   -0.75477  -0.74842  -0.74740  -0.73210  -0.71363
 Alpha  occ. eigenvalues --   -0.69503  -0.67665  -0.66716  -0.65204  -0.64350
 Alpha  occ. eigenvalues --   -0.63680  -0.63019  -0.61927  -0.60480  -0.59577
 Alpha  occ. eigenvalues --   -0.59397  -0.59264  -0.57729  -0.57019  -0.56862
 Alpha  occ. eigenvalues --   -0.56436  -0.55915  -0.54886  -0.54685  -0.53676
 Alpha  occ. eigenvalues --   -0.53445  -0.53083  -0.52508  -0.51945  -0.51635
 Alpha  occ. eigenvalues --   -0.51146  -0.50699  -0.50681  -0.50161  -0.49790
 Alpha  occ. eigenvalues --   -0.49181  -0.48911  -0.48555  -0.48334  -0.47862
 Alpha  occ. eigenvalues --   -0.47506  -0.47367  -0.47039  -0.46660  -0.46552
 Alpha  occ. eigenvalues --   -0.46479  -0.45808  -0.45560  -0.45170  -0.44913
 Alpha  occ. eigenvalues --   -0.44733  -0.44430  -0.44091  -0.43714  -0.43216
 Alpha  occ. eigenvalues --   -0.42746  -0.42559  -0.42146  -0.42000  -0.41787
 Alpha  occ. eigenvalues --   -0.41589  -0.41192  -0.40991  -0.40641  -0.40524
 Alpha  occ. eigenvalues --   -0.40436  -0.40429  -0.40001  -0.39865  -0.39459
 Alpha  occ. eigenvalues --   -0.39185  -0.38756  -0.38577  -0.38550  -0.37603
 Alpha  occ. eigenvalues --   -0.37499  -0.37063  -0.36784  -0.36305  -0.35433
 Alpha  occ. eigenvalues --   -0.35317  -0.34866  -0.34143  -0.32279  -0.31678
 Alpha  occ. eigenvalues --   -0.30672  -0.29968  -0.28705  -0.26250  -0.23277
 Alpha  occ. eigenvalues --   -0.18786
 Alpha virt. eigenvalues --   -0.07200  -0.01593   0.01877   0.05965   0.08127
 Alpha virt. eigenvalues --    0.09249   0.09962   0.11679   0.11772   0.11781
 Alpha virt. eigenvalues --    0.12079   0.12493   0.12876   0.13104   0.13192

 Mulliken charges:
               1
     1  O   -0.572393
     2  O   -0.559153
     3  C   -0.007530
     4  C   -0.015298
     5  C   -0.176415
     6  C   -0.214178
     7  C    0.195291
     8  C    0.191071
     9  C    0.080403
    10  C    0.057974
    11  C   -0.186220
    12  C   -0.201071
    13  C    0.050690
    14  C   -0.003719
    15  C   -0.294684
    16  C   -0.292776
    17  C   -0.283657
    18  C   -0.301970
    19  C   -0.145697
    20  C   -0.157207
    21  C   -0.383554
    22  C   -0.341845
    23  C   -0.093150
    24  C   -0.096448
    25  C    0.124141
    26  C    0.097590
    27  C   -0.366759
    28  C   -0.360996
    29  C   -0.138707
    30  C   -0.117517
    31  C   -0.038989
    32  C   -0.093690
    33  C   -0.108079
    34  C   -0.109385
    35  C    0.115777
    36  C    0.098681
    37  C   -0.364772
    38  C   -0.361057
    39  C   -0.124367
    40  C   -0.064919
    41  C   -0.066516
    42  C   -0.093543
    43  H    0.070732
    44  H    0.077059
    45  H    0.081779
    46  H    0.082212
    47  H    0.068415
    48  H    0.033051
    49  H    0.130069
    50  H    0.097694
    51  H    0.117028
    52  H    0.123777
    53  H    0.072578
    54  H    0.111803
    55  H    0.109226
    56  H    0.115466
    57  H    0.098598
    58  H    0.047828
    59  H    0.112660
    60  H    0.107770
    61  H    0.101071
    62  H    0.097584
    63  H    0.098817
    64  H    0.112176
    65  H    0.097233
    66  H    0.085626
    67  H    0.130459
    68  H    0.116785
    69  H    0.082846
    70  H    0.097096
    71  H    0.124587
    72  H    0.128000
    73  H    0.310905
    74  H    0.305513
    75  H    0.059956
    76  H    0.085073
    77  H    0.068900
    78  H    0.115200
    79  H    0.131447
    80  H    0.105628
    81  H    0.141891
    82  H    0.093351
    83  H    0.069021
    84  H    0.070495
    85  H    0.044749
    86  H    0.086466
    87  H    0.071070
    88  H    0.092251
    89  H    0.072139
    90  H    0.118876
    91  H    0.134802
    92  H    0.102760
    93  H    0.123675
    94  H    0.108316
    95  H    0.076350
    96  H    0.075647
    97  H    0.055289
    98  H    0.074844
 Sum of Mulliken charges =  -0.00000

 Dipole moment (field-independent basis, Debye):
    X=             -1.3775    Y=             -2.2692    Z=              0.8149  Tot=              2.7768
 Quadrupole moment (field-independent basis, Debye-Ang):
   XX=           -282.9641   YY=           -245.0725   ZZ=           -262.3387
   XY=             13.7007   XZ=             -0.9416   YZ=              0.6370

 Normal termination of Gaussian 16 at Fri Jul 12 22:15:08 2019.
