 Gaussian 16, Revision A.03,
 Gaussian 16:  ES64L-G16RevA.03 25-Dec-2016

 -------------------------------------
 # td=(NStates=1) CAM-B3LYP/6-31G(d,p)
 -------------------------------------

 --
 TD
 --
 Symbolic Z-matrix:
 Charge =  0 Multiplicity = 1

                         Standard orientation:
 ---------------------------------------------------------------------
 Center     Atomic      Atomic             Coordinates (Angstroms)
 Number     Number       Type             X           Y           Z
 ---------------------------------------------------------------------
      1          8           0       14.827725   -2.121629   -0.384978
      2          8           0      -14.851139    1.934243    0.641774
      3          6           0       11.303105   -1.437886    0.943908
      4          6           0      -12.318804   -0.988150    0.495445
      5          6           0       12.697864   -1.755122    0.967899
      6          6           0      -13.716555   -0.232515    0.563938
      7          6           0       13.331355   -1.891139   -0.425981
      8          6           0      -13.532190    1.252300    0.731388
      9          6           0       11.014153   -0.296228   -0.034143
     10          6           0      -11.228835   -0.261941   -0.188527
     11          6           0       13.354858   -0.512188   -1.058411
     12          6           0      -12.678941    1.721124   -0.423583
     13          6           0       11.958511    0.086920   -0.996298
     14          6           0      -11.495980    1.005327   -0.675136
     15          6           0       10.829117   -1.019544    2.390320
     16          6           0       10.433100   -2.641339    0.501429
     17          6           0      -11.972549   -1.092489    1.938608
     18          6           0      -12.669482   -2.402991   -0.045482
     19          6           0        9.663745    0.315350    0.082541
     20          6           0      -10.063265   -1.015112   -0.249653
     21          6           0       11.735659    1.178867   -1.990956
     22          6           0      -10.481445    1.632310   -1.535681
     23          6           0        9.358790    1.554820   -0.033136
     24          6           0       -8.742160   -0.492901   -0.360936
     25          6           0        7.963924    2.180346    0.113318
     26          6           0       -7.600490   -1.271420   -0.492242
     27          6           0        7.876056    3.743996    0.397941
     28          6           0       -7.696148   -2.761508   -0.778900
     29          6           0        6.816617    1.494444    0.108259
     30          6           0       -6.440276   -0.669035   -0.371368
     31          6           0        5.519096    2.008877    0.358035
     32          6           0       -5.021914   -1.149975   -0.394868
     33          6           0        4.372348    1.215082    0.208056
     34          6           0       -3.914157   -0.288755   -0.210404
     35          6           0        3.085676    1.662133    0.481895
     36          6           0       -2.627777   -0.697901   -0.411630
     37          6           0        2.759248    3.068353    0.769477
     38          6           0       -2.265734   -2.052257   -0.905609
     39          6           0        2.040725    0.813575    0.066067
     40          6           0       -1.643790    0.232265   -0.137075
     41          6           0        0.624303    0.961590   -0.016761
     42          6           0       -0.197354    0.033911   -0.381301
     43          1           0       13.279409   -1.077056    1.613000
     44          1           0       12.874299   -2.622208    1.388617
     45          1           0      -14.221231   -0.745600    1.440856
     46          1           0      -14.343305   -0.405299   -0.269713
     47          1           0       12.898888   -2.579652   -1.002435
     48          1           0      -13.100875    1.443053    1.612250
     49          1           0       14.076081    0.115838   -0.692193
     50          1           0       13.566093   -0.643091   -1.983839
     51          1           0      -13.314240    1.978000   -1.451277
     52          1           0      -12.397003    2.616408   -0.159217
     53          1           0       11.073277   -1.836567    2.869075
     54          1           0        9.804196   -0.845151    2.372568
     55          1           0       11.396970   -0.250913    2.865557
     56          1           0       10.892287   -2.822538   -0.577124
     57          1           0       10.614666   -3.387328    1.120252
     58          1           0        9.372810   -2.408593    0.562401
     59          1           0      -11.365907   -0.145076    2.325864
     60          1           0      -11.135312   -1.873064    2.208079
     61          1           0      -12.889803   -1.473382    2.652923
     62          1           0      -13.598744   -2.733723    0.394442
     63          1           0      -11.902111   -3.325237    0.434778
     64          1           0      -12.698040   -2.552722   -1.142043
     65          1           0        8.770773   -0.403819    0.272706
     66          1           0      -10.282874   -2.187346   -0.175496
     67          1           0       10.645080    1.345596   -2.248652
     68          1           0       11.946996    2.137028   -1.655372
     69          1           0       12.181573    0.876962   -2.978548
     70          1           0      -10.893127    2.291652   -2.297728
     71          1           0       -9.715280    1.046585   -1.980696
     72          1           0       -9.878149    2.485980   -1.066852
     73          1           0       15.131692   -2.831015    0.454680
     74          1           0      -15.460025    1.581506    1.314131
     75          1           0       10.139609    2.372845   -0.060802
     76          1           0       -8.451164    0.450507   -0.290977
     77          1           0        8.956063    4.121749    0.476091
     78          1           0        7.417420    4.252503   -0.408449
     79          1           0        7.221411    4.194418    1.222025
     80          1           0       -8.117781   -3.376395   -0.007730
     81          1           0       -8.295080   -3.072639   -1.656579
     82          1           0       -6.632310   -3.135703   -0.847091
     83          1           0        6.958866    0.360671   -0.242388
     84          1           0       -6.475549    0.512819   -0.026546
     85          1           0        5.392539    3.036188    0.605568
     86          1           0       -4.744373   -2.253640   -0.769759
     87          1           0        4.426057    0.439985    0.217781
     88          1           0       -4.212985    0.609887    0.119588
     89          1           0        3.535759    3.432756    1.558386
     90          1           0        1.606080    3.116395    1.187171
     91          1           0        2.802211    3.587410   -0.168392
     92          1           0       -2.676112   -2.864382   -0.040784
     93          1           0       -2.513206   -2.405922   -2.013438
     94          1           0       -1.203733   -2.225851   -0.653910
     95          1           0        2.418846   -0.037796   -0.393101
     96          1           0       -1.791167    1.146836    0.160403
     97          1           0        0.237510    1.951446    0.363722
     98          1           0        0.276906   -0.871385   -0.608813
 ---------------------------------------------------------------------

 SCF Done:  E(RCAM-B3LYP) =  -1706.81275733     A.U. after   15 cycles

 Excitation energies and oscillator strengths:

 Excited State   1:      Singlet-A      2.4146 eV  513.47 nm  f=3.7955  <S**2>=0.000
     155 ->158        -0.18172
     156 ->157         0.67787
 This state for optimization and/or second-order correction.
 Total Energy, E(TD-HF/TD-DFT) =  -1706.72402083
 Copying the excited state density for this state as the 1-particle RhoCI density.

 The electronic state is 1-A.
 Alpha  occ. eigenvalues --  -19.21534 -19.20548 -10.29589 -10.29507 -10.27934
 Alpha  occ. eigenvalues --  -10.27752 -10.27667 -10.27161 -10.27053 -10.27049
 Alpha  occ. eigenvalues --  -10.26861 -10.26748 -10.26716 -10.26679 -10.26673
 Alpha  occ. eigenvalues --  -10.26571 -10.26479 -10.26384 -10.26383 -10.26353
 Alpha  occ. eigenvalues --  -10.26350 -10.26104 -10.26072 -10.25966 -10.25958
 Alpha  occ. eigenvalues --  -10.25935 -10.25703 -10.25443 -10.25424 -10.25242
 Alpha  occ. eigenvalues --  -10.25177 -10.25042 -10.24820 -10.24810 -10.24601
 Alpha  occ. eigenvalues --  -10.24596 -10.24432 -10.24387 -10.23560 -10.23334
 Alpha  occ. eigenvalues --  -10.22577 -10.22491  -1.06941  -1.03934  -0.94991
 Alpha  occ. eigenvalues --   -0.94110  -0.93164  -0.92315  -0.91335  -0.89982
 Alpha  occ. eigenvalues --   -0.88457  -0.88349  -0.87531  -0.85792  -0.85540
 Alpha  occ. eigenvalues --   -0.82783  -0.81789  -0.80495  -0.79638  -0.77844
 Alpha  occ. eigenvalues --   -0.77479  -0.77365  -0.77282  -0.76773  -0.76208
 Alpha  occ. eigenvalues --   -0.75847  -0.75621  -0.74740  -0.73761  -0.71179
 Alpha  occ. eigenvalues --   -0.69751  -0.68335  -0.67161  -0.65259  -0.64724
 Alpha  occ. eigenvalues --   -0.64193  -0.63801  -0.63341  -0.61507  -0.60357
 Alpha  occ. eigenvalues --   -0.59278  -0.58702  -0.58442  -0.57574  -0.56571
 Alpha  occ. eigenvalues --   -0.56006  -0.55847  -0.55366  -0.54206  -0.53949
 Alpha  occ. eigenvalues --   -0.53864  -0.52507  -0.51932  -0.51486  -0.50917
 Alpha  occ. eigenvalues --   -0.50524  -0.50064  -0.49682  -0.49454  -0.49255
 Alpha  occ. eigenvalues --   -0.48975  -0.48793  -0.48482  -0.48317  -0.48214
 Alpha  occ. eigenvalues --   -0.47680  -0.47340  -0.47113  -0.47036  -0.46827
 Alpha  occ. eigenvalues --   -0.46332  -0.45999  -0.45658  -0.45455  -0.45102
 Alpha  occ. eigenvalues --   -0.45013  -0.44899  -0.43965  -0.43487  -0.43262
 Alpha  occ. eigenvalues --   -0.43174  -0.43131  -0.42929  -0.42467  -0.42324
 Alpha  occ. eigenvalues --   -0.42274  -0.42013  -0.41433  -0.40839  -0.40799
 Alpha  occ. eigenvalues --   -0.40274  -0.39934  -0.39583  -0.39355  -0.38952
 Alpha  occ. eigenvalues --   -0.38941  -0.38707  -0.38596  -0.38174  -0.38041
 Alpha  occ. eigenvalues --   -0.37922  -0.37864  -0.37241  -0.36987  -0.36018
 Alpha  occ. eigenvalues --   -0.35800  -0.35210  -0.34207  -0.32515  -0.32237
 Alpha  occ. eigenvalues --   -0.31955  -0.30640  -0.27696  -0.26158  -0.22886
 Alpha  occ. eigenvalues --   -0.19921
 Alpha virt. eigenvalues --   -0.05115  -0.01325   0.02483   0.05108   0.08228
 Alpha virt. eigenvalues --    0.09236   0.10321   0.11685   0.11773   0.12127
 Alpha virt. eigenvalues --    0.12640   0.12805   0.12924   0.13443   0.13609

 Mulliken charges:
               1
     1  O   -0.591212
     2  O   -0.584717
     3  C   -0.052802
     4  C   -0.039445
     5  C   -0.185468
     6  C   -0.194103
     7  C    0.154733
     8  C    0.169973
     9  C    0.079576
    10  C    0.110917
    11  C   -0.165720
    12  C   -0.226068
    13  C   -0.000224
    14  C    0.094193
    15  C   -0.295031
    16  C   -0.283947
    17  C   -0.283652
    18  C   -0.298326
    19  C   -0.106203
    20  C   -0.148972
    21  C   -0.374068
    22  C   -0.389098
    23  C   -0.092817
    24  C   -0.104341
    25  C    0.069689
    26  C    0.180355
    27  C   -0.381789
    28  C   -0.376846
    29  C   -0.113849
    30  C   -0.176923
    31  C   -0.106292
    32  C   -0.118173
    33  C    0.052045
    34  C   -0.075363
    35  C    0.074376
    36  C    0.133244
    37  C   -0.361894
    38  C   -0.373598
    39  C   -0.141639
    40  C   -0.110697
    41  C   -0.062368
    42  C   -0.075450
    43  H    0.102298
    44  H    0.080012
    45  H    0.070347
    46  H    0.105965
    47  H    0.100669
    48  H    0.099307
    49  H    0.132413
    50  H    0.108895
    51  H    0.103589
    52  H    0.127463
    53  H    0.101983
    54  H    0.107801
    55  H    0.104532
    56  H    0.088847
    57  H    0.108196
    58  H    0.104442
    59  H    0.098917
    60  H    0.088508
    61  H    0.078313
    62  H    0.110219
    63  H    0.054285
    64  H    0.118619
    65  H    0.079462
    66  H    0.091388
    67  H    0.113044
    68  H    0.129102
    69  H    0.098536
    70  H    0.102415
    71  H    0.133492
    72  H    0.095961
    73  H    0.284318
    74  H    0.303769
    75  H    0.080353
    76  H    0.074688
    77  H    0.096326
    78  H    0.132855
    79  H    0.114455
    80  H    0.123251
    81  H    0.118317
    82  H    0.098641
    83  H    0.069047
    84  H    0.059966
    85  H    0.081154
    86  H    0.083090
    87  H   -0.020944
    88  H    0.075413
    89  H    0.100034
    90  H    0.091371
    91  H    0.143137
    92  H    0.089757
    93  H    0.124013
    94  H    0.116956
    95  H    0.068744
    96  H    0.071478
    97  H    0.068643
    98  H    0.084143
 Sum of Mulliken charges =  -0.00000

 Dipole moment (field-independent basis, Debye):
    X=              0.0263    Y=             -1.2864    Z=              1.8729  Tot=              2.2723
 Quadrupole moment (field-independent basis, Debye-Ang):
   XX=           -279.1671   YY=           -245.0158   ZZ=           -260.8898
   XY=              9.0038   XZ=              2.9479   YZ=             -1.2070

 Normal termination of Gaussian 16 at Thu Jul 18 23:04:32 2019.
