 Gaussian 16, Revision A.03,
 Gaussian 16:  ES64L-G16RevA.03 25-Dec-2016

 -------------------------------------
 # td=(NStates=1) CAM-B3LYP/6-31G(d,p)
 -------------------------------------

 --
 TD
 --
 Symbolic Z-matrix:
 Charge =  0 Multiplicity = 1

                         Standard orientation:
 ---------------------------------------------------------------------
 Center     Atomic      Atomic             Coordinates (Angstroms)
 Number     Number       Type             X           Y           Z
 ---------------------------------------------------------------------
      1          8           0       14.752442   -2.172653   -0.133758
      2          8           0      -14.602559    2.041753    1.400443
      3          6           0       11.275811   -1.427073    1.121405
      4          6           0      -12.385828   -1.038959    0.656185
      5          6           0       12.674596   -1.779852    1.206826
      6          6           0      -13.647069   -0.199236    0.795800
      7          6           0       13.377321   -1.870075   -0.131923
      8          6           0      -13.317536    1.245403    1.085986
      9          6           0       10.915140   -0.360323    0.124836
     10          6           0      -11.329387   -0.232846   -0.161336
     11          6           0       13.222255   -0.521906   -0.872307
     12          6           0      -12.722860    1.853570   -0.175185
     13          6           0       11.819723    0.089404   -0.742619
     14          6           0      -11.467766    1.045062   -0.559572
     15          6           0       10.756866   -0.951133    2.493116
     16          6           0       10.429588   -2.730415    0.645460
     17          6           0      -11.876870   -1.301672    2.163191
     18          6           0      -12.645276   -2.385536   -0.045980
     19          6           0        9.647867    0.285682    0.210746
     20          6           0      -10.051753   -0.991433   -0.519118
     21          6           0       11.596364    1.173615   -1.790207
     22          6           0      -10.502280    1.936714   -1.368351
     23          6           0        9.372846    1.621186    0.027400
     24          6           0       -8.838467   -0.559750   -0.399928
     25          6           0        8.072649    2.277614    0.177506
     26          6           0       -7.622657   -1.193673   -0.739161
     27          6           0        7.994901    3.756905    0.339550
     28          6           0       -7.768657   -2.671449   -1.344779
     29          6           0        6.939245    1.616175    0.026031
     30          6           0       -6.405993   -0.656134   -0.381673
     31          6           0        5.614074    2.084018    0.117128
     32          6           0       -5.120801   -1.254834   -0.645042
     33          6           0        4.449929    1.276187   -0.116808
     34          6           0       -3.998056   -0.509682   -0.384696
     35          6           0        3.135955    1.757888    0.027884
     36          6           0       -2.648742   -0.876512   -0.562985
     37          6           0        2.735891    3.227695    0.267517
     38          6           0       -2.300855   -2.352152   -0.924925
     39          6           0        2.137792    0.772708   -0.287354
     40          6           0       -1.596863    0.034325   -0.419859
     41          6           0        0.737671    0.894527   -0.257866
     42          6           0       -0.293739   -0.096419   -0.501410
     43          1           0       13.269732   -1.017674    1.665085
     44          1           0       12.821667   -2.645103    1.695863
     45          1           0      -14.274891   -0.715194    1.551854
     46          1           0      -14.167195   -0.167391   -0.142290
     47          1           0       13.029363   -2.628511   -0.780429
     48          1           0      -12.617992    1.416448    2.056668
     49          1           0       13.888948    0.394698   -0.727746
     50          1           0       13.420226   -0.724875   -2.062530
     51          1           0      -13.321774    1.952305   -0.967427
     52          1           0      -12.462072    2.843940    0.049468
     53          1           0       10.747317   -1.964142    3.098699
     54          1           0        9.760057   -0.388888    2.465997
     55          1           0       11.388900   -0.148090    2.822851
     56          1           0       10.889910   -3.159888   -0.284201
     57          1           0       10.300951   -3.456571    1.414912
     58          1           0        9.354976   -2.439550    0.156486
     59          1           0      -11.444003   -0.451904    2.511234
     60          1           0      -10.842631   -1.893746    1.954194
     61          1           0      -12.727044   -1.793040    2.804109
     62          1           0      -13.652292   -2.563843    0.435588
     63          1           0      -11.743974   -3.005576   -0.223615
     64          1           0      -12.931331   -2.300696   -1.068235
     65          1           0        8.805122   -0.133152    0.572621
     66          1           0      -10.133878   -2.016131   -1.054209
     67          1           0       10.735109    1.479562   -2.195510
     68          1           0       11.836278    2.089948   -1.085980
     69          1           0       12.415900    1.058948   -2.727884
     70          1           0      -11.044603    2.282343   -2.404954
     71          1           0       -9.811491    1.259301   -1.818890
     72          1           0       -9.904802    2.756525   -0.918236
     73          1           0       14.562963   -3.290779    0.042839
     74          1           0      -14.969024    1.672829    2.232664
     75          1           0       10.120042    2.338012   -0.250029
     76          1           0       -8.801257    0.441753    0.227116
     77          1           0        8.988163    4.177527    0.461198
     78          1           0        7.499001    4.063561   -0.716974
     79          1           0        7.354749    4.282114    1.201562
     80          1           0       -8.656784   -3.133810   -0.647594
     81          1           0       -8.086441   -2.624907   -2.468159
     82          1           0       -6.827273   -3.184742   -1.160610
     83          1           0        7.008967    0.676106   -0.315369
     84          1           0       -6.301549    0.257238    0.195175
     85          1           0        5.511747    3.178463    0.283228
     86          1           0       -4.962576   -2.354976   -0.934460
     87          1           0        4.748319    0.066419   -0.306196
     88          1           0       -4.026696    0.515435    0.094304
     89          1           0        2.914612    3.481019    1.389011
     90          1           0        1.782888    3.437518    0.034822
     91          1           0        3.250643    3.793360   -0.442761
     92          1           0       -2.996744   -2.933858   -0.313185
     93          1           0       -2.758600   -2.587071   -2.041177
     94          1           0       -1.145673   -2.566704   -0.914627
     95          1           0        2.496373   -0.081377   -0.765778
     96          1           0       -2.129265    0.907454   -0.107865
     97          1           0        0.343057    1.782643    0.140314
     98          1           0        0.106637   -1.111762   -0.765313
 ---------------------------------------------------------------------

 SCF Done:  E(RCAM-B3LYP) =  -1706.94325219     A.U. after   15 cycles

 Excitation energies and oscillator strengths:

 Excited State   1:      Singlet-A      1.9673 eV  630.22 nm  f=3.6477  <S**2>=0.000
     155 ->158        -0.12848
     156 ->157         0.70082
     156 <-157        -0.11574
 This state for optimization and/or second-order correction.
 Total Energy, E(TD-HF/TD-DFT) =  -1706.87095438
 Copying the excited state density for this state as the 1-particle RhoCI density.

 The electronic state is 1-A.
 Alpha  occ. eigenvalues --  -19.22997 -19.19962 -10.31614 -10.30400 -10.28604
 Alpha  occ. eigenvalues --  -10.28440 -10.27990 -10.27843 -10.27582 -10.27508
 Alpha  occ. eigenvalues --  -10.27374 -10.27360 -10.27340 -10.27334 -10.27051
 Alpha  occ. eigenvalues --  -10.27040 -10.26894 -10.26768 -10.26755 -10.26718
 Alpha  occ. eigenvalues --  -10.26644 -10.26624 -10.26618 -10.26604 -10.26572
 Alpha  occ. eigenvalues --  -10.26342 -10.26056 -10.26014 -10.25993 -10.25922
 Alpha  occ. eigenvalues --  -10.25912 -10.25795 -10.25637 -10.25614 -10.25454
 Alpha  occ. eigenvalues --  -10.25311 -10.25194 -10.24893 -10.24872 -10.23905
 Alpha  occ. eigenvalues --  -10.23686 -10.23526  -1.08853  -1.04887  -0.94827
 Alpha  occ. eigenvalues --   -0.93402  -0.92170  -0.91931  -0.90708  -0.90068
 Alpha  occ. eigenvalues --   -0.87772  -0.87266  -0.86522  -0.85457  -0.84655
 Alpha  occ. eigenvalues --   -0.82930  -0.81775  -0.79985  -0.79677  -0.78291
 Alpha  occ. eigenvalues --   -0.76929  -0.76686  -0.76412  -0.75753  -0.75543
 Alpha  occ. eigenvalues --   -0.75367  -0.75306  -0.75229  -0.73515  -0.71245
 Alpha  occ. eigenvalues --   -0.68916  -0.67214  -0.66049  -0.65532  -0.64318
 Alpha  occ. eigenvalues --   -0.63757  -0.63038  -0.61366  -0.60267  -0.59638
 Alpha  occ. eigenvalues --   -0.59340  -0.59220  -0.57764  -0.57115  -0.56530
 Alpha  occ. eigenvalues --   -0.56140  -0.55777  -0.54866  -0.54171  -0.53692
 Alpha  occ. eigenvalues --   -0.52969  -0.52697  -0.52016  -0.51272  -0.50715
 Alpha  occ. eigenvalues --   -0.50423  -0.50147  -0.50037  -0.49567  -0.49301
 Alpha  occ. eigenvalues --   -0.49054  -0.48873  -0.48430  -0.47945  -0.47865
 Alpha  occ. eigenvalues --   -0.47625  -0.47503  -0.47338  -0.46792  -0.46464
 Alpha  occ. eigenvalues --   -0.46233  -0.45991  -0.45785  -0.45574  -0.44758
 Alpha  occ. eigenvalues --   -0.44582  -0.44046  -0.43959  -0.43864  -0.43520
 Alpha  occ. eigenvalues --   -0.43439  -0.43210  -0.42515  -0.42127  -0.41754
 Alpha  occ. eigenvalues --   -0.41482  -0.41394  -0.41096  -0.40865  -0.40561
 Alpha  occ. eigenvalues --   -0.40496  -0.40026  -0.39739  -0.39347  -0.39172
 Alpha  occ. eigenvalues --   -0.38825  -0.38748  -0.38548  -0.38216  -0.37910
 Alpha  occ. eigenvalues --   -0.37882  -0.37781  -0.37491  -0.36134  -0.35900
 Alpha  occ. eigenvalues --   -0.35498  -0.35103  -0.34179  -0.32672  -0.32082
 Alpha  occ. eigenvalues --   -0.31848  -0.30148  -0.28751  -0.26491  -0.24004
 Alpha  occ. eigenvalues --   -0.18678
 Alpha virt. eigenvalues --   -0.06868  -0.00640   0.02552   0.05943   0.07045
 Alpha virt. eigenvalues --    0.08089   0.09888   0.11382   0.11467   0.12057
 Alpha virt. eigenvalues --    0.12313   0.12594   0.12756   0.13214   0.13325

 Mulliken charges:
               1
     1  O   -0.543580
     2  O   -0.588170
     3  C   -0.006323
     4  C   -0.018419
     5  C   -0.159999
     6  C   -0.182634
     7  C    0.153640
     8  C    0.142507
     9  C    0.108500
    10  C    0.050412
    11  C   -0.230307
    12  C   -0.199581
    13  C    0.022012
    14  C    0.027217
    15  C   -0.295582
    16  C   -0.320670
    17  C   -0.290413
    18  C   -0.303806
    19  C   -0.112816
    20  C   -0.159143
    21  C   -0.343389
    22  C   -0.365246
    23  C   -0.103966
    24  C   -0.060184
    25  C    0.085825
    26  C    0.072252
    27  C   -0.373744
    28  C   -0.351389
    29  C   -0.094250
    30  C   -0.115606
    31  C   -0.102304
    32  C   -0.098469
    33  C   -0.120616
    34  C   -0.115972
    35  C    0.084651
    36  C    0.100667
    37  C   -0.354604
    38  C   -0.364918
    39  C   -0.112113
    40  C   -0.075115
    41  C   -0.095846
    42  C   -0.101987
    43  H    0.112804
    44  H    0.084725
    45  H    0.077516
    46  H    0.110458
    47  H    0.083626
    48  H    0.075168
    49  H    0.118286
    50  H    0.085377
    51  H    0.129731
    52  H    0.116786
    53  H    0.083155
    54  H    0.107744
    55  H    0.110317
    56  H    0.101383
    57  H    0.106241
    58  H    0.088887
    59  H    0.120906
    60  H    0.084615
    61  H    0.098188
    62  H    0.097520
    63  H    0.110411
    64  H    0.108488
    65  H    0.084589
    66  H    0.074456
    67  H    0.137792
    68  H    0.108609
    69  H    0.077407
    70  H    0.084246
    71  H    0.128297
    72  H    0.123964
    73  H    0.293942
    74  H    0.299264
    75  H    0.062350
    76  H    0.075592
    77  H    0.108003
    78  H    0.111885
    79  H    0.112553
    80  H    0.101857
    81  H    0.120483
    82  H    0.114676
    83  H    0.064815
    84  H    0.091538
    85  H    0.082587
    86  H    0.090253
    87  H    0.082544
    88  H    0.080486
    89  H    0.116624
    90  H    0.126548
    91  H    0.132585
    92  H    0.122330
    93  H    0.093769
    94  H    0.108435
    95  H    0.081054
    96  H    0.061992
    97  H    0.074456
    98  H    0.071168
 Sum of Mulliken charges =  -0.00000

 Dipole moment (field-independent basis, Debye):
    X=              1.6375    Y=             -1.4699    Z=              0.5597  Tot=              2.2705
 Quadrupole moment (field-independent basis, Debye-Ang):
   XX=           -300.4158   YY=           -244.4676   ZZ=           -260.7088
   XY=             10.4687   XZ=             -5.7436   YZ=              2.4934

 Normal termination of Gaussian 16 at Fri Jul 12 00:53:11 2019.
