 Gaussian 16, Revision A.03,
 Gaussian 16:  ES64L-G16RevA.03 25-Dec-2016

 -------------------------------------
 # td=(NStates=1) CAM-B3LYP/6-31G(d,p)
 -------------------------------------

 --
 TD
 --
 Symbolic Z-matrix:
 Charge =  0 Multiplicity = 1

                         Standard orientation:
 ---------------------------------------------------------------------
 Center     Atomic      Atomic             Coordinates (Angstroms)
 Number     Number       Type             X           Y           Z
 ---------------------------------------------------------------------
      1          8           0       14.907994   -2.115415   -0.365072
      2          8           0      -14.940483    1.786135    0.640783
      3          6           0       11.203593   -1.615488    0.771873
      4          6           0      -12.366105   -1.039829    0.577429
      5          6           0       12.729954   -1.886031    0.878153
      6          6           0      -13.728647   -0.338723    0.534313
      7          6           0       13.453174   -1.901079   -0.438329
      8          6           0      -13.675077    1.145684    0.731400
      9          6           0       10.921335   -0.228537   -0.006481
     10          6           0      -11.293116   -0.186373   -0.321950
     11          6           0       13.351842   -0.431900   -0.976550
     12          6           0      -12.822322    1.820042   -0.343744
     13          6           0       11.929513    0.151703   -0.844304
     14          6           0      -11.543419    1.107684   -0.736164
     15          6           0       10.770244   -1.577107    2.238419
     16          6           0       10.427084   -2.811259   -0.030018
     17          6           0      -11.874657   -1.294659    2.027511
     18          6           0      -12.566949   -2.322749   -0.024312
     19          6           0        9.650597    0.387156    0.117337
     20          6           0      -10.033028   -0.975280   -0.446665
     21          6           0       11.784637    1.312946   -1.849980
     22          6           0      -10.597627    1.742377   -1.591969
     23          6           0        9.299939    1.710618    0.264228
     24          6           0       -8.746637   -0.576516   -0.313772
     25          6           0        8.011399    2.204762    0.321370
     26          6           0       -7.589247   -1.338294   -0.490451
     27          6           0        7.925331    3.751811    0.576266
     28          6           0       -7.545664   -2.691537   -0.974925
     29          6           0        6.853911    1.420530    0.174714
     30          6           0       -6.399794   -0.684071   -0.193560
     31          6           0        5.612469    2.127863    0.274792
     32          6           0       -5.124927   -1.196907   -0.303334
     33          6           0        4.484112    1.367296    0.067313
     34          6           0       -3.980622   -0.413841   -0.169319
     35          6           0        3.083771    1.868844    0.262967
     36          6           0       -2.655722   -0.701050   -0.333028
     37          6           0        2.945127    3.310154    0.484930
     38          6           0       -2.355663   -2.107131   -0.647788
     39          6           0        2.085917    0.958316    0.021197
     40          6           0       -1.659157    0.293435   -0.111705
     41          6           0        0.716611    1.095199    0.137881
     42          6           0       -0.238276    0.049478   -0.099778
     43          1           0       13.387277   -1.103660    1.471781
     44          1           0       12.966553   -2.937152    1.212492
     45          1           0      -14.292871   -0.687737    1.344751
     46          1           0      -14.371900   -0.697509   -0.331017
     47          1           0       13.129412   -2.667447   -1.076261
     48          1           0      -13.236316    1.420421    1.674544
     49          1           0       14.100575    0.169075   -0.382086
     50          1           0       13.665172   -0.405275   -1.872837
     51          1           0      -13.387368    1.917442   -1.138396
     52          1           0      -12.703434    2.876129   -0.163982
     53          1           0       11.113524   -2.455611    2.822522
     54          1           0        9.460231   -1.638395    2.485021
     55          1           0       11.287109   -0.552563    2.846969
     56          1           0       10.844097   -2.909282   -0.913632
     57          1           0       10.521303   -3.595707    0.571960
     58          1           0        9.322362   -2.629476   -0.171585
     59          1           0      -11.713411   -0.207145    2.368031
     60          1           0      -11.034033   -1.941402    2.176131
     61          1           0      -12.727304   -1.859562    2.481483
     62          1           0      -13.398109   -2.918919    0.373485
     63          1           0      -11.842109   -3.084006    0.143739
     64          1           0      -12.873636   -2.293706   -1.060119
     65          1           0        8.931022   -0.314852    0.297660
     66          1           0      -10.146781   -1.886648   -1.059164
     67          1           0       10.771389    1.671916   -1.763664
     68          1           0       12.403614    2.175008   -1.338932
     69          1           0       12.129079    1.015029   -2.938604
     70          1           0      -11.034481    2.417078   -2.216698
     71          1           0      -10.167643    0.958575   -2.195730
     72          1           0       -9.892177    2.594987   -1.121020
     73          1           0       15.184367   -3.007800    0.058436
     74          1           0      -15.581618    1.331789    1.282433
     75          1           0       10.100612    2.537129   -0.035910
     76          1           0       -8.468948    0.310100    0.091861
     77          1           0        8.922867    4.074129    0.687616
     78          1           0        7.570489    4.187041   -0.293514
     79          1           0        7.462695    4.074406    1.536648
     80          1           0       -8.453821   -3.433249   -0.481745
     81          1           0       -7.904422   -2.590052   -1.969643
     82          1           0       -6.625158   -3.160586   -0.793504
     83          1           0        6.848009    0.510859   -0.256747
     84          1           0       -6.464016    0.380621    0.133531
     85          1           0        5.497717    3.245045    0.569812
     86          1           0       -4.880593   -2.234479   -0.505305
     87          1           0        4.679769    0.279022   -0.026734
     88          1           0       -4.058584    0.670821   -0.053000
     89          1           0        3.486373    3.442188    1.609869
     90          1           0        1.874699    3.649084    0.707649
     91          1           0        3.420612    4.028175   -0.203311
     92          1           0       -2.827120   -2.659826    0.218692
     93          1           0       -2.784966   -2.286525   -1.665240
     94          1           0       -1.323011   -2.593043   -0.610085
     95          1           0        2.282553   -0.108747   -0.246124
     96          1           0       -1.963318    1.301130    0.213990
     97          1           0        0.246562    2.046318    0.377299
     98          1           0        0.143590   -0.834161   -0.363294
 ---------------------------------------------------------------------

 SCF Done:  E(RCAM-B3LYP) =  -1706.98875755     A.U. after   15 cycles

 Excitation energies and oscillator strengths:

 Excited State   1:      Singlet-A      2.0765 eV  597.10 nm  f=3.8761  <S**2>=0.000
     155 ->158        -0.16339
     156 ->157         0.68720
 This state for optimization and/or second-order correction.
 Total Energy, E(TD-HF/TD-DFT) =  -1706.91244930
 Copying the excited state density for this state as the 1-particle RhoCI density.

 The electronic state is 1-A.
 Alpha  occ. eigenvalues --  -19.21130 -19.21013 -10.29911 -10.29527 -10.29239
 Alpha  occ. eigenvalues --  -10.28467 -10.27887 -10.27734 -10.27049 -10.27029
 Alpha  occ. eigenvalues --  -10.26920 -10.26883 -10.26557 -10.26429 -10.26415
 Alpha  occ. eigenvalues --  -10.26383 -10.26354 -10.26235 -10.26156 -10.26120
 Alpha  occ. eigenvalues --  -10.26099 -10.26091 -10.26043 -10.26040 -10.26036
 Alpha  occ. eigenvalues --  -10.25927 -10.25779 -10.25758 -10.25667 -10.25480
 Alpha  occ. eigenvalues --  -10.25399 -10.25351 -10.25212 -10.24761 -10.24758
 Alpha  occ. eigenvalues --  -10.24348 -10.24345 -10.24334 -10.24117 -10.23899
 Alpha  occ. eigenvalues --  -10.23208 -10.22758  -1.08382  -1.06469  -0.93125
 Alpha  occ. eigenvalues --   -0.92819  -0.92456  -0.91586  -0.91080  -0.90156
 Alpha  occ. eigenvalues --   -0.88086  -0.87103  -0.86132  -0.85372  -0.84631
 Alpha  occ. eigenvalues --   -0.83232  -0.82371  -0.80506  -0.80016  -0.78612
 Alpha  occ. eigenvalues --   -0.77270  -0.76848  -0.76652  -0.75890  -0.75842
 Alpha  occ. eigenvalues --   -0.75529  -0.74848  -0.74567  -0.73027  -0.70709
 Alpha  occ. eigenvalues --   -0.69276  -0.67420  -0.65879  -0.65367  -0.63914
 Alpha  occ. eigenvalues --   -0.62814  -0.62573  -0.62056  -0.60826  -0.59859
 Alpha  occ. eigenvalues --   -0.59197  -0.58357  -0.58278  -0.57820  -0.56242
 Alpha  occ. eigenvalues --   -0.55630  -0.55450  -0.54939  -0.54107  -0.53662
 Alpha  occ. eigenvalues --   -0.53233  -0.52710  -0.52202  -0.51270  -0.50896
 Alpha  occ. eigenvalues --   -0.50635  -0.50241  -0.50186  -0.50038  -0.49938
 Alpha  occ. eigenvalues --   -0.49762  -0.49083  -0.48761  -0.48634  -0.48414
 Alpha  occ. eigenvalues --   -0.48239  -0.47869  -0.47454  -0.46843  -0.46800
 Alpha  occ. eigenvalues --   -0.45865  -0.45433  -0.45010  -0.44394  -0.44341
 Alpha  occ. eigenvalues --   -0.44012  -0.43960  -0.43489  -0.43408  -0.42833
 Alpha  occ. eigenvalues --   -0.42736  -0.42522  -0.42035  -0.41952  -0.41756
 Alpha  occ. eigenvalues --   -0.41633  -0.41195  -0.41079  -0.40973  -0.40900
 Alpha  occ. eigenvalues --   -0.40821  -0.40592  -0.40354  -0.39544  -0.39312
 Alpha  occ. eigenvalues --   -0.39172  -0.39129  -0.38771  -0.38337  -0.38092
 Alpha  occ. eigenvalues --   -0.37680  -0.37382  -0.36605  -0.36070  -0.35696
 Alpha  occ. eigenvalues --   -0.35206  -0.34118  -0.33547  -0.32376  -0.32259
 Alpha  occ. eigenvalues --   -0.31971  -0.29496  -0.27808  -0.25884  -0.22616
 Alpha  occ. eigenvalues --   -0.18809
 Alpha virt. eigenvalues --   -0.05986  -0.01649   0.02209   0.06213   0.08129
 Alpha virt. eigenvalues --    0.09653   0.11320   0.11910   0.12096   0.12308
 Alpha virt. eigenvalues --    0.12725   0.13033   0.13490   0.13712   0.14144

 Mulliken charges:
               1
     1  O   -0.590100
     2  O   -0.574266
     3  C   -0.011190
     4  C    0.005305
     5  C   -0.178839
     6  C   -0.194403
     7  C    0.154583
     8  C    0.174119
     9  C    0.064747
    10  C    0.007871
    11  C   -0.184459
    12  C   -0.225318
    13  C    0.012319
    14  C    0.080641
    15  C   -0.267664
    16  C   -0.306298
    17  C   -0.292000
    18  C   -0.315205
    19  C   -0.101638
    20  C   -0.166666
    21  C   -0.349965
    22  C   -0.368028
    23  C   -0.112483
    24  C   -0.055819
    25  C    0.070149
    26  C    0.134507
    27  C   -0.373834
    28  C   -0.365630
    29  C   -0.107979
    30  C   -0.131097
    31  C   -0.074542
    32  C   -0.098290
    33  C   -0.129766
    34  C   -0.119251
    35  C    0.115884
    36  C    0.123492
    37  C   -0.374735
    38  C   -0.387410
    39  C   -0.115554
    40  C   -0.142270
    41  C   -0.082710
    42  C   -0.072506
    43  H    0.105111
    44  H    0.069860
    45  H    0.080394
    46  H    0.097937
    47  H    0.089872
    48  H    0.083570
    49  H    0.122715
    50  H    0.107686
    51  H    0.130679
    52  H    0.104004
    53  H    0.108129
    54  H    0.049383
    55  H    0.077282
    56  H    0.119744
    57  H    0.114032
    58  H    0.100041
    59  H    0.096201
    60  H    0.117262
    61  H    0.091469
    62  H    0.086506
    63  H    0.099864
    64  H    0.102328
    65  H    0.080258
    66  H    0.088736
    67  H    0.116393
    68  H    0.102686
    69  H    0.103669
    70  H    0.111893
    71  H    0.126650
    72  H    0.089320
    73  H    0.299402
    74  H    0.303626
    75  H    0.071860
    76  H    0.072696
    77  H    0.108452
    78  H    0.135003
    79  H    0.121132
    80  H    0.076486
    81  H    0.136926
    82  H    0.119499
    83  H    0.091253
    84  H    0.084587
    85  H    0.096778
    86  H    0.087565
    87  H    0.080991
    88  H    0.070710
    89  H    0.093368
    90  H    0.110102
    91  H    0.137281
    92  H    0.121672
    93  H    0.125246
    94  H    0.104362
    95  H    0.078252
    96  H    0.083677
    97  H    0.071650
    98  H    0.070047
 Sum of Mulliken charges =  -0.00000

 Dipole moment (field-independent basis, Debye):
    X=              0.8520    Y=             -2.0526    Z=              0.4491  Tot=              2.2673
 Quadrupole moment (field-independent basis, Debye-Ang):
   XX=           -267.1367   YY=           -238.3149   ZZ=           -263.1620
   XY=              2.7615   XZ=             -5.1864   YZ=              1.4540

 Normal termination of Gaussian 16 at Tue Jul  9 20:18:14 2019.
