 Gaussian 16, Revision A.03,
 Gaussian 16:  ES64L-G16RevA.03 25-Dec-2016

 -------------------------------------
 # td=(NStates=1) CAM-B3LYP/6-31G(d,p)
 -------------------------------------

 --
 TD
 --
 Symbolic Z-matrix:
 Charge =  0 Multiplicity = 1

                         Standard orientation:
 ---------------------------------------------------------------------
 Center     Atomic      Atomic             Coordinates (Angstroms)
 Number     Number       Type             X           Y           Z
 ---------------------------------------------------------------------
      1          8           0       14.556377   -2.490076   -0.128648
      2          8           0      -14.689009    1.636445    1.126686
      3          6           0       11.052918   -1.463604    1.014695
      4          6           0      -12.252816   -1.021112    0.654532
      5          6           0       12.535196   -1.942192    1.156514
      6          6           0      -13.614881   -0.420306    0.774607
      7          6           0       13.204658   -2.108295   -0.251749
      8          6           0      -13.435675    1.025053    1.140190
      9          6           0       10.912180   -0.254980    0.099126
     10          6           0      -11.279166   -0.288289   -0.205737
     11          6           0       13.166127   -0.792438   -0.986188
     12          6           0      -12.638967    1.726767   -0.075742
     13          6           0       11.837229   -0.026927   -0.838833
     14          6           0      -11.435986    0.938667   -0.510328
     15          6           0       10.524477   -1.166572    2.452877
     16          6           0       10.214180   -2.700943    0.489230
     17          6           0      -11.665773   -1.281509    2.082757
     18          6           0      -12.656208   -2.442240    0.084302
     19          6           0        9.679565    0.464597    0.219888
     20          6           0       -9.940233   -0.920170   -0.429475
     21          6           0       11.774659    1.224378   -1.732859
     22          6           0      -10.658556    1.904947   -1.362737
     23          6           0        9.374405    1.765594    0.222828
     24          6           0       -8.672456   -0.389688   -0.463313
     25          6           0        8.056929    2.350828    0.335506
     26          6           0       -7.555009   -1.152473   -0.678068
     27          6           0        7.916541    3.834960    0.862278
     28          6           0       -7.649258   -2.722667   -0.886503
     29          6           0        6.915291    1.695464    0.091479
     30          6           0       -6.378086   -0.451198   -0.635170
     31          6           0        5.678125    2.142233    0.064264
     32          6           0       -5.054993   -0.981704   -0.675602
     33          6           0        4.455046    1.417010   -0.252692
     34          6           0       -3.844987   -0.338303   -0.557162
     35          6           0        3.123818    1.795040   -0.158698
     36          6           0       -2.507359   -0.710551   -0.663462
     37          6           0        2.817528    3.175419    0.377114
     38          6           0       -2.165463   -2.134169   -1.018787
     39          6           0        2.097634    0.834814   -0.378421
     40          6           0       -1.584939    0.225566   -0.473297
     41          6           0        0.680773    1.054382   -0.409563
     42          6           0       -0.214105    0.074744   -0.653248
     43          1           0       13.161316   -1.184913    1.615266
     44          1           0       12.398074   -2.777394    1.750714
     45          1           0      -14.290780   -1.016660    1.194825
     46          1           0      -14.183826   -0.391777   -0.244203
     47          1           0       12.593459   -2.807063   -0.718982
     48          1           0      -12.997230    1.254387    2.076148
     49          1           0       14.059189   -0.269664   -0.606491
     50          1           0       13.516043   -0.938821   -1.992470
     51          1           0      -13.402034    1.786591   -0.845704
     52          1           0      -12.430053    2.791758    0.344657
     53          1           0       10.996591   -1.930605    3.216825
     54          1           0        9.295821   -0.824853    2.633225
     55          1           0       10.969691   -0.277010    2.715830
     56          1           0       10.785009   -3.016726   -0.306194
     57          1           0       10.032868   -3.401926    1.312075
     58          1           0        9.165512   -2.524707    0.221666
     59          1           0      -11.406986   -0.451849    2.758621
     60          1           0      -10.787133   -1.883033    2.073650
     61          1           0      -12.622615   -1.961087    2.550061
     62          1           0      -13.372286   -2.975901    0.695705
     63          1           0      -11.669086   -3.098145    0.084321
     64          1           0      -13.037091   -2.244751   -1.008645
     65          1           0        8.902615   -0.198523    0.612728
     66          1           0      -10.043094   -1.880821   -0.554385
     67          1           0       10.788408    1.715884   -2.122694
     68          1           0       12.453557    2.070016   -1.330655
     69          1           0       12.390736    0.999654   -2.536648
     70          1           0      -11.365975    2.651514   -1.891928
     71          1           0       -9.988861    1.176569   -2.048576
     72          1           0      -10.049238    2.493871   -0.760016
     73          1           0       14.655400   -3.409046    0.087657
     74          1           0      -15.120884    1.404466    1.834928
     75          1           0       10.216293    2.540056   -0.120310
     76          1           0       -8.531863    0.641810   -0.229058
     77          1           0        8.751870    4.339687    1.156382
     78          1           0        7.446904    4.379247    0.054910
     79          1           0        7.225062    4.012059    1.776350
     80          1           0       -7.971436   -3.141977    0.047482
     81          1           0       -8.379380   -3.017637   -1.662962
     82          1           0       -6.663892   -3.056554   -1.368090
     83          1           0        7.252767    0.716910   -0.307294
     84          1           0       -6.266283    0.706016   -0.438605
     85          1           0        5.401682    3.163760    0.567553
     86          1           0       -4.892885   -2.131376   -0.696814
     87          1           0        4.725755    0.316932   -0.495613
     88          1           0       -3.908590    1.032689   -0.252025
     89          1           0        3.167273    3.225165    1.536623
     90          1           0        1.712699    3.349421    0.520815
     91          1           0        3.299306    4.024645   -0.262545
     92          1           0       -2.644312   -2.607169   -0.189452
     93          1           0       -3.092463   -2.402623   -1.786704
     94          1           0       -1.121438   -2.261327   -1.561670
     95          1           0        2.644132    0.023776   -0.842968
     96          1           0       -2.087435    1.138012   -0.054420
     97          1           0        0.263894    2.228067   -0.111257
     98          1           0        0.242066   -0.910753   -1.023250
 ---------------------------------------------------------------------

 SCF Done:  E(RCAM-B3LYP) =  -1706.93273304     A.U. after   15 cycles

 Excitation energies and oscillator strengths:

 Excited State   1:      Singlet-A      2.1665 eV  572.27 nm  f=3.7878  <S**2>=0.000
     155 ->158        -0.15194
     156 ->157         0.69067
 This state for optimization and/or second-order correction.
 Total Energy, E(TD-HF/TD-DFT) =  -1706.85311386
 Copying the excited state density for this state as the 1-particle RhoCI density.

 The electronic state is 1-A.
 Alpha  occ. eigenvalues --  -19.21542 -19.19100 -10.30235 -10.29200 -10.28568
 Alpha  occ. eigenvalues --  -10.28340 -10.27661 -10.27646 -10.27475 -10.27439
 Alpha  occ. eigenvalues --  -10.27332 -10.27245 -10.27215 -10.27209 -10.27156
 Alpha  occ. eigenvalues --  -10.27066 -10.27060 -10.26945 -10.26838 -10.26809
 Alpha  occ. eigenvalues --  -10.26769 -10.26727 -10.26621 -10.26241 -10.26003
 Alpha  occ. eigenvalues --  -10.26002 -10.25675 -10.25581 -10.25579 -10.25577
 Alpha  occ. eigenvalues --  -10.25559 -10.25545 -10.25341 -10.25112 -10.25012
 Alpha  occ. eigenvalues --  -10.24894 -10.24697 -10.24664 -10.24470 -10.24278
 Alpha  occ. eigenvalues --  -10.24050 -10.23616  -1.11766  -1.10338  -0.94343
 Alpha  occ. eigenvalues --   -0.93689  -0.93001  -0.91780  -0.91319  -0.90196
 Alpha  occ. eigenvalues --   -0.87510  -0.87109  -0.86474  -0.85937  -0.84703
 Alpha  occ. eigenvalues --   -0.82825  -0.82120  -0.79835  -0.79173  -0.78113
 Alpha  occ. eigenvalues --   -0.77142  -0.76606  -0.76207  -0.76186  -0.75537
 Alpha  occ. eigenvalues --   -0.75409  -0.75233  -0.74398  -0.73953  -0.71550
 Alpha  occ. eigenvalues --   -0.69857  -0.67916  -0.66753  -0.65714  -0.64759
 Alpha  occ. eigenvalues --   -0.64153  -0.63013  -0.60876  -0.60765  -0.59709
 Alpha  occ. eigenvalues --   -0.59494  -0.58753  -0.58205  -0.57105  -0.56326
 Alpha  occ. eigenvalues --   -0.55950  -0.55257  -0.55222  -0.54887  -0.53811
 Alpha  occ. eigenvalues --   -0.53081  -0.52287  -0.51865  -0.51625  -0.50993
 Alpha  occ. eigenvalues --   -0.50521  -0.50298  -0.49883  -0.49552  -0.49452
 Alpha  occ. eigenvalues --   -0.49199  -0.48819  -0.48305  -0.47912  -0.47684
 Alpha  occ. eigenvalues --   -0.47510  -0.46859  -0.46731  -0.46417  -0.46278
 Alpha  occ. eigenvalues --   -0.45753  -0.45113  -0.44623  -0.44525  -0.44393
 Alpha  occ. eigenvalues --   -0.43898  -0.43765  -0.43616  -0.43468  -0.43364
 Alpha  occ. eigenvalues --   -0.43303  -0.43063  -0.42239  -0.42042  -0.41871
 Alpha  occ. eigenvalues --   -0.41701  -0.41276  -0.41150  -0.40809  -0.40655
 Alpha  occ. eigenvalues --   -0.40448  -0.40112  -0.39957  -0.39492  -0.39474
 Alpha  occ. eigenvalues --   -0.38925  -0.38513  -0.38491  -0.38362  -0.38352
 Alpha  occ. eigenvalues --   -0.37353  -0.36823  -0.36783  -0.36725  -0.36478
 Alpha  occ. eigenvalues --   -0.35652  -0.34526  -0.33496  -0.32969  -0.31900
 Alpha  occ. eigenvalues --   -0.31210  -0.30441  -0.28693  -0.26831  -0.23237
 Alpha  occ. eigenvalues --   -0.19392
 Alpha virt. eigenvalues --   -0.06104  -0.01479   0.02797   0.05638   0.08643
 Alpha virt. eigenvalues --    0.09467   0.10346   0.11172   0.11845   0.12318
 Alpha virt. eigenvalues --    0.12779   0.12967   0.13270   0.13939   0.14194

 Mulliken charges:
               1
     1  O   -0.561590
     2  O   -0.534589
     3  C   -0.052181
     4  C   -0.051674
     5  C   -0.184695
     6  C   -0.157287
     7  C    0.160423
     8  C    0.137231
     9  C    0.094124
    10  C    0.118745
    11  C   -0.233269
    12  C   -0.238456
    13  C    0.043678
    14  C    0.045110
    15  C   -0.305743
    16  C   -0.299238
    17  C   -0.273912
    18  C   -0.299713
    19  C   -0.116360
    20  C   -0.140690
    21  C   -0.367085
    22  C   -0.358552
    23  C   -0.111703
    24  C   -0.070111
    25  C    0.073198
    26  C    0.106821
    27  C   -0.373505
    28  C   -0.365419
    29  C   -0.079243
    30  C   -0.128901
    31  C   -0.105190
    32  C   -0.122714
    33  C   -0.134558
    34  C   -0.100929
    35  C    0.121131
    36  C    0.154166
    37  C   -0.365763
    38  C   -0.372757
    39  C   -0.129033
    40  C   -0.109576
    41  C   -0.081555
    42  C   -0.090805
    43  H    0.104275
    44  H    0.089715
    45  H    0.086115
    46  H    0.083952
    47  H    0.085943
    48  H    0.080937
    49  H    0.127793
    50  H    0.113978
    51  H    0.130349
    52  H    0.095371
    53  H    0.085947
    54  H    0.077191
    55  H    0.121742
    56  H    0.103559
    57  H    0.101104
    58  H    0.103474
    59  H    0.106018
    60  H    0.110131
    61  H    0.055592
    62  H    0.108777
    63  H    0.075172
    64  H    0.099871
    65  H    0.087452
    66  H    0.055431
    67  H    0.118381
    68  H    0.104656
    69  H    0.107460
    70  H    0.106539
    71  H    0.101524
    72  H    0.129484
    73  H    0.306704
    74  H    0.279801
    75  H    0.086931
    76  H    0.087525
    77  H    0.112303
    78  H    0.124667
    79  H    0.107467
    80  H    0.136029
    81  H    0.125082
    82  H    0.111118
    83  H    0.077672
    84  H    0.086203
    85  H    0.081632
    86  H    0.069352
    87  H    0.071920
    88  H    0.016176
    89  H    0.105233
    90  H    0.103567
    91  H    0.116768
    92  H    0.148206
    93  H    0.091044
    94  H    0.124924
    95  H    0.087373
    96  H    0.081527
    97  H    0.077343
    98  H    0.087668
 Sum of Mulliken charges =  -0.00000

 Dipole moment (field-independent basis, Debye):
    X=              0.5225    Y=             -2.0982    Z=              1.4392  Tot=              2.5975
 Quadrupole moment (field-independent basis, Debye-Ang):
   XX=           -256.5123   YY=           -242.2905   ZZ=           -262.2719
   XY=              1.9464   XZ=            -18.1287   YZ=              3.1429

 Normal termination of Gaussian 16 at Wed Jul 17 03:16:40 2019.
