 Gaussian 16, Revision A.03,
 Gaussian 16:  ES64L-G16RevA.03 25-Dec-2016

 -------------------------------------
 # td=(NStates=1) CAM-B3LYP/6-31G(d,p)
 -------------------------------------

 --
 TD
 --
 Symbolic Z-matrix:
 Charge =  0 Multiplicity = 1

                         Standard orientation:
 ---------------------------------------------------------------------
 Center     Atomic      Atomic             Coordinates (Angstroms)
 Number     Number       Type             X           Y           Z
 ---------------------------------------------------------------------
      1          8           0       14.521328   -2.535768   -0.369045
      2          8           0      -14.718824    1.730576    1.051022
      3          6           0       11.142672   -1.453198    1.088635
      4          6           0      -12.321516   -1.052058    0.521685
      5          6           0       12.610810   -1.942516    1.030596
      6          6           0      -13.573083   -0.281779    0.608015
      7          6           0       13.165710   -2.080667   -0.346328
      8          6           0      -13.433020    1.131197    0.989599
      9          6           0       10.975707   -0.239296    0.045678
     10          6           0      -11.255951   -0.319349   -0.293072
     11          6           0       13.069114   -0.742513   -0.990473
     12          6           0      -12.741057    1.845143   -0.138705
     13          6           0       11.827790    0.034598   -0.873136
     14          6           0      -11.510145    1.040332   -0.548431
     15          6           0       10.824208   -0.974267    2.469837
     16          6           0       10.172358   -2.600112    0.666946
     17          6           0      -11.664406   -1.416040    1.905223
     18          6           0      -12.672429   -2.390373   -0.220927
     19          6           0        9.640819    0.315244    0.272415
     20          6           0      -10.001828   -0.988248   -0.562833
     21          6           0       11.699305    1.172957   -1.895154
     22          6           0      -10.511479    1.935113   -1.281742
     23          6           0        9.448663    1.700185    0.150570
     24          6           0       -8.847469   -0.498979   -0.258906
     25          6           0        8.111097    2.359925    0.245867
     26          6           0       -7.569625   -1.191264   -0.481001
     27          6           0        8.089536    3.914878    0.469420
     28          6           0       -7.606028   -2.694968   -0.817114
     29          6           0        6.884796    1.610537    0.158205
     30          6           0       -6.381950   -0.522104   -0.443438
     31          6           0        5.626567    2.170327    0.128094
     32          6           0       -5.059835   -1.113453   -0.547827
     33          6           0        4.511886    1.372211   -0.069256
     34          6           0       -3.912224   -0.337928   -0.280279
     35          6           0        3.173330    1.763025   -0.074869
     36          6           0       -2.623945   -0.717968   -0.483077
     37          6           0        2.788973    3.205465    0.363079
     38          6           0       -2.317591   -2.095278   -0.948062
     39          6           0        2.100061    0.825494   -0.128260
     40          6           0       -1.601988    0.217048   -0.169140
     41          6           0        0.765886    1.103375   -0.077843
     42          6           0       -0.245248    0.152814   -0.421774
     43          1           0       13.430147   -1.165639    1.512850
     44          1           0       12.620840   -2.890366    1.590425
     45          1           0      -14.383184   -0.866395    1.280441
     46          1           0      -14.106726   -0.275332   -0.287831
     47          1           0       12.630658   -2.832932   -0.990463
     48          1           0      -12.839404    1.259172    1.972558
     49          1           0       13.799860    0.003560   -0.633436
     50          1           0       13.138485   -0.901525   -2.061600
     51          1           0      -13.324168    2.123301   -0.905921
     52          1           0      -12.349854    2.894566    0.187857
     53          1           0       11.128437   -1.806664    3.088764
     54          1           0        9.718738   -0.765228    2.594980
     55          1           0       11.411360   -0.111887    2.988069
     56          1           0       10.386445   -3.080866   -0.496645
     57          1           0       10.214897   -3.427294    1.341338
     58          1           0        9.085855   -2.217617    0.612230
     59          1           0      -11.740076   -0.518954    2.721628
     60          1           0      -10.724053   -1.792217    1.796782
     61          1           0      -12.349480   -2.211320    2.339582
     62          1           0      -13.322523   -3.014714    0.410968
     63          1           0      -11.820690   -3.134592   -0.248059
     64          1           0      -13.052577   -2.364775   -1.359339
     65          1           0        8.676972   -0.460408    0.397340
     66          1           0      -10.040239   -2.058126   -1.056311
     67          1           0       10.742786    1.560570   -2.179303
     68          1           0       12.328052    2.040622   -1.600474
     69          1           0       12.005602    0.956566   -2.909503
     70          1           0      -11.128475    2.625991   -2.019882
     71          1           0       -9.665160    1.331396   -1.872009
     72          1           0       -9.866139    2.619100   -0.751476
     73          1           0       14.653762   -3.590082   -0.310159
     74          1           0      -15.385468    1.097285    1.719493
     75          1           0       10.359653    2.461000    0.136421
     76          1           0       -8.761658    0.624638    0.230792
     77          1           0        8.979298    4.188304    0.520825
     78          1           0        7.449773    4.307155   -0.498358
     79          1           0        7.673489    4.025148    1.450807
     80          1           0       -8.097527   -3.189369   -0.010389
     81          1           0       -7.978842   -3.038776   -1.886864
     82          1           0       -6.563243   -3.079351   -0.977205
     83          1           0        6.700409    0.537213    0.212280
     84          1           0       -6.384690    0.407135   -0.130488
     85          1           0        5.504830    3.267979    0.325087
     86          1           0       -5.053478   -2.303962   -0.755470
     87          1           0        4.680248    0.161002   -0.385303
     88          1           0       -4.100755    0.609269   -0.037730
     89          1           0        3.039248    3.422107    1.573203
     90          1           0        1.862032    3.512439    0.041749
     91          1           0        3.322001    3.912196   -0.496826
     92          1           0       -2.449083   -2.845965    0.092819
     93          1           0       -2.876230   -2.439325   -1.814703
     94          1           0       -1.326360   -2.345688   -1.406385
     95          1           0        2.631599   -0.131069   -0.369677
     96          1           0       -2.013822    1.025315   -0.002530
     97          1           0        0.467750    1.909488    0.232704
     98          1           0       -0.030156   -0.885600   -0.946750
 ---------------------------------------------------------------------

 SCF Done:  E(RCAM-B3LYP) =  -1706.86617783     A.U. after   16 cycles

 Excitation energies and oscillator strengths:

 Excited State   1:      Singlet-A      1.8885 eV  656.53 nm  f=3.6065  <S**2>=0.000
     155 ->158        -0.13237
     156 ->157         0.70110
     156 <-157        -0.12069
 This state for optimization and/or second-order correction.
 Total Energy, E(TD-HF/TD-DFT) =  -1706.79677734
 Copying the excited state density for this state as the 1-particle RhoCI density.

 The electronic state is 1-A.
 Alpha  occ. eigenvalues --  -19.21841 -19.21241 -10.30339 -10.30099 -10.28365
 Alpha  occ. eigenvalues --  -10.27769 -10.27665 -10.27629 -10.27539 -10.27465
 Alpha  occ. eigenvalues --  -10.27452 -10.27354 -10.27225 -10.27161 -10.27127
 Alpha  occ. eigenvalues --  -10.27102 -10.27056 -10.26988 -10.26944 -10.26764
 Alpha  occ. eigenvalues --  -10.26413 -10.26148 -10.26033 -10.26001 -10.25988
 Alpha  occ. eigenvalues --  -10.25933 -10.25917 -10.25905 -10.25666 -10.25560
 Alpha  occ. eigenvalues --  -10.25534 -10.25473 -10.25152 -10.25056 -10.25005
 Alpha  occ. eigenvalues --  -10.25002 -10.24999 -10.24811 -10.24771 -10.24727
 Alpha  occ. eigenvalues --  -10.24474 -10.24120  -1.07145  -1.07124  -0.93778
 Alpha  occ. eigenvalues --   -0.93668  -0.92439  -0.91208  -0.90427  -0.89153
 Alpha  occ. eigenvalues --   -0.87494  -0.86962  -0.86203  -0.85842  -0.84642
 Alpha  occ. eigenvalues --   -0.83097  -0.81543  -0.79884  -0.79586  -0.78395
 Alpha  occ. eigenvalues --   -0.76510  -0.76437  -0.75902  -0.75485  -0.75310
 Alpha  occ. eigenvalues --   -0.75205  -0.74956  -0.74798  -0.73029  -0.70818
 Alpha  occ. eigenvalues --   -0.68819  -0.67008  -0.65520  -0.64749  -0.63922
 Alpha  occ. eigenvalues --   -0.63531  -0.62200  -0.62173  -0.61204  -0.60147
 Alpha  occ. eigenvalues --   -0.59325  -0.58137  -0.57729  -0.57501  -0.56197
 Alpha  occ. eigenvalues --   -0.55528  -0.54947  -0.54317  -0.54220  -0.53626
 Alpha  occ. eigenvalues --   -0.53241  -0.52676  -0.51898  -0.51177  -0.50622
 Alpha  occ. eigenvalues --   -0.50273  -0.49584  -0.49136  -0.48980  -0.48801
 Alpha  occ. eigenvalues --   -0.48612  -0.48381  -0.47868  -0.47736  -0.47654
 Alpha  occ. eigenvalues --   -0.47423  -0.46951  -0.46878  -0.46774  -0.46186
 Alpha  occ. eigenvalues --   -0.45919  -0.45266  -0.45159  -0.44999  -0.44788
 Alpha  occ. eigenvalues --   -0.44410  -0.44253  -0.43956  -0.43237  -0.42963
 Alpha  occ. eigenvalues --   -0.42698  -0.42177  -0.41765  -0.41648  -0.41496
 Alpha  occ. eigenvalues --   -0.41238  -0.41124  -0.40871  -0.40510  -0.40257
 Alpha  occ. eigenvalues --   -0.40065  -0.40007  -0.39767  -0.39129  -0.38980
 Alpha  occ. eigenvalues --   -0.38811  -0.38720  -0.38329  -0.38284  -0.37802
 Alpha  occ. eigenvalues --   -0.37349  -0.37033  -0.36836  -0.36198  -0.36025
 Alpha  occ. eigenvalues --   -0.35533  -0.34481  -0.33179  -0.32261  -0.31907
 Alpha  occ. eigenvalues --   -0.31843  -0.30039  -0.28185  -0.26283  -0.23418
 Alpha  occ. eigenvalues --   -0.18085
 Alpha virt. eigenvalues --   -0.06706  -0.00863   0.02863   0.05936   0.07996
 Alpha virt. eigenvalues --    0.09107   0.09429   0.10057   0.10941   0.11920
 Alpha virt. eigenvalues --    0.12059   0.12550   0.12577   0.12775   0.13171

 Mulliken charges:
               1
     1  O   -0.584776
     2  O   -0.574812
     3  C   -0.010552
     4  C   -0.004250
     5  C   -0.177655
     6  C   -0.178484
     7  C    0.185229
     8  C    0.192355
     9  C    0.070378
    10  C    0.073087
    11  C   -0.207918
    12  C   -0.210644
    13  C    0.047814
    14  C    0.038624
    15  C   -0.292163
    16  C   -0.290146
    17  C   -0.293576
    18  C   -0.317780
    19  C   -0.107075
    20  C   -0.145465
    21  C   -0.374143
    22  C   -0.370468
    23  C   -0.117228
    24  C   -0.074022
    25  C    0.006222
    26  C    0.089468
    27  C   -0.327012
    28  C   -0.366175
    29  C   -0.090765
    30  C   -0.096781
    31  C   -0.075133
    32  C   -0.100603
    33  C   -0.131714
    34  C   -0.112831
    35  C    0.079788
    36  C    0.121974
    37  C   -0.350556
    38  C   -0.366504
    39  C   -0.086974
    40  C   -0.073385
    41  C   -0.053043
    42  C   -0.097359
    43  H    0.082492
    44  H    0.075009
    45  H    0.049477
    46  H    0.118528
    47  H    0.068984
    48  H    0.072020
    49  H    0.119820
    50  H    0.106420
    51  H    0.135776
    52  H    0.100163
    53  H    0.096817
    54  H    0.101931
    55  H    0.102126
    56  H    0.075785
    57  H    0.111131
    58  H    0.095180
    59  H    0.085955
    60  H    0.124264
    61  H    0.088183
    62  H    0.098495
    63  H    0.089728
    64  H    0.097636
    65  H    0.094218
    66  H    0.098443
    67  H    0.130065
    68  H    0.111346
    69  H    0.104257
    70  H    0.085168
    71  H    0.102659
    72  H    0.119382
    73  H    0.312181
    74  H    0.293717
    75  H    0.087391
    76  H    0.084221
    77  H    0.110226
    78  H    0.112288
    79  H    0.134928
    80  H    0.129708
    81  H    0.105726
    82  H    0.097959
    83  H    0.078744
    84  H    0.066438
    85  H    0.094777
    86  H    0.084426
    87  H    0.061408
    88  H    0.078345
    89  H    0.109453
    90  H    0.124141
    91  H    0.081121
    92  H    0.092377
    93  H    0.121703
    94  H    0.108411
    95  H    0.070093
    96  H    0.048066
    97  H    0.057906
    98  H    0.067844
 Sum of Mulliken charges =  -0.00000

 Dipole moment (field-independent basis, Debye):
    X=              0.6814    Y=             -2.0791    Z=              0.5665  Tot=              2.2601
 Quadrupole moment (field-independent basis, Debye-Ang):
   XX=           -271.9631   YY=           -239.9640   ZZ=           -261.2559
   XY=             11.8645   XZ=             -8.3897   YZ=              2.6933

 Normal termination of Gaussian 16 at Thu Jul 18 11:47:38 2019.
