 Gaussian 16, Revision A.03,
 Gaussian 16:  ES64L-G16RevA.03 25-Dec-2016

 -------------------------------------
 # td=(NStates=1) CAM-B3LYP/6-31G(d,p)
 -------------------------------------

 --
 TD
 --
 Symbolic Z-matrix:
 Charge =  0 Multiplicity = 1

                         Standard orientation:
 ---------------------------------------------------------------------
 Center     Atomic      Atomic             Coordinates (Angstroms)
 Number     Number       Type             X           Y           Z
 ---------------------------------------------------------------------
      1          8           0       14.613462   -2.382719   -0.279105
      2          8           0      -14.712758    2.058946    0.920808
      3          6           0       11.164959   -1.374393    0.897179
      4          6           0      -12.368439   -0.965414    0.648662
      5          6           0       12.694157   -1.814212    1.037688
      6          6           0      -13.593665   -0.260314    0.763465
      7          6           0       13.272998   -1.907199   -0.306741
      8          6           0      -13.409307    1.341563    0.763435
      9          6           0       10.978241   -0.257183   -0.111342
     10          6           0      -11.339033   -0.310915   -0.167348
     11          6           0       13.270135   -0.527906   -0.980987
     12          6           0      -12.653877    1.855847   -0.468694
     13          6           0       12.032417    0.132222   -0.875732
     14          6           0      -11.448451    0.889879   -0.760358
     15          6           0       10.763993   -0.961856    2.430104
     16          6           0       10.320013   -2.591303    0.517570
     17          6           0      -11.816004   -1.159825    2.035929
     18          6           0      -12.746655   -2.389742    0.066926
     19          6           0        9.715068    0.429366   -0.013230
     20          6           0      -10.032118   -1.013095   -0.362490
     21          6           0       11.799484    1.324492   -1.836018
     22          6           0      -10.550731    1.567534   -1.668773
     23          6           0        9.264819    1.761002   -0.100861
     24          6           0       -8.791652   -0.424897   -0.151616
     25          6           0        7.988875    2.268965    0.098986
     26          6           0       -7.588466   -1.292199   -0.576578
     27          6           0        7.864439    3.740484    0.351210
     28          6           0       -7.657516   -2.679267   -1.046634
     29          6           0        6.831054    1.452430    0.020188
     30          6           0       -6.332947   -0.572746   -0.387783
     31          6           0        5.568489    1.929834    0.263295
     32          6           0       -5.125527   -1.056496   -0.618949
     33          6           0        4.414059    1.167479    0.134108
     34          6           0       -3.934144   -0.272987   -0.375141
     35          6           0        3.087715    1.661639    0.369437
     36          6           0       -2.652403   -0.788963   -0.553378
     37          6           0        2.903450    3.041970    0.841679
     38          6           0       -2.428720   -2.147971   -0.834816
     39          6           0        2.069651    0.833260    0.082205
     40          6           0       -1.600147    0.111717   -0.310527
     41          6           0        0.673709    0.915909    0.095996
     42          6           0       -0.207302   -0.114071   -0.324794
     43          1           0       13.396224   -1.322149    1.900286
     44          1           0       12.721169   -2.773673    1.613878
     45          1           0      -14.140308   -0.762770    1.527171
     46          1           0      -14.060496   -0.447217   -0.255230
     47          1           0       12.674997   -2.636768   -0.902790
     48          1           0      -12.805236    1.636447    1.616334
     49          1           0       14.324428   -0.195841   -0.460444
     50          1           0       13.821533   -0.887870   -2.046715
     51          1           0      -13.429475    1.682586   -1.320516
     52          1           0      -12.422627    2.794440   -0.125724
     53          1           0       11.011654   -1.864430    3.054092
     54          1           0        9.829599   -0.710612    2.491162
     55          1           0       11.398045   -0.030027    2.670083
     56          1           0       10.352060   -2.851041   -0.669495
     57          1           0       10.530245   -3.381323    1.243835
     58          1           0        9.119912   -2.371825    0.551050
     59          1           0      -11.512482   -0.385886    2.536311
     60          1           0      -10.801206   -1.708083    2.022926
     61          1           0      -12.461807   -1.674009    2.736238
     62          1           0      -13.636971   -2.794466    0.621423
     63          1           0      -11.956440   -3.142956    0.387555
     64          1           0      -12.875789   -2.284748   -1.138473
     65          1           0        8.983971   -0.381383    0.466896
     66          1           0      -10.157799   -2.066803   -0.384697
     67          1           0       10.757639    1.285007   -2.356576
     68          1           0       12.064945    2.269087   -1.444028
     69          1           0       12.635695    1.315223   -2.621320
     70          1           0      -10.957012    2.060102   -2.468451
     71          1           0       -9.689377    0.969415   -2.031591
     72          1           0       -9.990618    2.310052   -1.074551
     73          1           0       14.428000   -3.235876    0.080650
     74          1           0      -15.161016    1.456456    1.619298
     75          1           0       10.138762    2.344490   -0.364947
     76          1           0       -8.438585    0.503387    0.208127
     77          1           0        8.903341    4.389181   -0.057825
     78          1           0        7.134872    4.355146   -0.258529
     79          1           0        7.772302    3.890408    1.477679
     80          1           0       -8.105515   -3.293246   -0.175578
     81          1           0       -8.345494   -2.728701   -1.864719
     82          1           0       -6.665518   -3.048019   -1.204636
     83          1           0        7.053043    0.465906   -0.328267
     84          1           0       -6.399660    0.577161   -0.232598
     85          1           0        5.525485    2.807782    0.505338
     86          1           0       -4.805245   -2.042122   -0.861709
     87          1           0        4.731844    0.130453   -0.283188
     88          1           0       -4.165742    0.820870   -0.103338
     89          1           0        4.033542    3.342333    1.480484
     90          1           0        1.873703    3.203459    1.314275
     91          1           0        2.719767    3.694134   -0.324713
     92          1           0       -3.170693   -2.755170   -0.231700
     93          1           0       -2.873836   -2.408938   -1.886004
     94          1           0       -1.444856   -2.500877   -0.723255
     95          1           0        2.488536   -0.134693   -0.348321
     96          1           0       -1.924423    1.178417    0.145613
     97          1           0        0.279367    1.794181    0.483498
     98          1           0        0.084176   -1.120247   -0.849537
 ---------------------------------------------------------------------

 SCF Done:  E(RCAM-B3LYP) =  -1706.88624407     A.U. after   16 cycles

 Excitation energies and oscillator strengths:

 Excited State   1:      Singlet-A      1.8638 eV  665.22 nm  f=3.9129  <S**2>=0.000
     155 ->158        -0.15776
     156 ->157         0.69154
 This state for optimization and/or second-order correction.
 Total Energy, E(TD-HF/TD-DFT) =  -1706.81775089
 Copying the excited state density for this state as the 1-particle RhoCI density.

 The electronic state is 1-A.
 Alpha  occ. eigenvalues --  -19.21094 -19.21074 -10.30540 -10.30231 -10.29849
 Alpha  occ. eigenvalues --  -10.28418 -10.28240 -10.28074 -10.27903 -10.27324
 Alpha  occ. eigenvalues --  -10.27225 -10.27199 -10.27199 -10.27143 -10.27084
 Alpha  occ. eigenvalues --  -10.27060 -10.27008 -10.26956 -10.26933 -10.26821
 Alpha  occ. eigenvalues --  -10.26668 -10.26637 -10.26611 -10.26610 -10.26588
 Alpha  occ. eigenvalues --  -10.26400 -10.26298 -10.26295 -10.26216 -10.26192
 Alpha  occ. eigenvalues --  -10.26174 -10.25655 -10.25610 -10.25609 -10.25493
 Alpha  occ. eigenvalues --  -10.25488 -10.25419 -10.25028 -10.24640 -10.23878
 Alpha  occ. eigenvalues --  -10.23858 -10.23411  -1.10711  -1.05935  -0.95108
 Alpha  occ. eigenvalues --   -0.93884  -0.92943  -0.92411  -0.90712  -0.90232
 Alpha  occ. eigenvalues --   -0.88435  -0.87212  -0.86553  -0.85774  -0.84867
 Alpha  occ. eigenvalues --   -0.83432  -0.82741  -0.80122  -0.79314  -0.78343
 Alpha  occ. eigenvalues --   -0.77453  -0.77387  -0.76367  -0.76121  -0.75507
 Alpha  occ. eigenvalues --   -0.75288  -0.74948  -0.74718  -0.73070  -0.70883
 Alpha  occ. eigenvalues --   -0.69231  -0.67295  -0.65647  -0.65086  -0.64515
 Alpha  occ. eigenvalues --   -0.63735  -0.63635  -0.61594  -0.60940  -0.60726
 Alpha  occ. eigenvalues --   -0.59536  -0.59189  -0.57797  -0.57344  -0.56664
 Alpha  occ. eigenvalues --   -0.55477  -0.55058  -0.54766  -0.54024  -0.53637
 Alpha  occ. eigenvalues --   -0.53086  -0.52772  -0.52362  -0.51494  -0.51420
 Alpha  occ. eigenvalues --   -0.50687  -0.50092  -0.49732  -0.49415  -0.49282
 Alpha  occ. eigenvalues --   -0.48998  -0.48911  -0.48795  -0.48588  -0.48179
 Alpha  occ. eigenvalues --   -0.47972  -0.47202  -0.47069  -0.46801  -0.46490
 Alpha  occ. eigenvalues --   -0.46436  -0.46205  -0.45964  -0.45640  -0.45323
 Alpha  occ. eigenvalues --   -0.45164  -0.45010  -0.44387  -0.44199  -0.43575
 Alpha  occ. eigenvalues --   -0.43236  -0.43011  -0.42883  -0.42387  -0.41690
 Alpha  occ. eigenvalues --   -0.41484  -0.41162  -0.41063  -0.40539  -0.40382
 Alpha  occ. eigenvalues --   -0.40042  -0.40006  -0.39541  -0.39377  -0.39254
 Alpha  occ. eigenvalues --   -0.39026  -0.38905  -0.38600  -0.38225  -0.38097
 Alpha  occ. eigenvalues --   -0.38051  -0.37834  -0.36562  -0.36459  -0.35800
 Alpha  occ. eigenvalues --   -0.35328  -0.34363  -0.33822  -0.32565  -0.31981
 Alpha  occ. eigenvalues --   -0.31589  -0.29700  -0.28257  -0.26284  -0.22331
 Alpha  occ. eigenvalues --   -0.18351
 Alpha virt. eigenvalues --   -0.06797  -0.02276   0.01856   0.05373   0.07110
 Alpha virt. eigenvalues --    0.09670   0.09977   0.11070   0.11453   0.12027
 Alpha virt. eigenvalues --    0.12112   0.12484   0.12600   0.12808   0.13341

 Mulliken charges:
               1
     1  O   -0.551202
     2  O   -0.574772
     3  C   -0.050163
     4  C   -0.013432
     5  C   -0.182257
     6  C   -0.198144
     7  C    0.142570
     8  C    0.139321
     9  C    0.097853
    10  C    0.088176
    11  C   -0.251728
    12  C   -0.216713
    13  C    0.086622
    14  C    0.031303
    15  C   -0.283104
    16  C   -0.286163
    17  C   -0.302388
    18  C   -0.301921
    19  C   -0.126440
    20  C   -0.163884
    21  C   -0.384322
    22  C   -0.366536
    23  C   -0.113224
    24  C   -0.061613
    25  C    0.090115
    26  C    0.079613
    27  C   -0.373046
    28  C   -0.366162
    29  C   -0.105332
    30  C   -0.140736
    31  C   -0.025334
    32  C   -0.065905
    33  C   -0.118568
    34  C   -0.136206
    35  C    0.135831
    36  C    0.162833
    37  C   -0.340976
    38  C   -0.402481
    39  C   -0.115028
    40  C   -0.130131
    41  C   -0.093761
    42  C   -0.084900
    43  H    0.087803
    44  H    0.071277
    45  H    0.086048
    46  H    0.090599
    47  H    0.086032
    48  H    0.083915
    49  H    0.119008
    50  H    0.099912
    51  H    0.115351
    52  H    0.128590
    53  H    0.091337
    54  H    0.113525
    55  H    0.102524
    56  H    0.095148
    57  H    0.106666
    58  H    0.082168
    59  H    0.117659
    60  H    0.086576
    61  H    0.090689
    62  H    0.102066
    63  H    0.096331
    64  H    0.097832
    65  H    0.058906
    66  H    0.090214
    67  H    0.123528
    68  H    0.129339
    69  H    0.090838
    70  H    0.121010
    71  H    0.113078
    72  H    0.111361
    73  H    0.302345
    74  H    0.307878
    75  H    0.090944
    76  H    0.096238
    77  H    0.073984
    78  H    0.125850
    79  H    0.127450
    80  H    0.114099
    81  H    0.136663
    82  H    0.118862
    83  H    0.081076
    84  H    0.077488
    85  H    0.037938
    86  H    0.069117
    87  H    0.083735
    88  H    0.077942
    89  H    0.093114
    90  H    0.120546
    91  H    0.081998
    92  H    0.126088
    93  H    0.114274
    94  H    0.118338
    95  H    0.069429
    96  H    0.070376
    97  H    0.078261
    98  H    0.088971
 Sum of Mulliken charges =  -0.00000

 Dipole moment (field-independent basis, Debye):
    X=             -1.3942    Y=             -2.5535    Z=              1.2926  Tot=              3.1836
 Quadrupole moment (field-independent basis, Debye-Ang):
   XX=           -307.8702   YY=           -246.5494   ZZ=           -261.7115
   XY=             20.3517   XZ=             -2.8170   YZ=             -0.0571

 Normal termination of Gaussian 16 at Fri Jul 12 22:07:36 2019.
