 Gaussian 16, Revision A.03,
 Gaussian 16:  ES64L-G16RevA.03 25-Dec-2016

 -------------------------------------
 # td=(NStates=1) CAM-B3LYP/6-31G(d,p)
 -------------------------------------

 --
 TD
 --
 Symbolic Z-matrix:
 Charge =  0 Multiplicity = 1

                         Standard orientation:
 ---------------------------------------------------------------------
 Center     Atomic      Atomic             Coordinates (Angstroms)
 Number     Number       Type             X           Y           Z
 ---------------------------------------------------------------------
      1          8           0       14.564535   -2.427679   -0.342863
      2          8           0      -14.788229    1.748796    0.868322
      3          6           0       11.093668   -1.573618    0.899766
      4          6           0      -12.468255   -1.126775    0.604087
      5          6           0       12.596406   -1.986623    1.024982
      6          6           0      -13.646267   -0.328717    0.379712
      7          6           0       13.254371   -1.996133   -0.376280
      8          6           0      -13.482073    1.094828    0.873700
      9          6           0       10.882141   -0.328613    0.050624
     10          6           0      -11.243336   -0.264975   -0.061173
     11          6           0       13.172007   -0.599604   -1.014989
     12          6           0      -12.694555    1.822405   -0.159096
     13          6           0       11.799541    0.037071   -0.837920
     14          6           0      -11.430451    0.978749   -0.512754
     15          6           0       10.707832   -1.327991    2.354905
     16          6           0       10.217197   -2.727946    0.292487
     17          6           0      -11.860406   -1.464684    2.033634
     18          6           0      -12.497066   -2.479743   -0.276535
     19          6           0        9.553935    0.330365    0.308431
     20          6           0      -10.058176   -1.028235   -0.442175
     21          6           0       11.577824    1.264055   -1.771136
     22          6           0      -10.588756    1.727653   -1.372309
     23          6           0        9.398891    1.651021    0.227947
     24          6           0       -8.729815   -0.561838   -0.234190
     25          6           0        8.095307    2.355933    0.249788
     26          6           0       -7.527539   -1.194553   -0.439482
     27          6           0        7.948508    3.826673    0.543942
     28          6           0       -7.581724   -2.697784   -0.839922
     29          6           0        6.867388    1.561569    0.127356
     30          6           0       -6.331205   -0.456868   -0.371392
     31          6           0        5.677007    2.117551    0.244209
     32          6           0       -4.974320   -0.980945   -0.519371
     33          6           0        4.493400    1.402523   -0.129879
     34          6           0       -3.926090   -0.190077   -0.315708
     35          6           0        3.141408    1.837084    0.094909
     36          6           0       -2.524942   -0.586418   -0.521998
     37          6           0        2.906399    3.235591    0.423078
     38          6           0       -2.299747   -2.023556   -0.931249
     39          6           0        2.172915    0.880453   -0.131352
     40          6           0       -1.543864    0.344068   -0.205202
     41          6           0        0.799295    1.044980   -0.062718
     42          6           0       -0.148003    0.108770   -0.196591
     43          1           0       13.266134   -1.434036    1.642971
     44          1           0       12.615961   -2.909614    1.434402
     45          1           0      -14.504917   -0.553543    1.101655
     46          1           0      -13.937228   -0.331292   -0.704481
     47          1           0       12.627185   -2.686395   -1.040100
     48          1           0      -13.051602    1.164110    1.953470
     49          1           0       14.014907   -0.125258   -0.272211
     50          1           0       13.593158   -0.578849   -2.031686
     51          1           0      -13.327253    1.839458   -1.056622
     52          1           0      -12.258109    2.691774    0.457721
     53          1           0       10.966366   -2.126960    3.059228
     54          1           0        9.614338   -1.043573    2.381526
     55          1           0       11.204001   -0.420448    2.760572
     56          1           0       10.775299   -2.972915   -0.679547
     57          1           0       10.066602   -3.509670    0.911006
     58          1           0        9.177983   -2.340471    0.102528
     59          1           0      -11.758546   -0.492883    2.486109
     60          1           0      -10.881790   -1.992036    2.157077
     61          1           0      -12.612659   -2.271045    2.540845
     62          1           0      -13.294547   -2.960218   -0.105405
     63          1           0      -11.728345   -3.202912    0.137088
     64          1           0      -12.455222   -2.111222   -1.357695
     65          1           0        8.743113   -0.210037    0.634818
     66          1           0      -10.113860   -2.091746   -0.478431
     67          1           0       10.447867    1.221248   -1.882726
     68          1           0       11.783420    2.459739   -1.430463
     69          1           0       11.922600    1.039584   -2.767988
     70          1           0      -11.102271    2.197130   -2.152438
     71          1           0       -9.582090    1.233534   -1.784061
     72          1           0      -10.127230    2.566757   -0.677643
     73          1           0       14.417608   -3.325068    0.022976
     74          1           0      -15.363304    1.460606    1.485591
     75          1           0       10.152937    2.493701    0.109764
     76          1           0       -8.649675    0.401545    0.224782
     77          1           0        8.953897    4.230688    0.803300
     78          1           0        7.641112    4.548097   -0.337174
     79          1           0        7.281171    4.147272    1.645345
     80          1           0       -7.980489   -3.224687    0.136493
     81          1           0       -8.466680   -2.599031   -1.635537
     82          1           0       -6.596847   -3.041305   -1.488674
     83          1           0        6.820332    0.587029   -0.147736
     84          1           0       -6.411501    0.860992   -0.529795
     85          1           0        5.591168    3.090139    0.735433
     86          1           0       -4.846408   -2.218624   -0.600457
     87          1           0        4.728823    0.594587   -0.696062
     88          1           0       -4.117492    0.974408   -0.213624
     89          1           0        3.515858    3.607240    1.242641
     90          1           0        1.916596    3.428479    0.662358
     91          1           0        2.972940    3.887510   -0.639822
     92          1           0       -2.553493   -2.750028   -0.170135
     93          1           0       -2.695034   -2.063768   -1.897337
     94          1           0       -1.178973   -2.223223   -0.950318
     95          1           0        2.622357   -0.226739   -0.398732
     96          1           0       -1.688469    1.354938   -0.016535
     97          1           0        0.567167    1.925166   -0.105167
     98          1           0        0.279577   -0.710947   -0.845576
 ---------------------------------------------------------------------

 SCF Done:  E(RCAM-B3LYP) =  -1706.87848147     A.U. after   15 cycles

 Excitation energies and oscillator strengths:

 Excited State   1:      Singlet-A      2.1459 eV  577.76 nm  f=3.5414  <S**2>=0.000
     155 ->158         0.17059
     156 ->157         0.68441
 This state for optimization and/or second-order correction.
 Total Energy, E(TD-HF/TD-DFT) =  -1706.79961998
 Copying the excited state density for this state as the 1-particle RhoCI density.

 The electronic state is 1-A.
 Alpha  occ. eigenvalues --  -19.21678 -19.19788 -10.30825 -10.30062 -10.28695
 Alpha  occ. eigenvalues --  -10.28664 -10.28508 -10.28174 -10.28021 -10.27868
 Alpha  occ. eigenvalues --  -10.27489 -10.27339 -10.27159 -10.27095 -10.26835
 Alpha  occ. eigenvalues --  -10.26758 -10.26738 -10.26616 -10.26427 -10.26385
 Alpha  occ. eigenvalues --  -10.26191 -10.25905 -10.25862 -10.25828 -10.25767
 Alpha  occ. eigenvalues --  -10.25723 -10.25702 -10.25653 -10.25624 -10.25578
 Alpha  occ. eigenvalues --  -10.25573 -10.25535 -10.25321 -10.25180 -10.25144
 Alpha  occ. eigenvalues --  -10.25107 -10.24766 -10.24766 -10.24432 -10.24312
 Alpha  occ. eigenvalues --  -10.23889 -10.23738  -1.11231  -1.09369  -0.93865
 Alpha  occ. eigenvalues --   -0.93349  -0.92705  -0.91415  -0.90517  -0.89742
 Alpha  occ. eigenvalues --   -0.87825  -0.87245  -0.86343  -0.85526  -0.84902
 Alpha  occ. eigenvalues --   -0.83220  -0.82368  -0.79609  -0.79375  -0.78881
 Alpha  occ. eigenvalues --   -0.76520  -0.76414  -0.76388  -0.75953  -0.75223
 Alpha  occ. eigenvalues --   -0.74979  -0.74900  -0.74788  -0.72983  -0.70133
 Alpha  occ. eigenvalues --   -0.68787  -0.67083  -0.65495  -0.64811  -0.63793
 Alpha  occ. eigenvalues --   -0.63289  -0.63011  -0.62353  -0.61586  -0.59615
 Alpha  occ. eigenvalues --   -0.59172  -0.58899  -0.57991  -0.57262  -0.55929
 Alpha  occ. eigenvalues --   -0.55604  -0.55165  -0.55033  -0.54189  -0.53606
 Alpha  occ. eigenvalues --   -0.52710  -0.52540  -0.51884  -0.51359  -0.51040
 Alpha  occ. eigenvalues --   -0.50756  -0.49936  -0.49833  -0.49321  -0.49265
 Alpha  occ. eigenvalues --   -0.49080  -0.48982  -0.48480  -0.48345  -0.47728
 Alpha  occ. eigenvalues --   -0.47296  -0.47085  -0.46816  -0.46537  -0.46137
 Alpha  occ. eigenvalues --   -0.45942  -0.45788  -0.45517  -0.45175  -0.44893
 Alpha  occ. eigenvalues --   -0.44585  -0.44373  -0.43911  -0.43880  -0.43281
 Alpha  occ. eigenvalues --   -0.43105  -0.42990  -0.42498  -0.42428  -0.42185
 Alpha  occ. eigenvalues --   -0.41869  -0.41659  -0.41246  -0.41003  -0.40879
 Alpha  occ. eigenvalues --   -0.40310  -0.40113  -0.39433  -0.39360  -0.39103
 Alpha  occ. eigenvalues --   -0.38966  -0.38330  -0.38320  -0.37908  -0.37750
 Alpha  occ. eigenvalues --   -0.37505  -0.37053  -0.36378  -0.36307  -0.35593
 Alpha  occ. eigenvalues --   -0.34790  -0.33746  -0.33574  -0.32585  -0.31835
 Alpha  occ. eigenvalues --   -0.31023  -0.29743  -0.28546  -0.26021  -0.22502
 Alpha  occ. eigenvalues --   -0.19398
 Alpha virt. eigenvalues --   -0.05959  -0.01976   0.01990   0.05716   0.07776
 Alpha virt. eigenvalues --    0.09490   0.10158   0.10633   0.11878   0.12104
 Alpha virt. eigenvalues --    0.12266   0.12465   0.12785   0.13136   0.13677

 Mulliken charges:
               1
     1  O   -0.540934
     2  O   -0.566277
     3  C   -0.038670
     4  C    0.016998
     5  C   -0.184286
     6  C   -0.177094
     7  C    0.141785
     8  C    0.145916
     9  C    0.106799
    10  C    0.026403
    11  C   -0.207688
    12  C   -0.194471
    13  C    0.031821
    14  C    0.044326
    15  C   -0.303947
    16  C   -0.297397
    17  C   -0.299527
    18  C   -0.301154
    19  C   -0.129869
    20  C   -0.139881
    21  C   -0.358474
    22  C   -0.351370
    23  C   -0.068149
    24  C   -0.103980
    25  C    0.048155
    26  C    0.095262
    27  C   -0.362563
    28  C   -0.358558
    29  C   -0.090572
    30  C   -0.134157
    31  C   -0.059958
    32  C   -0.089778
    33  C   -0.133951
    34  C   -0.088793
    35  C    0.119598
    36  C    0.068878
    37  C   -0.364520
    38  C   -0.370594
    39  C   -0.126680
    40  C   -0.108642
    41  C   -0.050696
    42  C   -0.096294
    43  H    0.107493
    44  H    0.083004
    45  H    0.065668
    46  H    0.109014
    47  H    0.054963
    48  H    0.081590
    49  H    0.097697
    50  H    0.110333
    51  H    0.131338
    52  H    0.111680
    53  H    0.097362
    54  H    0.085194
    55  H    0.105973
    56  H    0.099349
    57  H    0.110435
    58  H    0.096456
    59  H    0.108931
    60  H    0.117975
    61  H    0.068908
    62  H    0.107530
    63  H    0.093930
    64  H    0.105295
    65  H    0.098646
    66  H    0.085456
    67  H    0.119330
    68  H    0.089045
    69  H    0.103894
    70  H    0.116869
    71  H    0.106215
    72  H    0.092818
    73  H    0.308211
    74  H    0.288422
    75  H    0.084942
    76  H    0.086972
    77  H    0.106550
    78  H    0.120019
    79  H    0.084495
    80  H    0.121565
    81  H    0.118808
    82  H    0.104169
    83  H    0.075080
    84  H    0.060945
    85  H    0.077466
    86  H    0.087085
    87  H    0.081997
    88  H    0.078776
    89  H    0.126325
    90  H    0.119305
    91  H    0.101688
    92  H    0.132846
    93  H    0.138790
    94  H    0.101830
    95  H    0.062804
    96  H    0.081200
    97  H    0.055699
    98  H    0.084602
 Sum of Mulliken charges =  -0.00000

 Dipole moment (field-independent basis, Debye):
    X=             -1.6073    Y=             -1.4366    Z=              1.0289  Tot=              2.3887
 Quadrupole moment (field-independent basis, Debye-Ang):
   XX=           -289.8765   YY=           -242.9761   ZZ=           -260.6772
   XY=              8.5901   XZ=             -2.4998   YZ=             -0.0118

 Normal termination of Gaussian 16 at Sat Jul 13 16:59:29 2019.
