 Gaussian 16, Revision A.03,
 Gaussian 16:  ES64L-G16RevA.03 25-Dec-2016

 -------------------------------------
 # td=(NStates=1) CAM-B3LYP/6-31G(d,p)
 -------------------------------------

 --
 TD
 --
 Symbolic Z-matrix:
 Charge =  0 Multiplicity = 1

                         Standard orientation:
 ---------------------------------------------------------------------
 Center     Atomic      Atomic             Coordinates (Angstroms)
 Number     Number       Type             X           Y           Z
 ---------------------------------------------------------------------
      1          8           0       14.869153   -1.991523    0.062403
      2          8           0      -14.682409    1.845328    1.327128
      3          6           0       11.223745   -1.391630    0.969778
      4          6           0      -12.371767   -1.153270    0.503455
      5          6           0       12.655914   -1.645277    1.156339
      6          6           0      -13.641944   -0.351090    0.627824
      7          6           0       13.447031   -1.851426   -0.192270
      8          6           0      -13.480671    1.168076    1.080606
      9          6           0       10.911875   -0.272247   -0.041958
     10          6           0      -11.327659   -0.218054   -0.201930
     11          6           0       13.278151   -0.468423   -0.959764
     12          6           0      -12.744533    1.827931    0.032662
     13          6           0       11.856771    0.145935   -0.876881
     14          6           0      -11.530631    1.132361   -0.499471
     15          6           0       10.697905   -0.974325    2.430346
     16          6           0       10.418718   -2.638208    0.612736
     17          6           0      -11.647990   -1.517690    1.803534
     18          6           0      -12.623521   -2.361980   -0.379422
     19          6           0        9.673798    0.379647    0.082657
     20          6           0      -10.071145   -0.883379   -0.430978
     21          6           0       11.687006    1.034094   -2.004852
     22          6           0      -10.624307    2.035810   -1.185691
     23          6           0        9.416922    1.676687   -0.126511
     24          6           0       -8.821951   -0.393062   -0.346292
     25          6           0        8.064623    2.197989    0.030563
     26          6           0       -7.621964   -1.146286   -0.679005
     27          6           0        7.849111    3.701989    0.344262
     28          6           0       -7.704766   -2.526255   -1.193018
     29          6           0        6.937041    1.501055   -0.104414
     30          6           0       -6.454385   -0.522115   -0.314082
     31          6           0        5.667408    1.885923    0.103764
     32          6           0       -5.120570   -1.018947   -0.591504
     33          6           0        4.521741    1.156275   -0.140803
     34          6           0       -3.986201   -0.277140   -0.358365
     35          6           0        3.124066    1.572825    0.102316
     36          6           0       -2.681622   -0.755139   -0.489770
     37          6           0        2.744228    2.922980    0.600444
     38          6           0       -2.398330   -2.150969   -0.997550
     39          6           0        2.017137    0.625547   -0.187399
     40          6           0       -1.625776    0.124673   -0.216299
     41          6           0        0.709337    0.882244   -0.075740
     42          6           0       -0.253126   -0.121499   -0.390163
     43          1           0       13.196907   -0.791253    1.586183
     44          1           0       12.960687   -2.531700    1.797168
     45          1           0      -14.176466   -0.924942    1.548389
     46          1           0      -14.133773   -0.178926   -0.353819
     47          1           0       12.940041   -2.781805   -0.720177
     48          1           0      -12.902548    1.046139    1.852909
     49          1           0       14.126678    0.141714   -0.387502
     50          1           0       13.606269   -0.720879   -1.994823
     51          1           0      -13.158664    1.873756   -1.080472
     52          1           0      -12.618982    2.982822    0.185130
     53          1           0       11.038346   -1.894022    3.063340
     54          1           0        9.606602   -0.829158    2.412455
     55          1           0       11.087038   -0.163094    2.759884
     56          1           0       11.089703   -3.159042   -0.198800
     57          1           0       10.280372   -3.277578    1.534857
     58          1           0        9.313344   -2.440349    0.133592
     59          1           0      -11.453400   -0.752167    2.679295
     60          1           0      -10.760911   -2.185062    1.577834
     61          1           0      -12.145016   -2.160179    2.495181
     62          1           0      -13.364018   -3.023611    0.269896
     63          1           0      -11.681108   -3.241899   -0.638486
     64          1           0      -13.225231   -1.876319   -1.234950
     65          1           0        8.828496   -0.272881    0.548271
     66          1           0      -10.300402   -2.009201   -0.775763
     67          1           0       10.501687    1.188973   -2.072957
     68          1           0       12.208549    1.900966   -1.510428
     69          1           0       12.167208    0.814626   -2.932889
     70          1           0      -11.143666    2.701873   -1.971318
     71          1           0       -9.737955    1.629381   -1.674948
     72          1           0      -10.111364    2.846008   -0.718982
     73          1           0       15.157328   -2.775490    0.752125
     74          1           0      -15.254802    1.414118    1.882586
     75          1           0       10.197353    2.426736   -0.441757
     76          1           0       -8.735973    0.778058    0.108271
     77          1           0        8.851827    4.225587    0.490740
     78          1           0        7.100942    4.031100   -0.483677
     79          1           0        7.324551    3.818286    1.512076
     80          1           0       -8.435099   -3.223049   -0.532331
     81          1           0       -7.991119   -2.317802   -2.197929
     82          1           0       -6.701306   -2.913279   -1.249078
     83          1           0        7.224283    0.494547   -0.249435
     84          1           0       -6.402021    0.432807    0.185316
     85          1           0        5.669374    2.873721    0.467816
     86          1           0       -5.016658   -2.025191   -1.245211
     87          1           0        4.472229   -0.085724   -0.237693
     88          1           0       -4.001908    0.709282    0.186512
     89          1           0        3.074413    3.007094    1.715548
     90          1           0        1.726411    3.206050    0.633859
     91          1           0        3.314879    3.745665   -0.081422
     92          1           0       -2.644074   -3.088836   -0.231378
     93          1           0       -3.033980   -2.346475   -1.805833
     94          1           0       -1.210646   -2.393507   -0.984542
     95          1           0        2.289462   -0.420288   -0.396735
     96          1           0       -1.881303    1.167238    0.128122
     97          1           0        0.336787    1.810688    0.353623
     98          1           0        0.018676   -1.295739   -0.556830
 ---------------------------------------------------------------------

 SCF Done:  E(RCAM-B3LYP) =  -1706.89429958     A.U. after   15 cycles

 Excitation energies and oscillator strengths:

 Excited State   1:      Singlet-A      1.9805 eV  626.01 nm  f=3.7407  <S**2>=0.000
     155 ->158         0.13471
     156 ->157         0.69665
     156 <-157        -0.10296
 This state for optimization and/or second-order correction.
 Total Energy, E(TD-HF/TD-DFT) =  -1706.82151581
 Copying the excited state density for this state as the 1-particle RhoCI density.

 The electronic state is 1-A.
 Alpha  occ. eigenvalues --  -19.22173 -19.21215 -10.31575 -10.29595 -10.28601
 Alpha  occ. eigenvalues --  -10.28355 -10.28249 -10.28061 -10.27918 -10.27617
 Alpha  occ. eigenvalues --  -10.27339 -10.27230 -10.27173 -10.27146 -10.27120
 Alpha  occ. eigenvalues --  -10.27033 -10.26795 -10.26792 -10.26726 -10.26684
 Alpha  occ. eigenvalues --  -10.26643 -10.26470 -10.26460 -10.26342 -10.26284
 Alpha  occ. eigenvalues --  -10.26243 -10.26237 -10.26148 -10.26138 -10.26129
 Alpha  occ. eigenvalues --  -10.26073 -10.25619 -10.25598 -10.25553 -10.25460
 Alpha  occ. eigenvalues --  -10.25275 -10.25194 -10.25173 -10.25095 -10.24821
 Alpha  occ. eigenvalues --  -10.23744 -10.23133  -1.11265  -1.06415  -0.94381
 Alpha  occ. eigenvalues --   -0.94221  -0.91926  -0.91721  -0.90638  -0.89531
 Alpha  occ. eigenvalues --   -0.88086  -0.88075  -0.86685  -0.85656  -0.84818
 Alpha  occ. eigenvalues --   -0.82911  -0.81627  -0.80415  -0.79547  -0.77963
 Alpha  occ. eigenvalues --   -0.76491  -0.76437  -0.76356  -0.75529  -0.75382
 Alpha  occ. eigenvalues --   -0.74914  -0.74527  -0.74487  -0.72557  -0.70709
 Alpha  occ. eigenvalues --   -0.69365  -0.67720  -0.65476  -0.64594  -0.64011
 Alpha  occ. eigenvalues --   -0.63060  -0.62256  -0.60978  -0.60499  -0.59709
 Alpha  occ. eigenvalues --   -0.59042  -0.58401  -0.57545  -0.57193  -0.56801
 Alpha  occ. eigenvalues --   -0.55926  -0.55463  -0.54805  -0.53856  -0.53619
 Alpha  occ. eigenvalues --   -0.53073  -0.52644  -0.52276  -0.51419  -0.51256
 Alpha  occ. eigenvalues --   -0.50245  -0.50115  -0.49753  -0.49330  -0.48977
 Alpha  occ. eigenvalues --   -0.48599  -0.48356  -0.48124  -0.47716  -0.47666
 Alpha  occ. eigenvalues --   -0.47566  -0.47250  -0.47082  -0.46785  -0.46460
 Alpha  occ. eigenvalues --   -0.45527  -0.45296  -0.44810  -0.44667  -0.44289
 Alpha  occ. eigenvalues --   -0.43880  -0.43692  -0.43458  -0.43379  -0.42982
 Alpha  occ. eigenvalues --   -0.42860  -0.42596  -0.42433  -0.42246  -0.41775
 Alpha  occ. eigenvalues --   -0.41422  -0.41096  -0.41033  -0.40466  -0.40446
 Alpha  occ. eigenvalues --   -0.40359  -0.39704  -0.39515  -0.39405  -0.39188
 Alpha  occ. eigenvalues --   -0.39057  -0.38934  -0.38077  -0.37917  -0.37840
 Alpha  occ. eigenvalues --   -0.37520  -0.37418  -0.36963  -0.36215  -0.35451
 Alpha  occ. eigenvalues --   -0.35189  -0.34379  -0.33958  -0.32322  -0.32029
 Alpha  occ. eigenvalues --   -0.31283  -0.29560  -0.27756  -0.25329  -0.23027
 Alpha  occ. eigenvalues --   -0.18337
 Alpha virt. eigenvalues --   -0.06246  -0.00656   0.02275   0.05698   0.07874
 Alpha virt. eigenvalues --    0.09417   0.09907   0.10363   0.10669   0.11698
 Alpha virt. eigenvalues --    0.11948   0.12203   0.13168   0.13258   0.13576

 Mulliken charges:
               1
     1  O   -0.580326
     2  O   -0.549112
     3  C   -0.017600
     4  C    0.001876
     5  C   -0.188288
     6  C   -0.231988
     7  C    0.166880
     8  C    0.212403
     9  C    0.124644
    10  C    0.044762
    11  C   -0.232382
    12  C   -0.228814
    13  C    0.024919
    14  C    0.083446
    15  C   -0.285099
    16  C   -0.283796
    17  C   -0.308323
    18  C   -0.274866
    19  C   -0.134501
    20  C   -0.123388
    21  C   -0.357564
    22  C   -0.392794
    23  C   -0.112731
    24  C   -0.102265
    25  C    0.060379
    26  C    0.085088
    27  C   -0.368571
    28  C   -0.349300
    29  C   -0.058979
    30  C   -0.106806
    31  C   -0.093602
    32  C   -0.107885
    33  C   -0.115552
    34  C   -0.119300
    35  C    0.088654
    36  C    0.135894
    37  C   -0.362829
    38  C   -0.358339
    39  C   -0.117112
    40  C   -0.132135
    41  C   -0.075384
    42  C   -0.088632
    43  H    0.104996
    44  H    0.068105
    45  H    0.062906
    46  H    0.108833
    47  H    0.067321
    48  H    0.094624
    49  H    0.119710
    50  H    0.111961
    51  H    0.102502
    52  H    0.107648
    53  H    0.079775
    54  H    0.095225
    55  H    0.113003
    56  H    0.086101
    57  H    0.100937
    58  H    0.089986
    59  H    0.097313
    60  H    0.113369
    61  H    0.094075
    62  H    0.089758
    63  H    0.084133
    64  H    0.111435
    65  H    0.092573
    66  H    0.061194
    67  H    0.111304
    68  H    0.115150
    69  H    0.119378
    70  H    0.089350
    71  H    0.124777
    72  H    0.125792
    73  H    0.309309
    74  H    0.298522
    75  H    0.103895
    76  H    0.077689
    77  H    0.101649
    78  H    0.127269
    79  H    0.085874
    80  H    0.110107
    81  H    0.137711
    82  H    0.110109
    83  H    0.055129
    84  H    0.082482
    85  H    0.088806
    86  H    0.070861
    87  H    0.073704
    88  H    0.082438
    89  H    0.113622
    90  H    0.118572
    91  H    0.098878
    92  H    0.090204
    93  H    0.131939
    94  H    0.093760
    95  H    0.079954
    96  H    0.076655
    97  H    0.090327
    98  H    0.076619
 Sum of Mulliken charges =  -0.00000

 Dipole moment (field-independent basis, Debye):
    X=             -0.9415    Y=             -1.7283    Z=              2.0209  Tot=              2.8209
 Quadrupole moment (field-independent basis, Debye-Ang):
   XX=           -247.1660   YY=           -247.9639   ZZ=           -261.2380
   XY=              7.9878   XZ=             -0.1856   YZ=             -0.3758

 Normal termination of Gaussian 16 at Sun Jul 14 23:37:23 2019.
