 Gaussian 16, Revision A.03,
 Gaussian 16:  ES64L-G16RevA.03 25-Dec-2016

 -------------------------------------
 # td=(NStates=1) CAM-B3LYP/6-31G(d,p)
 -------------------------------------

 --
 TD
 --
 Symbolic Z-matrix:
 Charge =  0 Multiplicity = 1

                         Standard orientation:
 ---------------------------------------------------------------------
 Center     Atomic      Atomic             Coordinates (Angstroms)
 Number     Number       Type             X           Y           Z
 ---------------------------------------------------------------------
      1          8           0       14.709978   -2.362595   -0.231660
      2          8           0      -14.755410    1.749720    1.166879
      3          6           0       11.239298   -1.447891    1.014716
      4          6           0      -12.388430   -1.139582    0.707717
      5          6           0       12.602247   -1.959355    1.064806
      6          6           0      -13.733470   -0.421590    0.861967
      7          6           0       13.333187   -2.009966   -0.252577
      8          6           0      -13.508028    1.088735    1.127820
      9          6           0       11.019803   -0.254512    0.170537
     10          6           0      -11.360555   -0.240282   -0.148672
     11          6           0       13.231532   -0.637016   -0.927241
     12          6           0      -12.786543    1.746611   -0.055457
     13          6           0       11.907937    0.095295   -0.745133
     14          6           0      -11.538506    1.023332   -0.515473
     15          6           0       10.803119   -1.053646    2.484172
     16          6           0       10.399121   -2.677309    0.580768
     17          6           0      -11.860294   -1.475488    1.965763
     18          6           0      -12.657525   -2.339203   -0.124557
     19          6           0        9.747714    0.407668    0.169390
     20          6           0      -10.105175   -0.873968   -0.395867
     21          6           0       11.638818    1.254053   -1.736905
     22          6           0      -10.601884    1.794930   -1.378503
     23          6           0        9.473703    1.704209    0.121235
     24          6           0       -8.799333   -0.363122   -0.383218
     25          6           0        8.053849    2.285456    0.227487
     26          6           0       -7.546826   -1.124449   -0.696635
     27          6           0        7.953531    3.796068    0.474701
     28          6           0       -7.707192   -2.616052   -0.953803
     29          6           0        6.918486    1.517380   -0.007015
     30          6           0       -6.347596   -0.489047   -0.602220
     31          6           0        5.712511    1.996534    0.143334
     32          6           0       -5.043311   -1.082421   -0.748941
     33          6           0        4.445617    1.244510    0.015049
     34          6           0       -3.942792   -0.268980   -0.454604
     35          6           0        3.122677    1.701821    0.095226
     36          6           0       -2.663313   -0.663931   -0.701036
     37          6           0        2.918675    3.092563    0.492488
     38          6           0       -2.344338   -2.013815   -1.252059
     39          6           0        2.090115    0.744770   -0.216046
     40          6           0       -1.638031    0.360630   -0.595718
     41          6           0        0.673998    0.972530   -0.176115
     42          6           0       -0.264554    0.039078   -0.500272
     43          1           0       13.398977   -1.485355    1.715429
     44          1           0       12.629407   -2.906534    1.447146
     45          1           0      -14.347437   -0.819099    1.714693
     46          1           0      -14.295884   -0.368650   -0.161991
     47          1           0       12.922266   -2.721732   -0.880083
     48          1           0      -12.926726    1.187929    2.049410
     49          1           0       14.171221   -0.106721   -0.399275
     50          1           0       13.546942   -0.554079   -2.004371
     51          1           0      -13.454425    1.686591   -0.977587
     52          1           0      -12.378091    2.845503    0.233748
     53          1           0       11.076187   -1.802951    3.165282
     54          1           0        9.951172   -0.800542    2.616063
     55          1           0       11.421022   -0.148938    2.796162
     56          1           0       10.786136   -2.813158   -0.435814
     57          1           0       10.379940   -3.379363    1.413334
     58          1           0        9.303796   -2.557858    0.243400
     59          1           0      -11.984972   -0.561978    2.671689
     60          1           0      -10.885501   -1.966686    1.969298
     61          1           0      -12.378003   -2.274532    2.401782
     62          1           0      -13.363769   -2.832430    0.408722
     63          1           0      -11.835662   -3.057724   -0.089239
     64          1           0      -12.889061   -2.151903   -1.341989
     65          1           0        8.878719   -0.089540    0.732780
     66          1           0      -10.058673   -2.009751   -0.520673
     67          1           0       10.632700    1.463020   -1.757738
     68          1           0       12.241164    2.290197   -1.418586
     69          1           0       11.931509    1.196750   -2.954278
     70          1           0      -11.235450    2.372965   -2.053639
     71          1           0      -10.034939    1.203283   -1.981567
     72          1           0      -10.109987    2.331949   -0.686284
     73          1           0       14.826990   -3.071244    0.276590
     74          1           0      -14.924423    1.965449    2.331082
     75          1           0       10.420826    2.429755    0.060199
     76          1           0       -8.635744    0.595885   -0.035498
     77          1           0        8.999692    4.205123    0.620964
     78          1           0        7.323658    4.303157   -0.377321
     79          1           0        7.446778    3.679901    1.372308
     80          1           0       -8.312501   -3.042599   -0.196101
     81          1           0       -8.017702   -2.792799   -1.984112
     82          1           0       -6.590594   -2.905128   -0.827926
     83          1           0        6.955552    0.433869   -0.151174
     84          1           0       -6.466920    0.566986   -0.246894
     85          1           0        5.631212    2.924898    0.405417
     86          1           0       -4.945495   -2.047130   -1.065482
     87          1           0        4.627553    0.199781   -0.377127
     88          1           0       -4.227204    0.772769   -0.129575
     89          1           0        3.726822    3.386044    1.261186
     90          1           0        1.874789    3.378823    0.761138
     91          1           0        3.052278    3.793228   -0.496269
     92          1           0       -2.505057   -2.773620   -0.346143
     93          1           0       -3.029818   -2.432427   -1.970761
     94          1           0       -1.352624   -2.173160   -1.645795
     95          1           0        2.432046   -0.160944   -0.578088
     96          1           0       -2.099027    1.105949   -0.123142
     97          1           0        0.192375    2.019725   -0.101599
     98          1           0        0.177962   -0.915264   -0.728101
 ---------------------------------------------------------------------

 SCF Done:  E(RCAM-B3LYP) =  -1706.92355341     A.U. after   15 cycles

 Excitation energies and oscillator strengths:

 Excited State   1:      Singlet-A      1.9318 eV  641.81 nm  f=3.7204  <S**2>=0.000
     155 ->158         0.14297
     156 ->157         0.69621
     156 <-157        -0.10503
 This state for optimization and/or second-order correction.
 Total Energy, E(TD-HF/TD-DFT) =  -1706.85256195
 Copying the excited state density for this state as the 1-particle RhoCI density.

 The electronic state is 1-A.
 Alpha  occ. eigenvalues --  -19.22906 -19.20382 -10.30376 -10.29435 -10.28078
 Alpha  occ. eigenvalues --  -10.27356 -10.27349 -10.27280 -10.27107 -10.26968
 Alpha  occ. eigenvalues --  -10.26967 -10.26741 -10.26562 -10.26546 -10.26444
 Alpha  occ. eigenvalues --  -10.26413 -10.26330 -10.26327 -10.26240 -10.26179
 Alpha  occ. eigenvalues --  -10.26160 -10.26123 -10.26009 -10.25934 -10.25868
 Alpha  occ. eigenvalues --  -10.25828 -10.25581 -10.25572 -10.25538 -10.25533
 Alpha  occ. eigenvalues --  -10.25485 -10.25431 -10.25335 -10.25313 -10.24699
 Alpha  occ. eigenvalues --  -10.24665 -10.24561 -10.24411 -10.24374 -10.24236
 Alpha  occ. eigenvalues --  -10.22961 -10.22528  -1.11257  -1.07367  -0.95149
 Alpha  occ. eigenvalues --   -0.94186  -0.92268  -0.91850  -0.90299  -0.89693
 Alpha  occ. eigenvalues --   -0.88837  -0.88077  -0.86675  -0.85564  -0.84198
 Alpha  occ. eigenvalues --   -0.82896  -0.81886  -0.80240  -0.80023  -0.78317
 Alpha  occ. eigenvalues --   -0.77725  -0.77076  -0.76634  -0.76343  -0.75938
 Alpha  occ. eigenvalues --   -0.75639  -0.75316  -0.74843  -0.73254  -0.70558
 Alpha  occ. eigenvalues --   -0.68915  -0.67235  -0.65842  -0.65157  -0.64060
 Alpha  occ. eigenvalues --   -0.63716  -0.62504  -0.61966  -0.61358  -0.60880
 Alpha  occ. eigenvalues --   -0.59108  -0.59027  -0.58578  -0.57774  -0.57088
 Alpha  occ. eigenvalues --   -0.55626  -0.55060  -0.54586  -0.54230  -0.54071
 Alpha  occ. eigenvalues --   -0.53018  -0.52824  -0.52024  -0.51565  -0.51117
 Alpha  occ. eigenvalues --   -0.51024  -0.51004  -0.50527  -0.50382  -0.49707
 Alpha  occ. eigenvalues --   -0.49588  -0.48991  -0.48725  -0.48110  -0.47794
 Alpha  occ. eigenvalues --   -0.47185  -0.47068  -0.46790  -0.46753  -0.46360
 Alpha  occ. eigenvalues --   -0.46239  -0.46025  -0.45511  -0.45123  -0.44889
 Alpha  occ. eigenvalues --   -0.44666  -0.44592  -0.44060  -0.43977  -0.43584
 Alpha  occ. eigenvalues --   -0.43017  -0.42775  -0.42441  -0.42230  -0.41929
 Alpha  occ. eigenvalues --   -0.41740  -0.41601  -0.41278  -0.40745  -0.40392
 Alpha  occ. eigenvalues --   -0.40114  -0.39951  -0.39842  -0.39651  -0.39325
 Alpha  occ. eigenvalues --   -0.39121  -0.38954  -0.38926  -0.38552  -0.38142
 Alpha  occ. eigenvalues --   -0.37660  -0.37625  -0.37269  -0.36877  -0.36089
 Alpha  occ. eigenvalues --   -0.35605  -0.34734  -0.34324  -0.32582  -0.32330
 Alpha  occ. eigenvalues --   -0.31233  -0.30174  -0.27747  -0.25887  -0.22645
 Alpha  occ. eigenvalues --   -0.18157
 Alpha virt. eigenvalues --   -0.06296  -0.01371   0.02882   0.05122   0.06067
 Alpha virt. eigenvalues --    0.08398   0.10447   0.11623   0.12072   0.13121
 Alpha virt. eigenvalues --    0.13227   0.13519   0.13652   0.13794   0.14324

 Mulliken charges:
               1
     1  O   -0.547989
     2  O   -0.542617
     3  C   -0.043103
     4  C    0.011999
     5  C   -0.191443
     6  C   -0.174425
     7  C    0.162391
     8  C    0.147275
     9  C    0.113697
    10  C    0.098496
    11  C   -0.224327
    12  C   -0.202545
    13  C    0.050925
    14  C   -0.008937
    15  C   -0.284996
    16  C   -0.303814
    17  C   -0.295042
    18  C   -0.285373
    19  C   -0.128672
    20  C   -0.149921
    21  C   -0.359433
    22  C   -0.338212
    23  C   -0.121976
    24  C   -0.101388
    25  C    0.008683
    26  C    0.079205
    27  C   -0.356988
    28  C   -0.358735
    29  C   -0.061427
    30  C   -0.124796
    31  C   -0.069536
    32  C   -0.084386
    33  C   -0.155062
    34  C   -0.122684
    35  C    0.151227
    36  C    0.115463
    37  C   -0.376938
    38  C   -0.376460
    39  C   -0.135621
    40  C   -0.135048
    41  C   -0.087063
    42  C   -0.068684
    43  H    0.096087
    44  H    0.091523
    45  H    0.085677
    46  H    0.094794
    47  H    0.087442
    48  H    0.078922
    49  H    0.102255
    50  H    0.106329
    51  H    0.117324
    52  H    0.083550
    53  H    0.093019
    54  H    0.105116
    55  H    0.090711
    56  H    0.112237
    57  H    0.110894
    58  H    0.092509
    59  H    0.085826
    60  H    0.108127
    61  H    0.101121
    62  H    0.104146
    63  H    0.089517
    64  H    0.085878
    65  H    0.089549
    66  H    0.064126
    67  H    0.145689
    68  H    0.085371
    69  H    0.075525
    70  H    0.100043
    71  H    0.132705
    72  H    0.128804
    73  H    0.288401
    74  H    0.292613
    75  H    0.093553
    76  H    0.068221
    77  H    0.109896
    78  H    0.121718
    79  H    0.144614
    80  H    0.128693
    81  H    0.130231
    82  H    0.088847
    83  H    0.079681
    84  H    0.075729
    85  H    0.054087
    86  H    0.090335
    87  H    0.068947
    88  H    0.089789
    89  H    0.115314
    90  H    0.116144
    91  H    0.103873
    92  H    0.101915
    93  H    0.124280
    94  H    0.120407
    95  H    0.082259
    96  H    0.082956
    97  H    0.077311
    98  H    0.083652
 Sum of Mulliken charges =  -0.00000

 Dipole moment (field-independent basis, Debye):
    X=             -1.3492    Y=             -1.3154    Z=              2.7441  Tot=              3.3288
 Quadrupole moment (field-independent basis, Debye-Ang):
   XX=           -285.3548   YY=           -242.0284   ZZ=           -256.2596
   XY=             -3.5286   XZ=             -7.9933   YZ=              2.2396

 Normal termination of Gaussian 16 at Tue Jul  9 02:45:38 2019.
