 Gaussian 16, Revision A.03,
 Gaussian 16:  ES64L-G16RevA.03 25-Dec-2016

 -------------------------------------
 # td=(NStates=1) CAM-B3LYP/6-31G(d,p)
 -------------------------------------

 --
 TD
 --
 Symbolic Z-matrix:
 Charge =  0 Multiplicity = 1

                         Standard orientation:
 ---------------------------------------------------------------------
 Center     Atomic      Atomic             Coordinates (Angstroms)
 Number     Number       Type             X           Y           Z
 ---------------------------------------------------------------------
      1          8           0       14.772744   -1.995706   -0.085296
      2          8           0      -14.721293    1.895922    1.122633
      3          6           0       11.166605   -1.460881    0.975579
      4          6           0      -12.309708   -0.986292    0.563729
      5          6           0       12.718445   -1.825812    1.152114
      6          6           0      -13.533637   -0.296311    0.666954
      7          6           0       13.342635   -1.877003   -0.231122
      8          6           0      -13.492828    1.197254    1.078188
      9          6           0       10.882002   -0.325222    0.054179
     10          6           0      -11.311118   -0.178819   -0.190695
     11          6           0       13.210622   -0.609216   -0.921549
     12          6           0      -12.631771    1.964974   -0.031682
     13          6           0       11.843394    0.138140   -0.939870
     14          6           0      -11.492114    1.087172   -0.534697
     15          6           0       10.859389   -0.978325    2.409624
     16          6           0       10.350578   -2.805528    0.654464
     17          6           0      -11.705096   -1.287704    2.001740
     18          6           0      -12.555578   -2.319192   -0.026800
     19          6           0        9.693154    0.386622    0.199270
     20          6           0      -10.099067   -0.955734   -0.716885
     21          6           0       11.761944    1.259882   -1.876032
     22          6           0      -10.534545    1.984346   -1.205687
     23          6           0        9.387787    1.659342    0.008496
     24          6           0       -8.816982   -0.565289   -0.407288
     25          6           0        8.060899    2.269822    0.162828
     26          6           0       -7.641838   -1.271755   -0.682335
     27          6           0        7.959736    3.710363    0.459547
     28          6           0       -7.703740   -2.614165   -1.185467
     29          6           0        6.895449    1.594722   -0.037444
     30          6           0       -6.421839   -0.630779   -0.458309
     31          6           0        5.562117    2.155788   -0.052394
     32          6           0       -5.093849   -1.283578   -0.506249
     33          6           0        4.377317    1.366093   -0.208617
     34          6           0       -3.980560   -0.474176   -0.361518
     35          6           0        3.066052    1.671974   -0.066534
     36          6           0       -2.660053   -0.938689   -0.436671
     37          6           0        2.594031    3.093168    0.519986
     38          6           0       -2.423971   -2.279068   -0.942898
     39          6           0        1.988552    0.734413   -0.246002
     40          6           0       -1.568181   -0.013656   -0.180047
     41          6           0        0.684844    0.876437   -0.109694
     42          6           0       -0.220744   -0.137371   -0.386597
     43          1           0       13.312759   -1.193487    1.744623
     44          1           0       12.900046   -2.904435    1.623034
     45          1           0      -14.331299   -0.824699    1.343302
     46          1           0      -14.036920   -0.286467   -0.479128
     47          1           0       12.997531   -2.724356   -0.689316
     48          1           0      -12.895016    1.318338    2.168483
     49          1           0       13.936989    0.181101   -0.532121
     50          1           0       13.668300   -0.572397   -1.950300
     51          1           0      -13.353877    2.185565   -0.849080
     52          1           0      -12.025589    2.871189    0.312843
     53          1           0       11.142959   -1.554541    3.457338
     54          1           0        9.854534   -0.857859    2.243347
     55          1           0       11.288371   -0.012912    2.424767
     56          1           0       10.459145   -3.150804   -0.414083
     57          1           0       10.604527   -3.657121    1.417884
     58          1           0        9.213979   -2.557887    0.881020
     59          1           0      -11.226167   -0.356156    2.566844
     60          1           0      -10.796930   -2.045625    1.790410
     61          1           0      -12.678604   -1.605637    2.590208
     62          1           0      -13.377847   -2.845134    0.507469
     63          1           0      -11.666109   -2.893380    0.056033
     64          1           0      -12.895075   -2.466178   -0.911009
     65          1           0        8.886545   -0.325557    0.770010
     66          1           0      -10.162925   -1.970267   -1.129475
     67          1           0       10.816303    1.519866   -2.103217
     68          1           0       12.141449    2.314710   -1.261615
     69          1           0       12.203121    1.173621   -2.927662
     70          1           0      -11.168214    2.471493   -1.720534
     71          1           0       -9.775000    1.457782   -1.753473
     72          1           0       -9.969933    2.783317   -0.521280
     73          1           0       15.033232   -2.904512    0.370006
     74          1           0      -15.075482    1.593922    2.023123
     75          1           0       10.189224    2.329021    0.037341
     76          1           0       -8.552441    0.395802    0.071578
     77          1           0        8.875365    4.345225    0.744064
     78          1           0        7.449266    4.192957   -0.267279
     79          1           0        7.262270    3.659872    1.327928
     80          1           0       -8.045540   -3.404713   -0.463998
     81          1           0       -8.279020   -2.615974   -2.180294
     82          1           0       -6.535194   -2.959820   -1.830890
     83          1           0        7.099728    0.637559   -0.394871
     84          1           0       -6.373462    0.379856   -0.126075
     85          1           0        5.436890    3.326598    0.279466
     86          1           0       -5.064394   -2.361309   -0.779791
     87          1           0        4.534833    0.323730   -0.638346
     88          1           0       -4.183073    0.537828   -0.008146
     89          1           0        3.131957    3.233280    1.622980
     90          1           0        1.684994    3.250287    0.277958
     91          1           0        3.034844    3.801184   -0.138730
     92          1           0       -2.944621   -3.090437   -0.334502
     93          1           0       -2.714251   -2.269191   -2.115463
     94          1           0       -1.471963   -2.625168   -0.694167
     95          1           0        2.464145   -0.206413   -0.650355
     96          1           0       -2.074172    0.913778   -0.197005
     97          1           0        0.231690    1.817448   -0.053236
     98          1           0        0.156509   -1.190309   -0.616997
 ---------------------------------------------------------------------

 SCF Done:  E(RCAM-B3LYP) =  -1706.87737879     A.U. after   17 cycles

 Excitation energies and oscillator strengths:

 Excited State   1:      Singlet-A      1.8175 eV  682.16 nm  f=3.7541  <S**2>=0.000
     155 ->158         0.13161
     156 ->157         0.70108
     156 <-157        -0.12439
 This state for optimization and/or second-order correction.
 Total Energy, E(TD-HF/TD-DFT) =  -1706.81058640
 Copying the excited state density for this state as the 1-particle RhoCI density.

 The electronic state is 1-A.
 Alpha  occ. eigenvalues --  -19.22350 -19.20855 -10.32185 -10.29044 -10.28979
 Alpha  occ. eigenvalues --  -10.28380 -10.28355 -10.28206 -10.27354 -10.27317
 Alpha  occ. eigenvalues --  -10.27246 -10.27179 -10.27116 -10.26891 -10.26774
 Alpha  occ. eigenvalues --  -10.26697 -10.26636 -10.26589 -10.26534 -10.26524
 Alpha  occ. eigenvalues --  -10.26447 -10.26317 -10.26295 -10.26240 -10.26005
 Alpha  occ. eigenvalues --  -10.25965 -10.25901 -10.25675 -10.25662 -10.25658
 Alpha  occ. eigenvalues --  -10.25622 -10.25384 -10.25376 -10.25287 -10.25269
 Alpha  occ. eigenvalues --  -10.25079 -10.24950 -10.24671 -10.24623 -10.24256
 Alpha  occ. eigenvalues --  -10.23252 -10.22629  -1.09504  -1.07262  -0.94756
 Alpha  occ. eigenvalues --   -0.93858  -0.92308  -0.91578  -0.91041  -0.90232
 Alpha  occ. eigenvalues --   -0.88347  -0.87430  -0.86905  -0.85864  -0.84322
 Alpha  occ. eigenvalues --   -0.82506  -0.81692  -0.80741  -0.79890  -0.78660
 Alpha  occ. eigenvalues --   -0.77091  -0.76680  -0.76637  -0.75970  -0.75613
 Alpha  occ. eigenvalues --   -0.75548  -0.75078  -0.74056  -0.73087  -0.70988
 Alpha  occ. eigenvalues --   -0.68951  -0.67512  -0.65796  -0.64964  -0.63998
 Alpha  occ. eigenvalues --   -0.63661  -0.62811  -0.61489  -0.60582  -0.59171
 Alpha  occ. eigenvalues --   -0.58897  -0.58291  -0.57885  -0.57373  -0.55770
 Alpha  occ. eigenvalues --   -0.55457  -0.55245  -0.54687  -0.54250  -0.54029
 Alpha  occ. eigenvalues --   -0.53708  -0.53417  -0.52264  -0.51224  -0.50996
 Alpha  occ. eigenvalues --   -0.50677  -0.50526  -0.49943  -0.49736  -0.49485
 Alpha  occ. eigenvalues --   -0.49275  -0.48734  -0.48447  -0.48241  -0.48072
 Alpha  occ. eigenvalues --   -0.47802  -0.47712  -0.47067  -0.46794  -0.45984
 Alpha  occ. eigenvalues --   -0.45833  -0.45601  -0.45124  -0.44893  -0.44715
 Alpha  occ. eigenvalues --   -0.44374  -0.44273  -0.44147  -0.43691  -0.43540
 Alpha  occ. eigenvalues --   -0.42820  -0.42090  -0.41998  -0.41856  -0.41575
 Alpha  occ. eigenvalues --   -0.41496  -0.41308  -0.41128  -0.41046  -0.40702
 Alpha  occ. eigenvalues --   -0.40598  -0.40426  -0.39667  -0.39580  -0.39100
 Alpha  occ. eigenvalues --   -0.38931  -0.38431  -0.38399  -0.38157  -0.37877
 Alpha  occ. eigenvalues --   -0.37527  -0.37144  -0.36930  -0.36420  -0.35947
 Alpha  occ. eigenvalues --   -0.35385  -0.35067  -0.34098  -0.32457  -0.31973
 Alpha  occ. eigenvalues --   -0.30548  -0.29598  -0.27998  -0.25602  -0.23278
 Alpha  occ. eigenvalues --   -0.18046
 Alpha virt. eigenvalues --   -0.07129  -0.01217   0.01509   0.05085   0.07848
 Alpha virt. eigenvalues --    0.09073   0.10520   0.10801   0.10865   0.11213
 Alpha virt. eigenvalues --    0.12191   0.12486   0.12767   0.12821   0.13470

 Mulliken charges:
               1
     1  O   -0.581364
     2  O   -0.539786
     3  C   -0.066249
     4  C   -0.004700
     5  C   -0.172110
     6  C   -0.185909
     7  C    0.179751
     8  C    0.158094
     9  C    0.084377
    10  C    0.092136
    11  C   -0.221810
    12  C   -0.229210
    13  C    0.072217
    14  C    0.039202
    15  C   -0.276870
    16  C   -0.296726
    17  C   -0.275613
    18  C   -0.280527
    19  C   -0.106860
    20  C   -0.196820
    21  C   -0.367800
    22  C   -0.343314
    23  C   -0.130317
    24  C   -0.065520
    25  C    0.084499
    26  C    0.151830
    27  C   -0.385272
    28  C   -0.382257
    29  C   -0.106473
    30  C   -0.139044
    31  C   -0.115821
    32  C   -0.082990
    33  C   -0.122875
    34  C   -0.115937
    35  C    0.080191
    36  C    0.091261
    37  C   -0.339458
    38  C   -0.367458
    39  C   -0.106158
    40  C   -0.115344
    41  C   -0.068659
    42  C   -0.089278
    43  H    0.111211
    44  H    0.057505
    45  H    0.065257
    46  H    0.071376
    47  H    0.092255
    48  H    0.044739
    49  H    0.125424
    50  H    0.101974
    51  H    0.124137
    52  H    0.106786
    53  H    0.086947
    54  H    0.094083
    55  H    0.115722
    56  H    0.109316
    57  H    0.100018
    58  H    0.087143
    59  H    0.093501
    60  H    0.097144
    61  H    0.087797
    62  H    0.087034
    63  H    0.095000
    64  H    0.112980
    65  H    0.073586
    66  H    0.092438
    67  H    0.145230
    68  H    0.093444
    69  H    0.112982
    70  H    0.123497
    71  H    0.113558
    72  H    0.089020
    73  H    0.297620
    74  H    0.310854
    75  H    0.087451
    76  H    0.084559
    77  H    0.097278
    78  H    0.139337
    79  H    0.126452
    80  H    0.129017
    81  H    0.123892
    82  H    0.054048
    83  H    0.079570
    84  H    0.078999
    85  H    0.079134
    86  H    0.094998
    87  H    0.076259
    88  H    0.084356
    89  H    0.110145
    90  H    0.108448
    91  H    0.113434
    92  H    0.105679
    93  H    0.118531
    94  H    0.113296
    95  H    0.069907
    96  H    0.075878
    97  H    0.091267
    98  H    0.083460
 Sum of Mulliken charges =  -0.00000

 Dipole moment (field-independent basis, Debye):
    X=              0.9800    Y=             -1.6202    Z=              0.6764  Tot=              2.0108
 Quadrupole moment (field-independent basis, Debye-Ang):
   XX=           -263.6027   YY=           -243.4517   ZZ=           -259.6395
   XY=              8.6159   XZ=             -9.5345   YZ=              1.2671

 Normal termination of Gaussian 16 at Sat Jul 13 00:06:39 2019.
