 Gaussian 16, Revision A.03,
 Gaussian 16:  ES64L-G16RevA.03 25-Dec-2016

 -------------------------------------
 # td=(NStates=1) CAM-B3LYP/6-31G(d,p)
 -------------------------------------

 --
 TD
 --
 Symbolic Z-matrix:
 Charge =  0 Multiplicity = 1

                         Standard orientation:
 ---------------------------------------------------------------------
 Center     Atomic      Atomic             Coordinates (Angstroms)
 Number     Number       Type             X           Y           Z
 ---------------------------------------------------------------------
      1          8           0       14.580625   -2.433415   -0.384019
      2          8           0      -14.885888    1.789682    0.807149
      3          6           0       11.180309   -1.506182    0.977392
      4          6           0      -12.403384   -1.176467    0.405057
      5          6           0       12.672567   -2.031391    0.889293
      6          6           0      -13.742475   -0.400362    0.365207
      7          6           0       13.196818   -2.058368   -0.475139
      8          6           0      -13.638368    1.042681    0.749376
      9          6           0       10.971408   -0.387069   -0.046702
     10          6           0      -11.279216   -0.386796   -0.147333
     11          6           0       13.289046   -0.655429   -1.110652
     12          6           0      -12.733989    1.627397   -0.233727
     13          6           0       11.859503   -0.001802   -1.044059
     14          6           0      -11.521766    0.915321   -0.564546
     15          6           0       11.003341   -0.924675    2.332960
     16          6           0       10.217222   -2.705057    0.700921
     17          6           0      -12.077490   -1.521028    1.886348
     18          6           0      -12.727349   -2.386285   -0.476134
     19          6           0        9.725564    0.325662    0.100971
     20          6           0       -9.969005   -1.042035   -0.379612
     21          6           0       11.664952    1.086769   -1.969455
     22          6           0      -10.548270    1.837726   -1.312406
     23          6           0        9.399280    1.653014   -0.063114
     24          6           0       -8.769093   -0.383427   -0.322855
     25          6           0        8.091467    2.279700    0.096287
     26          6           0       -7.536444   -1.145080   -0.510518
     27          6           0        8.044194    3.739958    0.186756
     28          6           0       -7.579722   -2.661823   -0.841343
     29          6           0        6.928529    1.585556   -0.013817
     30          6           0       -6.395211   -0.432075   -0.308780
     31          6           0        5.650327    2.123280    0.327992
     32          6           0       -5.021998   -0.853476   -0.387324
     33          6           0        4.466351    1.410360    0.193031
     34          6           0       -3.956118   -0.113490   -0.286593
     35          6           0        3.203642    1.765605    0.391613
     36          6           0       -2.588036   -0.526025   -0.426950
     37          6           0        2.890912    3.190397    0.718474
     38          6           0       -2.329509   -1.946546   -0.718867
     39          6           0        2.055595    0.924911    0.136940
     40          6           0       -1.587673    0.409244   -0.107425
     41          6           0        0.726843    1.085414    0.182535
     42          6           0       -0.214841    0.132838   -0.089032
     43          1           0       13.195167   -1.215889    1.273644
     44          1           0       12.977008   -2.841406    1.395831
     45          1           0      -14.387115   -0.881787    1.012087
     46          1           0      -14.337453   -0.477726   -0.627575
     47          1           0       12.871220   -2.752429   -1.120858
     48          1           0      -13.157591    1.150846    1.869905
     49          1           0       13.952749   -0.045622   -0.589022
     50          1           0       13.626190   -0.810703   -2.160101
     51          1           0      -13.236548    1.926088   -1.108777
     52          1           0      -12.482365    2.672197    0.287409
     53          1           0       11.300278   -1.789743    3.034548
     54          1           0        9.849271   -0.750780    2.580956
     55          1           0       11.708475   -0.161170    2.496846
     56          1           0       10.629253   -3.041453   -0.250313
     57          1           0       10.473221   -3.557858    1.395706
     58          1           0        9.237957   -2.539214    0.768561
     59          1           0      -11.973413   -0.658539    2.632632
     60          1           0      -11.196571   -2.080902    1.858921
     61          1           0      -12.860732   -2.117564    2.254859
     62          1           0      -13.618080   -3.099130   -0.085353
     63          1           0      -11.869098   -3.191688   -0.404819
     64          1           0      -12.781643   -2.097484   -1.561044
     65          1           0        8.894875   -0.105255    0.684836
     66          1           0       -9.849310   -2.093667   -0.488173
     67          1           0       10.629405    1.121734   -2.243298
     68          1           0       11.939128    1.931601   -1.377420
     69          1           0       12.199570    0.971202   -2.818636
     70          1           0      -10.979033    2.217007   -2.355242
     71          1           0       -9.331952    1.434558   -1.753507
     72          1           0      -10.157403    2.387095   -0.568684
     73          1           0       14.946753   -3.196514    0.349247
     74          1           0      -15.358550    1.458639    1.609363
     75          1           0       10.221015    2.360669   -0.319460
     76          1           0       -8.589890    0.667982    0.155338
     77          1           0        9.088590    4.294407    0.178316
     78          1           0        7.472295    4.179515   -0.615060
     79          1           0        7.664622    3.955124    1.205524
     80          1           0       -8.247557   -3.174039   -0.091333
     81          1           0       -7.747150   -2.820632   -1.998290
     82          1           0       -6.299621   -3.058346   -0.551802
     83          1           0        7.140925    0.437756    0.092320
     84          1           0       -6.337245    0.651186    0.018116
     85          1           0        5.639049    3.173759    0.449574
     86          1           0       -4.866767   -1.971069   -0.541726
     87          1           0        4.528961    0.301041   -0.209133
     88          1           0       -3.959686    0.919185   -0.118546
     89          1           0        3.061650    3.459194    1.731595
     90          1           0        2.014355    3.423483    0.827758
     91          1           0        3.426251    3.898414    0.068105
     92          1           0       -2.436632   -2.817117    0.063040
     93          1           0       -3.031029   -2.161630   -1.704958
     94          1           0       -1.445688   -2.172752   -0.956445
     95          1           0        2.233616   -0.121281   -0.161338
     96          1           0       -1.926509    1.428371    0.147302
     97          1           0        0.266262    2.089298    0.338241
     98          1           0        0.011148   -0.902758   -0.213339
 ---------------------------------------------------------------------

 SCF Done:  E(RCAM-B3LYP) =  -1706.92294878     A.U. after   15 cycles

 Excitation energies and oscillator strengths:

 Excited State   1:      Singlet-A      2.0623 eV  601.19 nm  f=3.7242  <S**2>=0.000
     155 ->158        -0.13740
     156 ->157         0.69450
     156 <-157        -0.10025
 This state for optimization and/or second-order correction.
 Total Energy, E(TD-HF/TD-DFT) =  -1706.84715963
 Copying the excited state density for this state as the 1-particle RhoCI density.

 The electronic state is 1-A.
 Alpha  occ. eigenvalues --  -19.21421 -19.20061 -10.30837 -10.29696 -10.28751
 Alpha  occ. eigenvalues --  -10.27454 -10.27362 -10.27291 -10.27264 -10.27002
 Alpha  occ. eigenvalues --  -10.26996 -10.26906 -10.26904 -10.26775 -10.26565
 Alpha  occ. eigenvalues --  -10.26558 -10.26356 -10.26110 -10.26092 -10.26076
 Alpha  occ. eigenvalues --  -10.25990 -10.25986 -10.25978 -10.25954 -10.25935
 Alpha  occ. eigenvalues --  -10.25902 -10.25868 -10.25777 -10.25637 -10.25536
 Alpha  occ. eigenvalues --  -10.25433 -10.25431 -10.25154 -10.25079 -10.24751
 Alpha  occ. eigenvalues --  -10.24661 -10.24250 -10.24248 -10.23954 -10.23409
 Alpha  occ. eigenvalues --  -10.23307 -10.22664  -1.08143  -1.05907  -0.94239
 Alpha  occ. eigenvalues --   -0.93625  -0.92589  -0.91886  -0.90806  -0.90029
 Alpha  occ. eigenvalues --   -0.88128  -0.87831  -0.87383  -0.85467  -0.84934
 Alpha  occ. eigenvalues --   -0.83307  -0.82341  -0.80827  -0.79737  -0.79111
 Alpha  occ. eigenvalues --   -0.77437  -0.77192  -0.76884  -0.76516  -0.75999
 Alpha  occ. eigenvalues --   -0.75647  -0.75465  -0.74551  -0.73341  -0.71015
 Alpha  occ. eigenvalues --   -0.68609  -0.67599  -0.66058  -0.65203  -0.63975
 Alpha  occ. eigenvalues --   -0.63493  -0.62987  -0.61927  -0.60855  -0.59973
 Alpha  occ. eigenvalues --   -0.58836  -0.58412  -0.57947  -0.57467  -0.55852
 Alpha  occ. eigenvalues --   -0.55658  -0.55316  -0.54945  -0.54407  -0.53863
 Alpha  occ. eigenvalues --   -0.53205  -0.52936  -0.52304  -0.51904  -0.51069
 Alpha  occ. eigenvalues --   -0.51000  -0.50811  -0.50265  -0.50076  -0.49966
 Alpha  occ. eigenvalues --   -0.49511  -0.49218  -0.48949  -0.48748  -0.48459
 Alpha  occ. eigenvalues --   -0.48144  -0.47677  -0.47279  -0.47054  -0.46931
 Alpha  occ. eigenvalues --   -0.46612  -0.46431  -0.45841  -0.45379  -0.44590
 Alpha  occ. eigenvalues --   -0.44335  -0.44223  -0.43366  -0.43260  -0.42855
 Alpha  occ. eigenvalues --   -0.42775  -0.42442  -0.41966  -0.41687  -0.41675
 Alpha  occ. eigenvalues --   -0.41592  -0.41489  -0.41140  -0.40990  -0.40632
 Alpha  occ. eigenvalues --   -0.40451  -0.40059  -0.39954  -0.39532  -0.39236
 Alpha  occ. eigenvalues --   -0.39075  -0.38577  -0.38341  -0.38092  -0.37457
 Alpha  occ. eigenvalues --   -0.37431  -0.37046  -0.36557  -0.36274  -0.35731
 Alpha  occ. eigenvalues --   -0.35384  -0.34129  -0.33993  -0.32443  -0.31737
 Alpha  occ. eigenvalues --   -0.31303  -0.30364  -0.28280  -0.25479  -0.23128
 Alpha  occ. eigenvalues --   -0.18777
 Alpha virt. eigenvalues --   -0.06284  -0.00691   0.01945   0.05584   0.08421
 Alpha virt. eigenvalues --    0.09426   0.10020   0.10239   0.11091   0.11528
 Alpha virt. eigenvalues --    0.12793   0.12926   0.13398   0.13471   0.14038

 Mulliken charges:
               1
     1  O   -0.614376
     2  O   -0.568012
     3  C   -0.041027
     4  C   -0.033366
     5  C   -0.183397
     6  C   -0.175285
     7  C    0.203004
     8  C    0.161161
     9  C    0.095652
    10  C    0.086869
    11  C   -0.211397
    12  C   -0.206532
    13  C   -0.003797
    14  C    0.031445
    15  C   -0.279900
    16  C   -0.287749
    17  C   -0.300486
    18  C   -0.300740
    19  C   -0.127799
    20  C   -0.130611
    21  C   -0.356778
    22  C   -0.334567
    23  C   -0.110368
    24  C   -0.078594
    25  C    0.090797
    26  C    0.092416
    27  C   -0.387337
    28  C   -0.342759
    29  C   -0.108100
    30  C   -0.123229
    31  C   -0.106461
    32  C   -0.091225
    33  C   -0.122304
    34  C   -0.085292
    35  C    0.131475
    36  C    0.103003
    37  C   -0.350848
    38  C   -0.352045
    39  C   -0.141696
    40  C   -0.132072
    41  C   -0.065893
    42  C   -0.076372
    43  H    0.104466
    44  H    0.080809
    45  H    0.081036
    46  H    0.091379
    47  H    0.093133
    48  H    0.050079
    49  H    0.129507
    50  H    0.104850
    51  H    0.127527
    52  H    0.092887
    53  H    0.081499
    54  H    0.090183
    55  H    0.111807
    56  H    0.105473
    57  H    0.087484
    58  H    0.111373
    59  H    0.101863
    60  H    0.109398
    61  H    0.101293
    62  H    0.089750
    63  H    0.075513
    64  H    0.120782
    65  H    0.078444
    66  H    0.079369
    67  H    0.133120
    68  H    0.131023
    69  H    0.109569
    70  H    0.108865
    71  H    0.063013
    72  H    0.142214
    73  H    0.296220
    74  H    0.310039
    75  H    0.073703
    76  H    0.092744
    77  H    0.091933
    78  H    0.134881
    79  H    0.129228
    80  H    0.131338
    81  H    0.132184
    82  H    0.062518
    83  H    0.068203
    84  H    0.074312
    85  H    0.090023
    86  H    0.071230
    87  H    0.072223
    88  H    0.067383
    89  H    0.110730
    90  H    0.099927
    91  H    0.113350
    92  H    0.107896
    93  H    0.094841
    94  H    0.114109
    95  H    0.068653
    96  H    0.080593
    97  H    0.076026
    98  H    0.082599
 Sum of Mulliken charges =  -0.00000

 Dipole moment (field-independent basis, Debye):
    X=              0.7035    Y=             -1.3811    Z=              2.0557  Tot=              2.5746
 Quadrupole moment (field-independent basis, Debye-Ang):
   XX=           -256.5759   YY=           -244.0989   ZZ=           -259.9025
   XY=             16.3290   XZ=             -3.5454   YZ=             -0.6470

 Normal termination of Gaussian 16 at Sat Jul 13 08:56:54 2019.
