 Gaussian 16, Revision A.03,
 Gaussian 16:  ES64L-G16RevA.03 25-Dec-2016

 -------------------------------------
 # td=(NStates=1) CAM-B3LYP/6-31G(d,p)
 -------------------------------------

 --
 TD
 --
 Symbolic Z-matrix:
 Charge =  0 Multiplicity = 1

                         Standard orientation:
 ---------------------------------------------------------------------
 Center     Atomic      Atomic             Coordinates (Angstroms)
 Number     Number       Type             X           Y           Z
 ---------------------------------------------------------------------
      1          8           0       14.861206   -2.100549   -0.254605
      2          8           0      -14.802351    1.952151    1.001602
      3          6           0       11.364155   -1.288927    1.060385
      4          6           0      -12.424110   -0.985715    0.609399
      5          6           0       12.886521   -1.748703    1.049968
      6          6           0      -13.754690   -0.208391    0.681320
      7          6           0       13.580518   -1.822012   -0.308813
      8          6           0      -13.554098    1.321985    0.866790
      9          6           0       11.063180   -0.106632    0.049349
     10          6           0      -11.283361   -0.097215   -0.199651
     11          6           0       13.291068   -0.454299   -1.021960
     12          6           0      -12.766973    1.924368   -0.278803
     13          6           0       11.914256    0.158709   -0.971575
     14          6           0      -11.503020    1.091317   -0.559384
     15          6           0       11.045619   -0.791503    2.415355
     16          6           0       10.525618   -2.510137    0.700452
     17          6           0      -11.867358   -1.151274    1.961840
     18          6           0      -12.594706   -2.357906   -0.072517
     19          6           0        9.757035    0.425984    0.192273
     20          6           0      -10.094885   -0.961491   -0.438825
     21          6           0       11.666445    1.101350   -2.139856
     22          6           0      -10.568944    1.835047   -1.461772
     23          6           0        9.343625    1.747142    0.002385
     24          6           0       -8.809950   -0.531105   -0.309483
     25          6           0        7.978039    2.243734    0.176732
     26          6           0       -7.585628   -1.322661   -0.590765
     27          6           0        7.724135    3.632392    0.595344
     28          6           0       -7.828587   -2.808878   -0.810278
     29          6           0        6.843236    1.465749    0.080213
     30          6           0       -6.414873   -0.710071   -0.395183
     31          6           0        5.603120    1.878130    0.338829
     32          6           0       -5.064412   -1.217748   -0.646380
     33          6           0        4.438861    1.134236    0.064935
     34          6           0       -3.948556   -0.402057   -0.383681
     35          6           0        3.079713    1.467964    0.108150
     36          6           0       -2.672926   -0.810584   -0.568711
     37          6           0        2.706728    2.914030    0.400445
     38          6           0       -2.436002   -2.251800   -0.843003
     39          6           0        2.078749    0.549147   -0.127342
     40          6           0       -1.572682    0.080718   -0.238613
     41          6           0        0.700300    0.791703   -0.150908
     42          6           0       -0.209797   -0.138435   -0.409364
     43          1           0       13.496575   -1.027794    1.586636
     44          1           0       12.972168   -2.745193    1.704819
     45          1           0      -14.394535   -0.551025    1.446956
     46          1           0      -14.193550   -0.796799   -0.222412
     47          1           0       13.064639   -2.644059   -0.913848
     48          1           0      -13.019762    1.553601    1.836746
     49          1           0       13.970368    0.382891   -0.637932
     50          1           0       13.705390   -0.673191   -2.051451
     51          1           0      -13.429259    1.981910   -1.032226
     52          1           0      -12.379307    3.030137   -0.212822
     53          1           0       11.161359   -1.580036    3.081505
     54          1           0        9.966101   -0.685099    2.560796
     55          1           0       11.509867    0.121868    2.641690
     56          1           0       11.066429   -2.849257   -0.064538
     57          1           0       10.612610   -3.443295    1.541877
     58          1           0        9.319957   -2.455915    0.574810
     59          1           0      -11.855066   -0.182927    2.415579
     60          1           0      -10.889804   -1.432177    1.699344
     61          1           0      -12.322657   -1.762250    2.716534
     62          1           0      -13.761818   -2.668056    0.182570
     63          1           0      -11.902242   -3.191378    0.280827
     64          1           0      -12.618314   -2.189567   -0.988842
     65          1           0        8.854271   -0.221037    0.566627
     66          1           0      -10.235742   -2.126992   -0.486692
     67          1           0       10.701188    1.399810   -2.213925
     68          1           0       12.027737    2.067761   -1.999501
     69          1           0       12.011141    0.894932   -3.166442
     70          1           0      -10.978022    2.463915   -2.375603
     71          1           0       -9.893672    1.364079   -2.030109
     72          1           0      -10.033173    2.589509   -0.793737
     73          1           0       14.998298   -3.011432    0.090752
     74          1           0      -15.065103    1.742104    1.924755
     75          1           0       10.026714    2.596332   -0.379464
     76          1           0       -8.609077    0.554105   -0.089013
     77          1           0        8.690379    4.347781    0.728618
     78          1           0        7.279333    4.363511   -0.198868
     79          1           0        7.021813    3.953631    1.535526
     80          1           0       -8.604718   -3.236329   -0.122694
     81          1           0       -8.412515   -2.783853   -1.748100
     82          1           0       -6.931093   -3.407557   -1.112504
     83          1           0        7.103699    0.572293   -0.293315
     84          1           0       -6.349428    0.242376    0.108136
     85          1           0        5.395476    2.844518    0.859246
     86          1           0       -5.029317   -2.307391   -0.823690
     87          1           0        4.510469    0.122007   -0.153473
     88          1           0       -4.309515    0.463927    0.258651
     89          1           0        3.486401    3.016637    1.253043
     90          1           0        1.698703    3.094029    0.499516
     91          1           0        3.092896    3.625155   -0.571234
     92          1           0       -2.640643   -2.827846    0.142133
     93          1           0       -3.460045   -2.571369   -1.660800
     94          1           0       -1.504222   -2.531111   -1.246822
     95          1           0        2.282197   -0.527971   -0.395665
     96          1           0       -2.035284    1.133538   -0.095956
     97          1           0        0.452650    1.811380   -0.082757
     98          1           0        0.096033   -1.232597   -0.613007
 ---------------------------------------------------------------------

 SCF Done:  E(RCAM-B3LYP) =  -1706.92611244     A.U. after   15 cycles

 Excitation energies and oscillator strengths:

 Excited State   1:      Singlet-A      2.0710 eV  598.67 nm  f=3.7507  <S**2>=0.000
     155 ->158         0.15139
     156 ->157         0.69221
 This state for optimization and/or second-order correction.
 Total Energy, E(TD-HF/TD-DFT) =  -1706.85000444
 Copying the excited state density for this state as the 1-particle RhoCI density.

 The electronic state is 1-A.
 Alpha  occ. eigenvalues --  -19.22450 -19.20995 -10.31099 -10.31037 -10.27913
 Alpha  occ. eigenvalues --  -10.27643 -10.27543 -10.27506 -10.27446 -10.27408
 Alpha  occ. eigenvalues --  -10.27272 -10.27238 -10.27221 -10.27217 -10.27178
 Alpha  occ. eigenvalues --  -10.26993 -10.26733 -10.26695 -10.26614 -10.26571
 Alpha  occ. eigenvalues --  -10.26470 -10.26407 -10.26361 -10.26347 -10.26325
 Alpha  occ. eigenvalues --  -10.26290 -10.26166 -10.26130 -10.25683 -10.25632
 Alpha  occ. eigenvalues --  -10.25578 -10.25576 -10.25568 -10.25297 -10.25082
 Alpha  occ. eigenvalues --  -10.24853 -10.24762 -10.24660 -10.24094 -10.23931
 Alpha  occ. eigenvalues --  -10.22411 -10.21849  -1.13820  -1.09840  -0.93535
 Alpha  occ. eigenvalues --   -0.93495  -0.92759  -0.92016  -0.91047  -0.89987
 Alpha  occ. eigenvalues --   -0.87974  -0.87669  -0.87341  -0.85352  -0.84596
 Alpha  occ. eigenvalues --   -0.82929  -0.81917  -0.80254  -0.79377  -0.78119
 Alpha  occ. eigenvalues --   -0.77489  -0.76901  -0.76804  -0.76361  -0.75918
 Alpha  occ. eigenvalues --   -0.75804  -0.75470  -0.74777  -0.73400  -0.71200
 Alpha  occ. eigenvalues --   -0.69655  -0.67619  -0.66393  -0.65143  -0.64278
 Alpha  occ. eigenvalues --   -0.63540  -0.62498  -0.61476  -0.60768  -0.60248
 Alpha  occ. eigenvalues --   -0.59801  -0.59116  -0.58816  -0.57492  -0.56840
 Alpha  occ. eigenvalues --   -0.55764  -0.55250  -0.55191  -0.54862  -0.54016
 Alpha  occ. eigenvalues --   -0.53654  -0.53568  -0.52538  -0.51784  -0.51670
 Alpha  occ. eigenvalues --   -0.51639  -0.50595  -0.49724  -0.49689  -0.49251
 Alpha  occ. eigenvalues --   -0.49051  -0.48830  -0.48533  -0.48349  -0.47991
 Alpha  occ. eigenvalues --   -0.47444  -0.47366  -0.47269  -0.47017  -0.46305
 Alpha  occ. eigenvalues --   -0.46003  -0.45644  -0.45489  -0.45285  -0.44762
 Alpha  occ. eigenvalues --   -0.44703  -0.44304  -0.44251  -0.44082  -0.43789
 Alpha  occ. eigenvalues --   -0.43410  -0.43204  -0.43010  -0.42261  -0.42042
 Alpha  occ. eigenvalues --   -0.41748  -0.41699  -0.41364  -0.41303  -0.40596
 Alpha  occ. eigenvalues --   -0.40543  -0.39832  -0.39759  -0.39495  -0.39330
 Alpha  occ. eigenvalues --   -0.39077  -0.38670  -0.38569  -0.38257  -0.37937
 Alpha  occ. eigenvalues --   -0.37447  -0.36292  -0.36213  -0.35659  -0.34976
 Alpha  occ. eigenvalues --   -0.34413  -0.34286  -0.33537  -0.32909  -0.31750
 Alpha  occ. eigenvalues --   -0.31746  -0.30731  -0.28510  -0.26683  -0.23486
 Alpha  occ. eigenvalues --   -0.19168
 Alpha virt. eigenvalues --   -0.06429  -0.01412   0.02635   0.05028   0.08415
 Alpha virt. eigenvalues --    0.10116   0.10870   0.11226   0.11307   0.11606
 Alpha virt. eigenvalues --    0.11912   0.12257   0.12719   0.13152   0.13494

 Mulliken charges:
               1
     1  O   -0.524587
     2  O   -0.558348
     3  C   -0.018691
     4  C   -0.020183
     5  C   -0.207339
     6  C   -0.182686
     7  C    0.188790
     8  C    0.154287
     9  C    0.063742
    10  C    0.065648
    11  C   -0.239509
    12  C   -0.199048
    13  C    0.064950
    14  C    0.034694
    15  C   -0.286666
    16  C   -0.274926
    17  C   -0.274510
    18  C   -0.305815
    19  C   -0.119775
    20  C   -0.149823
    21  C   -0.379243
    22  C   -0.367393
    23  C   -0.112159
    24  C   -0.086585
    25  C    0.098334
    26  C    0.111327
    27  C   -0.391750
    28  C   -0.383730
    29  C   -0.072055
    30  C   -0.137940
    31  C   -0.089834
    32  C   -0.101174
    33  C   -0.103921
    34  C   -0.116806
    35  C    0.091572
    36  C    0.105564
    37  C   -0.336565
    38  C   -0.347531
    39  C   -0.133216
    40  C   -0.124474
    41  C   -0.049124
    42  C   -0.090519
    43  H    0.103578
    44  H    0.058314
    45  H    0.083411
    46  H    0.083856
    47  H    0.050156
    48  H    0.079424
    49  H    0.115111
    50  H    0.105559
    51  H    0.135217
    52  H    0.090384
    53  H    0.097301
    54  H    0.095587
    55  H    0.109570
    56  H    0.118068
    57  H    0.058816
    58  H    0.092445
    59  H    0.087312
    60  H    0.098958
    61  H    0.092041
    62  H    0.069783
    63  H    0.100893
    64  H    0.128726
    65  H    0.093980
    66  H    0.077872
    67  H    0.123205
    68  H    0.124547
    69  H    0.113821
    70  H    0.086433
    71  H    0.128805
    72  H    0.102402
    73  H    0.317013
    74  H    0.308098
    75  H    0.082611
    76  H    0.086784
    77  H    0.081743
    78  H    0.112442
    79  H    0.111662
    80  H    0.130784
    81  H    0.126126
    82  H    0.110451
    83  H    0.070029
    84  H    0.077499
    85  H    0.084605
    86  H    0.092026
    87  H    0.072517
    88  H    0.095029
    89  H    0.113510
    90  H    0.116585
    91  H    0.092521
    92  H    0.123588
    93  H    0.068569
    94  H    0.113953
    95  H    0.072822
    96  H    0.077437
    97  H    0.079492
    98  H    0.083544
 Sum of Mulliken charges =  -0.00000

 Dipole moment (field-independent basis, Debye):
    X=              1.8298    Y=             -1.7553    Z=              1.1279  Tot=              2.7751
 Quadrupole moment (field-independent basis, Debye-Ang):
   XX=           -271.1743   YY=           -243.2516   ZZ=           -261.0025
   XY=              1.6116   XZ=            -15.4744   YZ=              0.9488

 Normal termination of Gaussian 16 at Sat Jul 13 04:34:27 2019.
