 Gaussian 16, Revision A.03,
 Gaussian 16:  ES64L-G16RevA.03 25-Dec-2016

 -------------------------------------
 # td=(NStates=1) CAM-B3LYP/6-31G(d,p)
 -------------------------------------

 --
 TD
 --
 Symbolic Z-matrix:
 Charge =  0 Multiplicity = 1

                         Standard orientation:
 ---------------------------------------------------------------------
 Center     Atomic      Atomic             Coordinates (Angstroms)
 Number     Number       Type             X           Y           Z
 ---------------------------------------------------------------------
      1          8           0       14.723909   -2.260335   -0.257128
      2          8           0      -14.773619    1.627694    1.001220
      3          6           0       11.201335   -1.596571    0.911201
      4          6           0      -12.264573   -1.179792    0.661014
      5          6           0       12.623756   -1.890757    0.971489
      6          6           0      -13.596692   -0.571067    0.677542
      7          6           0       13.353755   -1.898396   -0.497672
      8          6           0      -13.586265    1.038945    0.994324
      9          6           0       10.890369   -0.325388    0.155595
     10          6           0      -11.294417   -0.315518   -0.090177
     11          6           0       13.271496   -0.549032   -0.965423
     12          6           0      -12.868615    1.573754   -0.094306
     13          6           0       11.899238    0.031773   -0.754808
     14          6           0      -11.561391    0.918255   -0.500962
     15          6           0       10.840392   -1.231017    2.360458
     16          6           0       10.244070   -2.756734    0.639163
     17          6           0      -11.717515   -1.344323    2.085092
     18          6           0      -12.555887   -2.571652   -0.002097
     19          6           0        9.640388    0.310960    0.184633
     20          6           0      -10.033167   -0.916004   -0.367455
     21          6           0       11.551714    1.086200   -1.745967
     22          6           0      -10.736740    1.846076   -1.450051
     23          6           0        9.361895    1.630258    0.178446
     24          6           0       -8.834144   -0.331737   -0.211551
     25          6           0        8.118880    2.251980    0.299537
     26          6           0       -7.645493   -1.050476   -0.512113
     27          6           0        8.038740    3.690620    0.698155
     28          6           0       -7.660577   -2.438639   -1.255729
     29          6           0        6.954531    1.478976    0.063684
     30          6           0       -6.406716   -0.420610   -0.443010
     31          6           0        5.700007    2.010483    0.172156
     32          6           0       -5.086880   -0.890572   -0.575533
     33          6           0        4.470626    1.303568   -0.112025
     34          6           0       -3.996125   -0.164685   -0.345962
     35          6           0        3.196725    1.837651    0.079403
     36          6           0       -2.562845   -0.595907   -0.557018
     37          6           0        2.845164    3.180094    0.409893
     38          6           0       -2.266035   -1.960365   -1.142153
     39          6           0        2.098838    0.981692   -0.166561
     40          6           0       -1.541611    0.323456   -0.335918
     41          6           0        0.738898    1.055418   -0.158941
     42          6           0       -0.173158    0.077679   -0.533712
     43          1           0       13.293863   -1.027413    1.375770
     44          1           0       12.994197   -2.788866    1.472146
     45          1           0      -14.201967   -1.076219    1.502245
     46          1           0      -14.274849   -0.492746   -0.232978
     47          1           0       12.786784   -2.432907   -1.099144
     48          1           0      -13.099327    1.179681    1.987082
     49          1           0       14.078081   -0.245842   -0.235630
     50          1           0       13.599984   -0.622919   -2.026799
     51          1           0      -13.440154    1.594212   -1.214673
     52          1           0      -12.690994    2.761460    0.223097
     53          1           0       11.313906   -1.942866    2.920649
     54          1           0        9.681797   -1.004317    2.553004
     55          1           0       11.430885   -0.300715    2.521029
     56          1           0       10.602378   -3.194657   -0.477366
     57          1           0       10.373985   -3.647717    1.351270
     58          1           0        9.140937   -2.598890    0.496241
     59          1           0      -11.588802   -0.301431    2.523849
     60          1           0      -10.851428   -1.896143    2.133506
     61          1           0      -12.356313   -1.939416    2.602117
     62          1           0      -13.227107   -3.209362    0.501681
     63          1           0      -11.519974   -3.248836   -0.295787
     64          1           0      -13.163823   -2.330442   -1.152232
     65          1           0        8.718770   -0.261311    0.516367
     66          1           0      -10.081598   -2.020109   -0.753534
     67          1           0       10.426999    1.471312   -1.869958
     68          1           0       12.039258    2.132886   -1.358522
     69          1           0       11.926656    0.814962   -2.683136
     70          1           0      -11.266839    2.546971   -2.266527
     71          1           0      -10.027370    1.371632   -1.856705
     72          1           0      -10.252248    2.741630   -0.907617
     73          1           0       14.741315   -3.179147    0.065577
     74          1           0      -15.353982    1.257530    1.691689
     75          1           0       10.146043    2.314996    0.010781
     76          1           0       -8.836815    0.629857    0.084698
     77          1           0        9.047573    4.083193    0.498592
     78          1           0        7.135592    4.264086    0.084605
     79          1           0        8.027979    3.676114    1.804683
     80          1           0       -7.931028   -3.082279   -0.443546
     81          1           0       -8.594835   -2.500567   -1.858646
     82          1           0       -6.690068   -2.480057   -1.786067
     83          1           0        7.312456    0.400595   -0.217595
     84          1           0       -6.874225    0.660711   -0.067131
     85          1           0        5.769182    2.987316    0.512899
     86          1           0       -5.048274   -1.729871   -1.107217
     87          1           0        4.563776    0.249362   -0.455446
     88          1           0       -4.164069    0.774104    0.149784
     89          1           0        3.036943    3.610035    1.461962
     90          1           0        1.864363    3.528204    0.194951
     91          1           0        3.457299    3.824017   -0.293642
     92          1           0       -2.560000   -2.656150   -0.325377
     93          1           0       -2.718220   -2.043049   -2.017222
     94          1           0       -1.289737   -2.203373   -1.073848
     95          1           0        2.348256    0.214640   -0.622427
     96          1           0       -1.779181    1.313600    0.070815
     97          1           0        0.269837    2.117883    0.043856
     98          1           0        0.239997   -0.773821   -0.944758
 ---------------------------------------------------------------------

 SCF Done:  E(RCAM-B3LYP) =  -1706.86673507     A.U. after   15 cycles

 Excitation energies and oscillator strengths:

 Excited State   1:      Singlet-A      1.9638 eV  631.36 nm  f=3.5481  <S**2>=0.000
     155 ->158        -0.14179
     156 ->157         0.69517
     156 <-157        -0.10457
 This state for optimization and/or second-order correction.
 Total Energy, E(TD-HF/TD-DFT) =  -1706.79456838
 Copying the excited state density for this state as the 1-particle RhoCI density.

 The electronic state is 1-A.
 Alpha  occ. eigenvalues --  -19.22242 -19.21790 -10.29680 -10.29073 -10.28215
 Alpha  occ. eigenvalues --  -10.27647 -10.27398 -10.27325 -10.27258 -10.27199
 Alpha  occ. eigenvalues --  -10.27025 -10.26900 -10.26773 -10.26748 -10.26727
 Alpha  occ. eigenvalues --  -10.26631 -10.26435 -10.26350 -10.26335 -10.26182
 Alpha  occ. eigenvalues --  -10.26099 -10.26084 -10.25966 -10.25945 -10.25829
 Alpha  occ. eigenvalues --  -10.25822 -10.25603 -10.25560 -10.25558 -10.25517
 Alpha  occ. eigenvalues --  -10.25350 -10.25274 -10.25273 -10.25250 -10.25134
 Alpha  occ. eigenvalues --  -10.24961 -10.24949 -10.24609 -10.23958 -10.23922
 Alpha  occ. eigenvalues --  -10.23671 -10.23462  -1.12980  -1.09766  -0.94995
 Alpha  occ. eigenvalues --   -0.94627  -0.92568  -0.91806  -0.91252  -0.90067
 Alpha  occ. eigenvalues --   -0.88189  -0.87818  -0.86971  -0.86582  -0.85286
 Alpha  occ. eigenvalues --   -0.83615  -0.82828  -0.80520  -0.79667  -0.79340
 Alpha  occ. eigenvalues --   -0.77038  -0.76730  -0.76639  -0.76165  -0.75861
 Alpha  occ. eigenvalues --   -0.75694  -0.74680  -0.73610  -0.73516  -0.70872
 Alpha  occ. eigenvalues --   -0.69595  -0.67873  -0.66246  -0.65387  -0.64331
 Alpha  occ. eigenvalues --   -0.63387  -0.62955  -0.62397  -0.61813  -0.61570
 Alpha  occ. eigenvalues --   -0.60173  -0.59676  -0.58978  -0.58008  -0.56919
 Alpha  occ. eigenvalues --   -0.56532  -0.56438  -0.55867  -0.54686  -0.53851
 Alpha  occ. eigenvalues --   -0.53437  -0.53388  -0.52642  -0.52145  -0.51235
 Alpha  occ. eigenvalues --   -0.50819  -0.50723  -0.50081  -0.49566  -0.49325
 Alpha  occ. eigenvalues --   -0.49183  -0.48808  -0.48505  -0.48143  -0.47964
 Alpha  occ. eigenvalues --   -0.47831  -0.47261  -0.47046  -0.46778  -0.46540
 Alpha  occ. eigenvalues --   -0.46031  -0.45667  -0.45308  -0.45164  -0.44820
 Alpha  occ. eigenvalues --   -0.44597  -0.44521  -0.44159  -0.43993  -0.43339
 Alpha  occ. eigenvalues --   -0.43170  -0.42932  -0.42463  -0.42270  -0.42085
 Alpha  occ. eigenvalues --   -0.41680  -0.41347  -0.40964  -0.40799  -0.40701
 Alpha  occ. eigenvalues --   -0.40458  -0.40156  -0.40139  -0.39886  -0.39608
 Alpha  occ. eigenvalues --   -0.39445  -0.38793  -0.38364  -0.38087  -0.37836
 Alpha  occ. eigenvalues --   -0.37745  -0.37226  -0.36673  -0.36079  -0.35966
 Alpha  occ. eigenvalues --   -0.35757  -0.35333  -0.34936  -0.32479  -0.31109
 Alpha  occ. eigenvalues --   -0.30061  -0.29466  -0.28137  -0.25708  -0.22822
 Alpha  occ. eigenvalues --   -0.18425
 Alpha virt. eigenvalues --   -0.06325  -0.01161   0.02083   0.05820   0.07664
 Alpha virt. eigenvalues --    0.10127   0.11543   0.11634   0.11937   0.12170
 Alpha virt. eigenvalues --    0.12555   0.12648   0.13285   0.13760   0.13940

 Mulliken charges:
               1
     1  O   -0.565595
     2  O   -0.528337
     3  C   -0.003011
     4  C   -0.007611
     5  C   -0.217653
     6  C   -0.212238
     7  C    0.150371
     8  C    0.176153
     9  C    0.098605
    10  C    0.069325
    11  C   -0.220727
    12  C   -0.192846
    13  C    0.045959
    14  C    0.053892
    15  C   -0.278029
    16  C   -0.287033
    17  C   -0.290166
    18  C   -0.276557
    19  C   -0.131742
    20  C   -0.147959
    21  C   -0.361719
    22  C   -0.344071
    23  C   -0.094639
    24  C   -0.060585
    25  C    0.070872
    26  C    0.069178
    27  C   -0.373395
    28  C   -0.360662
    29  C   -0.079286
    30  C   -0.130775
    31  C   -0.106207
    32  C   -0.073872
    33  C   -0.140607
    34  C   -0.095899
    35  C    0.166511
    36  C    0.046085
    37  C   -0.391056
    38  C   -0.352220
    39  C   -0.113409
    40  C   -0.106830
    41  C   -0.088808
    42  C   -0.073074
    43  H    0.097640
    44  H    0.078980
    45  H    0.059138
    46  H    0.102055
    47  H    0.093877
    48  H    0.064972
    49  H    0.131697
    50  H    0.108066
    51  H    0.092830
    52  H    0.075598
    53  H    0.098984
    54  H    0.087130
    55  H    0.093187
    56  H    0.053510
    57  H    0.099939
    58  H    0.115725
    59  H    0.102667
    60  H    0.117347
    61  H    0.102006
    62  H    0.120710
    63  H    0.063910
    64  H    0.063878
    65  H    0.085290
    66  H    0.069078
    67  H    0.112259
    68  H    0.086840
    69  H    0.107395
    70  H    0.096921
    71  H    0.125578
    72  H    0.101353
    73  H    0.311505
    74  H    0.306965
    75  H    0.081497
    76  H    0.089405
    77  H    0.110657
    78  H    0.111004
    79  H    0.139833
    80  H    0.128340
    81  H    0.116837
    82  H    0.113708
    83  H    0.074901
    84  H    0.047075
    85  H    0.081279
    86  H    0.073623
    87  H    0.091594
    88  H    0.085934
    89  H    0.109221
    90  H    0.123466
    91  H    0.107687
    92  H    0.117312
    93  H    0.134078
    94  H    0.115613
    95  H    0.046998
    96  H    0.084813
    97  H    0.060380
    98  H    0.087384
 Sum of Mulliken charges =  -0.00000

 Dipole moment (field-independent basis, Debye):
    X=             -0.3454    Y=             -1.9188    Z=              1.0815  Tot=              2.2295
 Quadrupole moment (field-independent basis, Debye-Ang):
   XX=           -255.3907   YY=           -243.4364   ZZ=           -260.9734
   XY=              1.5561   XZ=            -13.9464   YZ=              1.9932

 Normal termination of Gaussian 16 at Mon Jul  8 15:14:03 2019.
