 Gaussian 16, Revision A.03,
 Gaussian 16:  ES64L-G16RevA.03 25-Dec-2016

 -------------------------------------
 # td=(NStates=1) CAM-B3LYP/6-31G(d,p)
 -------------------------------------

 --
 TD
 --
 Symbolic Z-matrix:
 Charge =  0 Multiplicity = 1

                         Standard orientation:
 ---------------------------------------------------------------------
 Center     Atomic      Atomic             Coordinates (Angstroms)
 Number     Number       Type             X           Y           Z
 ---------------------------------------------------------------------
      1          8           0       14.682954   -2.191484   -0.234177
      2          8           0      -14.902710    1.789362    0.846636
      3          6           0       11.200610   -1.485413    1.077163
      4          6           0      -12.328501   -1.118941    0.650197
      5          6           0       12.698476   -1.764325    1.026785
      6          6           0      -13.733796   -0.386673    0.500420
      7          6           0       13.292799   -1.935536   -0.282531
      8          6           0      -13.676340    1.036662    0.828450
      9          6           0       10.956432   -0.284141   -0.054186
     10          6           0      -11.263032   -0.275764   -0.220989
     11          6           0       13.303573   -0.527273   -1.026224
     12          6           0      -12.819737    1.744487   -0.185258
     13          6           0       11.984508    0.080643   -0.897565
     14          6           0      -11.475651    1.102165   -0.560980
     15          6           0       10.876192   -0.990522    2.404238
     16          6           0       10.408111   -2.706197    0.492004
     17          6           0      -11.808824   -1.199097    2.021660
     18          6           0      -12.526374   -2.486795   -0.053564
     19          6           0        9.667461    0.311430    0.089412
     20          6           0      -10.115647   -0.995497   -0.440212
     21          6           0       11.812636    1.200751   -1.831294
     22          6           0      -10.560171    1.866774   -1.377424
     23          6           0        9.354103    1.630025    0.055026
     24          6           0       -8.721451   -0.506586   -0.407095
     25          6           0        8.044457    2.130014    0.178847
     26          6           0       -7.570472   -1.263724   -0.626694
     27          6           0        7.852839    3.663763    0.387857
     28          6           0       -7.580708   -2.747302   -0.784676
     29          6           0        6.887076    1.348741   -0.083790
     30          6           0       -6.451348   -0.621600   -0.316771
     31          6           0        5.628148    1.850496    0.231163
     32          6           0       -5.120261   -1.084298   -0.531473
     33          6           0        4.387783    1.180768    0.021842
     34          6           0       -3.988619   -0.226825   -0.217704
     35          6           0        3.157152    1.732916    0.328473
     36          6           0       -2.620622   -0.624089   -0.551128
     37          6           0        2.883249    3.072022    0.817310
     38          6           0       -2.339511   -1.963987   -1.064257
     39          6           0        2.108193    0.938900   -0.146271
     40          6           0       -1.562800    0.377969   -0.229574
     41          6           0        0.789608    1.133188   -0.149776
     42          6           0       -0.192914    0.189026   -0.464883
     43          1           0       13.276620   -0.795601    1.523225
     44          1           0       12.842153   -2.623878    1.723834
     45          1           0      -14.465412   -0.854556    1.257552
     46          1           0      -14.067851   -0.593796   -0.570830
     47          1           0       12.791186   -2.484030   -0.928186
     48          1           0      -13.232038    1.447585    1.643659
     49          1           0       14.139783    0.119206   -0.716808
     50          1           0       13.598975   -0.708587   -2.045374
     51          1           0      -13.419180    1.726543   -1.162043
     52          1           0      -12.715143    2.840587    0.289708
     53          1           0       11.086479   -1.961020    3.052142
     54          1           0        9.685165   -0.560282    2.533991
     55          1           0       11.499336   -0.218512    2.884313
     56          1           0       10.882054   -3.036739   -0.483747
     57          1           0       10.268560   -3.634226    1.245293
     58          1           0        9.343452   -2.565259    0.239314
     59          1           0      -11.807921   -0.195694    2.520702
     60          1           0      -10.774459   -1.618747    2.130730
     61          1           0      -12.482844   -1.806353    2.824351
     62          1           0      -13.307950   -2.994534    0.431632
     63          1           0      -11.753993   -3.004191   -0.010127
     64          1           0      -12.879723   -2.271631   -1.080566
     65          1           0        8.870407   -0.350505    0.177702
     66          1           0      -10.162342   -2.031950   -0.733016
     67          1           0       10.781867    1.274018   -2.106819
     68          1           0       12.241700    2.238456   -1.636741
     69          1           0       12.309973    0.978673   -2.712556
     70          1           0      -11.220105    2.643334   -1.896976
     71          1           0      -10.120197    1.228532   -2.138783
     72          1           0       -9.904183    2.500350   -0.710611
     73          1           0       14.633752   -3.013811    0.335558
     74          1           0      -15.397667    1.831271    1.827616
     75          1           0       10.213294    2.310476   -0.184199
     76          1           0       -8.637950    0.545688   -0.354321
     77          1           0        8.817667    4.140026    0.191477
     78          1           0        7.303148    4.114663   -0.443077
     79          1           0        7.502315    3.780408    1.406130
     80          1           0       -8.024623   -3.442738    0.057111
     81          1           0       -8.564458   -3.102694   -1.616007
     82          1           0       -6.650149   -2.987578   -1.071603
     83          1           0        7.073747    0.325858   -0.151794
     84          1           0       -6.569799    0.312319    0.287634
     85          1           0        5.588335    2.807150    0.587240
     86          1           0       -4.888297   -2.064040   -1.033481
     87          1           0        4.568338    0.069443   -0.235295
     88          1           0       -3.971818    0.732090    0.011343
     89          1           0        3.566507    3.176868    1.795327
     90          1           0        1.963432    3.149424    1.130298
     91          1           0        3.223931    3.803370   -0.054325
     92          1           0       -2.867804   -2.662653   -0.389355
     93          1           0       -2.752295   -2.022033   -2.104309
     94          1           0       -1.375507   -2.343097   -1.145619
     95          1           0        2.351092    0.004769   -0.552141
     96          1           0       -1.935584    1.374197    0.291036
     97          1           0        0.251867    2.092108    0.169980
     98          1           0        0.012450   -0.778628   -0.839020
 ---------------------------------------------------------------------

 SCF Done:  E(RCAM-B3LYP) =  -1706.93518314     A.U. after   17 cycles

 Excitation energies and oscillator strengths:

 Excited State   1:      Singlet-A      1.7214 eV  720.24 nm  f=3.9568  <S**2>=0.000
     155 ->158        -0.14267
     156 ->157         0.69790
     156 <-157        -0.11734
 This state for optimization and/or second-order correction.
 Total Energy, E(TD-HF/TD-DFT) =  -1706.87192198
 Copying the excited state density for this state as the 1-particle RhoCI density.

 The electronic state is 1-A.
 Alpha  occ. eigenvalues --  -19.21728 -19.21094 -10.28921 -10.28529 -10.28374
 Alpha  occ. eigenvalues --  -10.28205 -10.27742 -10.27505 -10.27469 -10.27375
 Alpha  occ. eigenvalues --  -10.27144 -10.27123 -10.26998 -10.26954 -10.26760
 Alpha  occ. eigenvalues --  -10.26319 -10.26308 -10.26289 -10.26252 -10.26169
 Alpha  occ. eigenvalues --  -10.26142 -10.26124 -10.25992 -10.25987 -10.25971
 Alpha  occ. eigenvalues --  -10.25773 -10.25732 -10.25684 -10.25611 -10.25533
 Alpha  occ. eigenvalues --  -10.25433 -10.25421 -10.25390 -10.25376 -10.25374
 Alpha  occ. eigenvalues --  -10.25201 -10.25035 -10.24973 -10.24634 -10.24590
 Alpha  occ. eigenvalues --  -10.23577 -10.22410  -1.10003  -1.06452  -0.93682
 Alpha  occ. eigenvalues --   -0.92943  -0.92639  -0.91805  -0.90730  -0.89918
 Alpha  occ. eigenvalues --   -0.88001  -0.87125  -0.86946  -0.85507  -0.84942
 Alpha  occ. eigenvalues --   -0.82765  -0.81981  -0.80406  -0.79941  -0.79230
 Alpha  occ. eigenvalues --   -0.77161  -0.76833  -0.76593  -0.76486  -0.75896
 Alpha  occ. eigenvalues --   -0.75712  -0.75420  -0.74838  -0.72160  -0.70554
 Alpha  occ. eigenvalues --   -0.69010  -0.67324  -0.66239  -0.64758  -0.63233
 Alpha  occ. eigenvalues --   -0.62806  -0.62287  -0.61566  -0.60861  -0.60290
 Alpha  occ. eigenvalues --   -0.59342  -0.59291  -0.58224  -0.57771  -0.56043
 Alpha  occ. eigenvalues --   -0.55745  -0.55697  -0.54794  -0.54541  -0.54212
 Alpha  occ. eigenvalues --   -0.53408  -0.53071  -0.52810  -0.51729  -0.50872
 Alpha  occ. eigenvalues --   -0.50539  -0.50329  -0.49780  -0.49447  -0.49402
 Alpha  occ. eigenvalues --   -0.49190  -0.49127  -0.48962  -0.48341  -0.48296
 Alpha  occ. eigenvalues --   -0.48081  -0.47706  -0.47303  -0.47019  -0.46552
 Alpha  occ. eigenvalues --   -0.46034  -0.45709  -0.45632  -0.45354  -0.44808
 Alpha  occ. eigenvalues --   -0.44643  -0.44374  -0.44191  -0.43854  -0.43675
 Alpha  occ. eigenvalues --   -0.43015  -0.42817  -0.42704  -0.42411  -0.42068
 Alpha  occ. eigenvalues --   -0.41867  -0.41482  -0.41040  -0.41010  -0.40702
 Alpha  occ. eigenvalues --   -0.40568  -0.40487  -0.40094  -0.40018  -0.39807
 Alpha  occ. eigenvalues --   -0.39418  -0.39181  -0.38851  -0.38529  -0.37440
 Alpha  occ. eigenvalues --   -0.37297  -0.36690  -0.36310  -0.35828  -0.35489
 Alpha  occ. eigenvalues --   -0.34498  -0.33830  -0.33204  -0.32528  -0.32208
 Alpha  occ. eigenvalues --   -0.31404  -0.29482  -0.27925  -0.25274  -0.22017
 Alpha  occ. eigenvalues --   -0.17536
 Alpha virt. eigenvalues --   -0.06954  -0.01763   0.01608   0.05335   0.07515
 Alpha virt. eigenvalues --    0.09393   0.09647   0.11739   0.12150   0.12395
 Alpha virt. eigenvalues --    0.12501   0.13094   0.13337   0.13418   0.13561

 Mulliken charges:
               1
     1  O   -0.550433
     2  O   -0.593717
     3  C    0.024916
     4  C   -0.010850
     5  C   -0.191914
     6  C   -0.174767
     7  C    0.173920
     8  C    0.197018
     9  C    0.019673
    10  C    0.052787
    11  C   -0.247897
    12  C   -0.226541
    13  C    0.073627
    14  C    0.064984
    15  C   -0.286708
    16  C   -0.309601
    17  C   -0.293902
    18  C   -0.285465
    19  C   -0.104162
    20  C   -0.158695
    21  C   -0.382129
    22  C   -0.371387
    23  C   -0.101136
    24  C   -0.125147
    25  C    0.039562
    26  C    0.133682
    27  C   -0.373498
    28  C   -0.328439
    29  C   -0.086364
    30  C   -0.106839
    31  C   -0.098297
    32  C   -0.133278
    33  C   -0.120374
    34  C   -0.086301
    35  C    0.108439
    36  C    0.083037
    37  C   -0.342173
    38  C   -0.384956
    39  C   -0.099442
    40  C   -0.140319
    41  C   -0.094986
    42  C   -0.071561
    43  H    0.089570
    44  H    0.074583
    45  H    0.073314
    46  H    0.100122
    47  H    0.093396
    48  H    0.089942
    49  H    0.124669
    50  H    0.112850
    51  H    0.109266
    52  H    0.083481
    53  H    0.078967
    54  H    0.080895
    55  H    0.120858
    56  H    0.108945
    57  H    0.077538
    58  H    0.112146
    59  H    0.102490
    60  H    0.113837
    61  H    0.068968
    62  H    0.102041
    63  H    0.103783
    64  H    0.099520
    65  H    0.083115
    66  H    0.079411
    67  H    0.122846
    68  H    0.105301
    69  H    0.103983
    70  H    0.100658
    71  H    0.136420
    72  H    0.120246
    73  H    0.296191
    74  H    0.303615
    75  H    0.093404
    76  H    0.077946
    77  H    0.104632
    78  H    0.128648
    79  H    0.132964
    80  H    0.124672
    81  H    0.052087
    82  H    0.113076
    83  H    0.071814
    84  H    0.094352
    85  H    0.077151
    86  H    0.097861
    87  H    0.081758
    88  H    0.075540
    89  H    0.097553
    90  H    0.125161
    91  H    0.121705
    92  H    0.125419
    93  H    0.124130
    94  H    0.119269
    95  H    0.075947
    96  H    0.074590
    97  H    0.071983
    98  H    0.075008
 Sum of Mulliken charges =  -0.00000

 Dipole moment (field-independent basis, Debye):
    X=              0.6986    Y=             -1.0721    Z=              1.7937  Tot=              2.2034
 Quadrupole moment (field-independent basis, Debye-Ang):
   XX=           -286.6794   YY=           -242.9106   ZZ=           -258.9326
   XY=              2.1680   XZ=            -15.3753   YZ=              4.4823

 Normal termination of Gaussian 16 at Sat Jul 20 01:21:09 2019.
