 Gaussian 16, Revision A.03,
 Gaussian 16:  ES64L-G16RevA.03 25-Dec-2016

 -------------------------------------
 # td=(NStates=1) CAM-B3LYP/6-31G(d,p)
 -------------------------------------

 --
 TD
 --
 Symbolic Z-matrix:
 Charge =  0 Multiplicity = 1

                         Standard orientation:
 ---------------------------------------------------------------------
 Center     Atomic      Atomic             Coordinates (Angstroms)
 Number     Number       Type             X           Y           Z
 ---------------------------------------------------------------------
      1          8           0       14.829455   -2.154709   -0.270743
      2          8           0      -14.596750    2.243410    0.933879
      3          6           0       11.312650   -1.228131    1.018764
      4          6           0      -12.423018   -0.911792    0.532648
      5          6           0       12.797001   -1.631481    1.016407
      6          6           0      -13.801579   -0.032111    0.675456
      7          6           0       13.393557   -1.811833   -0.344757
      8          6           0      -13.354635    1.468502    0.823613
      9          6           0       11.153591   -0.114266    0.025082
     10          6           0      -11.295335   -0.132603   -0.194797
     11          6           0       13.277814   -0.431010   -1.090592
     12          6           0      -12.609557    1.923723   -0.383489
     13          6           0       11.946360    0.152949   -0.973021
     14          6           0      -11.454600    1.086926   -0.662294
     15          6           0       10.883542   -0.750821    2.448177
     16          6           0       10.547329   -2.569993    0.571818
     17          6           0      -11.992045   -1.428476    1.885668
     18          6           0      -12.941767   -2.240609   -0.170639
     19          6           0        9.713755    0.394941    0.136504
     20          6           0      -10.088412   -1.009441   -0.413488
     21          6           0       11.694745    1.165305   -2.050708
     22          6           0      -10.525401    1.826342   -1.554667
     23          6           0        9.394727    1.692292   -0.046917
     24          6           0       -8.781061   -0.646824   -0.247866
     25          6           0        8.023980    2.220598    0.061543
     26          6           0       -7.589486   -1.290121   -0.477012
     27          6           0        7.872253    3.663749    0.468121
     28          6           0       -7.810237   -2.759301   -0.879998
     29          6           0        6.912665    1.456867   -0.032361
     30          6           0       -6.375160   -0.638287   -0.306586
     31          6           0        5.574399    1.969131    0.161340
     32          6           0       -5.116629   -1.255513   -0.475433
     33          6           0        4.411023    1.100939   -0.003836
     34          6           0       -3.960573   -0.527535   -0.255061
     35          6           0        3.053523    1.523435    0.250052
     36          6           0       -2.657179   -0.977647   -0.355649
     37          6           0        2.834117    3.059169    0.514743
     38          6           0       -2.394514   -2.484813   -0.701796
     39          6           0        2.035737    0.554798   -0.034736
     40          6           0       -1.604366   -0.155058   -0.026910
     41          6           0        0.656662    0.741433    0.059047
     42          6           0       -0.272347   -0.252222   -0.144957
     43          1           0       13.282311   -0.756983    1.458116
     44          1           0       12.905488   -2.577444    1.606815
     45          1           0      -14.613384   -0.385802    1.234557
     46          1           0      -14.203438    0.170929   -0.491550
     47          1           0       12.680255   -2.464828   -0.844133
     48          1           0      -12.789736    1.676125    1.769148
     49          1           0       14.024330    0.238064   -0.516096
     50          1           0       13.472133   -0.591950   -2.079851
     51          1           0      -13.346731    2.175580   -1.206907
     52          1           0      -12.479172    3.050726   -0.095549
     53          1           0       11.225789   -1.575254    3.049191
     54          1           0        9.887055   -0.726973    2.447105
     55          1           0       11.275678    0.155834    2.532067
     56          1           0       10.593596   -2.680430   -0.531223
     57          1           0       10.765174   -3.438916    1.292843
     58          1           0        9.558891   -2.245083    0.844984
     59          1           0      -11.648107   -0.556931    2.604862
     60          1           0      -10.904945   -1.858396    1.935919
     61          1           0      -12.624116   -2.186639    2.326754
     62          1           0      -13.876785   -2.392895    0.253874
     63          1           0      -12.367905   -3.205609   -0.083547
     64          1           0      -13.046803   -2.013302   -1.240444
     65          1           0        8.813430   -0.093806    0.562385
     66          1           0      -10.252946   -1.909576   -0.735494
     67          1           0       10.802265    1.426614   -2.330408
     68          1           0       12.259963    2.003212   -1.846860
     69          1           0       12.102416    0.779779   -2.805981
     70          1           0      -11.143857    2.200778   -2.302578
     71          1           0       -9.956362    1.055420   -1.881639
     72          1           0      -10.056120    2.641563   -1.097511
     73          1           0       14.932477   -2.856912    0.175848
     74          1           0      -15.147891    2.033811    1.616957
     75          1           0       10.119819    2.371427   -0.323287
     76          1           0       -8.491527    0.317096    0.268459
     77          1           0        8.880407    4.228057    0.620441
     78          1           0        7.283447    4.224429   -0.239461
     79          1           0        7.521164    3.677659    1.641770
     80          1           0       -8.507138   -3.218525   -0.326335
     81          1           0       -8.012447   -2.849548   -2.028406
     82          1           0       -6.794720   -3.527813   -0.788600
     83          1           0        6.847457    0.459224   -0.439468
     84          1           0       -6.592280    0.453153   -0.169893
     85          1           0        5.520238    2.987122    0.483274
     86          1           0       -4.967086   -2.271748   -0.915751
     87          1           0        4.481238    0.059989   -0.351535
     88          1           0       -4.180803    0.532260   -0.130832
     89          1           0        3.177879    3.104613    1.439889
     90          1           0        1.712451    3.077416    0.413046
     91          1           0        3.153124    3.674454   -0.436954
     92          1           0       -3.047824   -3.044702    0.036966
     93          1           0       -2.650302   -2.650468   -1.870922
     94          1           0       -1.265784   -2.936036   -0.461966
     95          1           0        2.553861   -0.272760   -0.335293
     96          1           0       -1.796198    0.815307    0.283935
     97          1           0        0.241600    1.739878    0.482292
     98          1           0        0.179661   -1.078071   -0.706614
 ---------------------------------------------------------------------

 SCF Done:  E(RCAM-B3LYP) =  -1706.93121172     A.U. after   15 cycles

 Excitation energies and oscillator strengths:

 Excited State   1:      Singlet-A      2.0910 eV  592.93 nm  f=3.8301  <S**2>=0.000
     155 ->158        -0.14231
     156 ->157         0.69500
 This state for optimization and/or second-order correction.
 Total Energy, E(TD-HF/TD-DFT) =  -1706.85436781
 Copying the excited state density for this state as the 1-particle RhoCI density.

 The electronic state is 1-A.
 Alpha  occ. eigenvalues --  -19.20253 -19.18934 -10.30491 -10.30317 -10.28610
 Alpha  occ. eigenvalues --  -10.28108 -10.27985 -10.27443 -10.27405 -10.27322
 Alpha  occ. eigenvalues --  -10.27273 -10.27072 -10.27050 -10.26864 -10.26754
 Alpha  occ. eigenvalues --  -10.26735 -10.26708 -10.26577 -10.26207 -10.26149
 Alpha  occ. eigenvalues --  -10.26099 -10.26068 -10.26047 -10.25928 -10.25919
 Alpha  occ. eigenvalues --  -10.25747 -10.25681 -10.25538 -10.25453 -10.25403
 Alpha  occ. eigenvalues --  -10.25375 -10.25301 -10.25254 -10.25156 -10.24980
 Alpha  occ. eigenvalues --  -10.24973 -10.24939 -10.24249 -10.24222 -10.22590
 Alpha  occ. eigenvalues --  -10.22274 -10.21611  -1.10670  -1.07898  -0.94676
 Alpha  occ. eigenvalues --   -0.93545  -0.92461  -0.91460  -0.91007  -0.89939
 Alpha  occ. eigenvalues --   -0.88335  -0.87587  -0.87203  -0.85603  -0.84694
 Alpha  occ. eigenvalues --   -0.83178  -0.82316  -0.80730  -0.79939  -0.78629
 Alpha  occ. eigenvalues --   -0.77950  -0.77243  -0.76237  -0.76117  -0.75649
 Alpha  occ. eigenvalues --   -0.75585  -0.74860  -0.74581  -0.73544  -0.71435
 Alpha  occ. eigenvalues --   -0.69378  -0.67793  -0.66196  -0.65650  -0.64636
 Alpha  occ. eigenvalues --   -0.63832  -0.63082  -0.61865  -0.60405  -0.60031
 Alpha  occ. eigenvalues --   -0.59611  -0.59127  -0.58340  -0.57327  -0.56269
 Alpha  occ. eigenvalues --   -0.55985  -0.55436  -0.54979  -0.54394  -0.54026
 Alpha  occ. eigenvalues --   -0.53625  -0.53048  -0.52419  -0.52302  -0.52161
 Alpha  occ. eigenvalues --   -0.51351  -0.50988  -0.50445  -0.50072  -0.49693
 Alpha  occ. eigenvalues --   -0.49051  -0.48927  -0.48556  -0.48311  -0.48200
 Alpha  occ. eigenvalues --   -0.48145  -0.47906  -0.47522  -0.47278  -0.47089
 Alpha  occ. eigenvalues --   -0.46677  -0.46459  -0.45861  -0.45471  -0.45238
 Alpha  occ. eigenvalues --   -0.44886  -0.44582  -0.43948  -0.43578  -0.43263
 Alpha  occ. eigenvalues --   -0.43220  -0.42894  -0.42508  -0.42115  -0.42028
 Alpha  occ. eigenvalues --   -0.41602  -0.41495  -0.41367  -0.41101  -0.40685
 Alpha  occ. eigenvalues --   -0.40368  -0.39953  -0.39931  -0.39552  -0.39483
 Alpha  occ. eigenvalues --   -0.38645  -0.38582  -0.38246  -0.38124  -0.37677
 Alpha  occ. eigenvalues --   -0.37391  -0.36879  -0.36085  -0.35736  -0.35402
 Alpha  occ. eigenvalues --   -0.34980  -0.34745  -0.34308  -0.32975  -0.32603
 Alpha  occ. eigenvalues --   -0.30750  -0.30189  -0.28817  -0.26826  -0.23696
 Alpha  occ. eigenvalues --   -0.19113
 Alpha virt. eigenvalues --   -0.06447  -0.01048   0.02610   0.05829   0.08118
 Alpha virt. eigenvalues --    0.09652   0.11398   0.12249   0.12804   0.12921
 Alpha virt. eigenvalues --    0.13259   0.13718   0.14010   0.14209   0.14332

 Mulliken charges:
               1
     1  O   -0.538816
     2  O   -0.583234
     3  C   -0.069807
     4  C   -0.008842
     5  C   -0.174514
     6  C   -0.193783
     7  C    0.148553
     8  C    0.165160
     9  C    0.059164
    10  C    0.061590
    11  C   -0.212230
    12  C   -0.244431
    13  C    0.023608
    14  C    0.055311
    15  C   -0.278893
    16  C   -0.307068
    17  C   -0.297713
    18  C   -0.307539
    19  C   -0.122594
    20  C   -0.143226
    21  C   -0.328021
    22  C   -0.336966
    23  C   -0.093745
    24  C   -0.100228
    25  C    0.069989
    26  C    0.140911
    27  C   -0.376493
    28  C   -0.365093
    29  C   -0.109425
    30  C   -0.142777
    31  C   -0.107062
    32  C   -0.098618
    33  C   -0.128854
    34  C   -0.098483
    35  C    0.043742
    36  C    0.102845
    37  C   -0.342155
    38  C   -0.363419
    39  C   -0.091812
    40  C   -0.109360
    41  C   -0.105203
    42  C   -0.069836
    43  H    0.089083
    44  H    0.065751
    45  H    0.094533
    46  H    0.075729
    47  H    0.084214
    48  H    0.084516
    49  H    0.119516
    50  H    0.110234
    51  H    0.124267
    52  H    0.106004
    53  H    0.098041
    54  H    0.108696
    55  H    0.117498
    56  H    0.114028
    57  H    0.097798
    58  H    0.102323
    59  H    0.079507
    60  H    0.095005
    61  H    0.104001
    62  H    0.113009
    63  H    0.090802
    64  H    0.101896
    65  H    0.095732
    66  H    0.083331
    67  H    0.120811
    68  H    0.122018
    69  H    0.106528
    70  H    0.111871
    71  H    0.116000
    72  H    0.120709
    73  H    0.280980
    74  H    0.292635
    75  H    0.079554
    76  H    0.069036
    77  H    0.099699
    78  H    0.132757
    79  H    0.109122
    80  H    0.133789
    81  H    0.115921
    82  H    0.066632
    83  H    0.085002
    84  H    0.090818
    85  H    0.095601
    86  H    0.099802
    87  H    0.083331
    88  H    0.085743
    89  H    0.143120
    90  H    0.101870
    91  H    0.126214
    92  H    0.125326
    93  H    0.109281
    94  H    0.097058
    95  H    0.074739
    96  H    0.067738
    97  H    0.084469
    98  H    0.075677
 Sum of Mulliken charges =  -0.00000

 Dipole moment (field-independent basis, Debye):
    X=              0.9213    Y=             -0.9450    Z=              0.5948  Tot=              1.4476
 Quadrupole moment (field-independent basis, Debye-Ang):
   XX=           -287.7803   YY=           -245.1981   ZZ=           -259.0131
   XY=             13.5358   XZ=             -5.1929   YZ=             -0.0040

 Normal termination of Gaussian 16 at Sun Jul 14 15:13:51 2019.
