 Gaussian 16, Revision A.03,
 Gaussian 16:  ES64L-G16RevA.03 25-Dec-2016

 -------------------------------------
 # td=(NStates=1) CAM-B3LYP/6-31G(d,p)
 -------------------------------------

 --
 TD
 --
 Symbolic Z-matrix:
 Charge =  0 Multiplicity = 1

                         Standard orientation:
 ---------------------------------------------------------------------
 Center     Atomic      Atomic             Coordinates (Angstroms)
 Number     Number       Type             X           Y           Z
 ---------------------------------------------------------------------
      1          8           0       14.599203   -2.300201   -0.367648
      2          8           0      -14.809531    1.790303    0.919086
      3          6           0       11.333201   -1.366125    1.156613
      4          6           0      -12.396546   -1.085628    0.694255
      5          6           0       12.883829   -1.604847    1.148619
      6          6           0      -13.720921   -0.259088    0.686387
      7          6           0       13.208393   -2.015507   -0.311362
      8          6           0      -13.461892    1.187253    0.954657
      9          6           0       10.938201   -0.215140    0.052314
     10          6           0      -11.333282   -0.216399   -0.202865
     11          6           0       13.148783   -0.727300   -1.237012
     12          6           0      -12.750392    1.843723   -0.208021
     13          6           0       11.758618   -0.002471   -1.007377
     14          6           0      -11.535961    1.065794   -0.543292
     15          6           0       11.028225   -0.792340    2.522589
     16          6           0       10.342078   -2.622832    0.880663
     17          6           0      -11.807120   -1.449819    1.986082
     18          6           0      -12.592835   -2.353276   -0.082585
     19          6           0        9.650725    0.417982    0.218729
     20          6           0      -10.070608   -0.961033   -0.512091
     21          6           0       11.529415    1.078517   -1.979095
     22          6           0      -10.499948    1.796197   -1.282658
     23          6           0        9.302767    1.663427    0.019371
     24          6           0       -8.831494   -0.484622   -0.176317
     25          6           0        8.111421    2.247485    0.114514
     26          6           0       -7.595150   -1.244935   -0.532757
     27          6           0        8.001077    3.716997    0.241589
     28          6           0       -7.627815   -2.677841   -1.043959
     29          6           0        6.874386    1.398254    0.036037
     30          6           0       -6.371918   -0.608648   -0.399593
     31          6           0        5.633498    2.061431    0.182172
     32          6           0       -5.083567   -1.004578   -0.598678
     33          6           0        4.518336    1.227475    0.011114
     34          6           0       -3.951069   -0.249186   -0.271302
     35          6           0        3.118442    1.618691    0.221010
     36          6           0       -2.563977   -0.722245   -0.575688
     37          6           0        2.838169    3.025817    0.684211
     38          6           0       -2.334130   -2.068459   -1.116753
     39          6           0        2.083161    0.704580   -0.198036
     40          6           0       -1.588993    0.241916   -0.238730
     41          6           0        0.759886    0.980154   -0.110026
     42          6           0       -0.216962   -0.054746   -0.357466
     43          1           0       13.500239   -0.634610    1.502142
     44          1           0       13.021515   -2.555573    1.962030
     45          1           0      -14.594423   -0.417965    1.376670
     46          1           0      -14.290504   -0.435005   -0.102058
     47          1           0       12.504967   -2.650649   -0.740140
     48          1           0      -12.916005    1.346102    1.976505
     49          1           0       13.946148    0.135064   -0.776292
     50          1           0       13.307614   -1.003851   -2.351276
     51          1           0      -13.569677    2.085064   -0.963281
     52          1           0      -12.336999    2.833250    0.013831
     53          1           0       11.238719   -1.514795    3.103506
     54          1           0        9.967557   -0.532546    2.677014
     55          1           0       11.774793   -0.232623    2.952989
     56          1           0       10.499226   -3.192529   -0.032863
     57          1           0       10.751521   -3.446961    1.693163
     58          1           0        9.434008   -2.154100    1.028431
     59          1           0      -11.784970   -0.475788    2.711203
     60          1           0      -10.653741   -1.762373    1.673241
     61          1           0      -12.526682   -2.203927    2.458428
     62          1           0      -13.386836   -2.950876    0.602172
     63          1           0      -11.873351   -3.058849   -0.257526
     64          1           0      -12.964889   -2.252402   -1.162849
     65          1           0        9.054255   -0.508863    0.616446
     66          1           0      -10.196257   -1.985048   -0.776904
     67          1           0       10.477118    1.348377   -1.986712
     68          1           0       11.960312    1.910497   -1.765709
     69          1           0       11.980082    0.879785   -2.938196
     70          1           0      -11.191954    2.428408   -1.946153
     71          1           0       -9.792854    1.299252   -1.916260
     72          1           0       -9.797708    2.726803   -0.924013
     73          1           0       14.578924   -3.044470    0.119451
     74          1           0      -15.454484    1.399127    1.630690
     75          1           0       10.186669    2.357128   -0.383317
     76          1           0       -8.486568    0.437249    0.143249
     77          1           0        8.973706    4.283445    0.061935
     78          1           0        7.171571    4.148931   -0.439943
     79          1           0        7.577269    4.092601    1.288449
     80          1           0       -8.199916   -3.400626   -0.335095
     81          1           0       -7.951224   -2.678887   -2.145484
     82          1           0       -6.550290   -3.052837   -1.243201
     83          1           0        6.958787    0.319836   -0.021478
     84          1           0       -6.562052    0.544923   -0.150228
     85          1           0        5.516392    3.133532    0.385472
     86          1           0       -5.128932   -2.079234   -0.996965
     87          1           0        4.660086    0.270220   -0.465692
     88          1           0       -4.249236    0.877055   -0.194045
     89          1           0        3.906542    3.168062    1.418953
     90          1           0        1.777618    3.365130    1.107581
     91          1           0        3.105407    3.709013   -0.223385
     92          1           0       -3.112526   -2.567470   -0.465805
     93          1           0       -2.734773   -2.157135   -2.034279
     94          1           0       -1.349497   -2.676359   -1.195509
     95          1           0        2.394434   -0.340186   -0.407707
     96          1           0       -1.836600    1.154205    0.212395
     97          1           0        0.517579    1.910280    0.337841
     98          1           0        0.064334   -1.049387   -1.074504
 ---------------------------------------------------------------------

 SCF Done:  E(RCAM-B3LYP) =  -1706.83760312     A.U. after   16 cycles

 Excitation energies and oscillator strengths:

 Excited State   1:      Singlet-A      1.8885 eV  656.51 nm  f=3.5150  <S**2>=0.000
     155 ->158         0.14422
     156 ->157         0.69567
     156 <-157        -0.10386
 This state for optimization and/or second-order correction.
 Total Energy, E(TD-HF/TD-DFT) =  -1706.76820096
 Copying the excited state density for this state as the 1-particle RhoCI density.

 The electronic state is 1-A.
 Alpha  occ. eigenvalues --  -19.20952 -19.20529 -10.30964 -10.30439 -10.28999
 Alpha  occ. eigenvalues --  -10.28597 -10.28269 -10.28121 -10.28073 -10.28044
 Alpha  occ. eigenvalues --  -10.27992 -10.27716 -10.27669 -10.27620 -10.27607
 Alpha  occ. eigenvalues --  -10.27234 -10.26932 -10.26860 -10.26703 -10.26595
 Alpha  occ. eigenvalues --  -10.26574 -10.26543 -10.26488 -10.26473 -10.26406
 Alpha  occ. eigenvalues --  -10.26326 -10.26295 -10.26156 -10.26090 -10.26033
 Alpha  occ. eigenvalues --  -10.25999 -10.25977 -10.25892 -10.25830 -10.25564
 Alpha  occ. eigenvalues --  -10.25407 -10.25279 -10.25184 -10.25170 -10.24105
 Alpha  occ. eigenvalues --  -10.22199 -10.21871  -1.11738  -1.06521  -0.93510
 Alpha  occ. eigenvalues --   -0.92895  -0.91811  -0.91159  -0.90484  -0.89661
 Alpha  occ. eigenvalues --   -0.88066  -0.87289  -0.86642  -0.85693  -0.84079
 Alpha  occ. eigenvalues --   -0.83035  -0.82058  -0.80560  -0.79951  -0.78977
 Alpha  occ. eigenvalues --   -0.77541  -0.76428  -0.76099  -0.75976  -0.75343
 Alpha  occ. eigenvalues --   -0.75178  -0.74458  -0.73978  -0.72271  -0.70336
 Alpha  occ. eigenvalues --   -0.68927  -0.66738  -0.65549  -0.64781  -0.63613
 Alpha  occ. eigenvalues --   -0.63159  -0.62395  -0.61561  -0.60535  -0.59908
 Alpha  occ. eigenvalues --   -0.59345  -0.58995  -0.58524  -0.57654  -0.56170
 Alpha  occ. eigenvalues --   -0.55716  -0.54883  -0.54554  -0.53902  -0.53432
 Alpha  occ. eigenvalues --   -0.53391  -0.53061  -0.52504  -0.51210  -0.50562
 Alpha  occ. eigenvalues --   -0.50129  -0.49997  -0.49496  -0.49167  -0.49038
 Alpha  occ. eigenvalues --   -0.48817  -0.48633  -0.48144  -0.48006  -0.47485
 Alpha  occ. eigenvalues --   -0.47196  -0.47112  -0.46872  -0.46529  -0.46038
 Alpha  occ. eigenvalues --   -0.45909  -0.45695  -0.45460  -0.45068  -0.44939
 Alpha  occ. eigenvalues --   -0.44567  -0.44009  -0.43673  -0.43510  -0.43278
 Alpha  occ. eigenvalues --   -0.42912  -0.42573  -0.42370  -0.41851  -0.41666
 Alpha  occ. eigenvalues --   -0.41608  -0.41535  -0.41027  -0.40679  -0.40464
 Alpha  occ. eigenvalues --   -0.40179  -0.39970  -0.39903  -0.39807  -0.39639
 Alpha  occ. eigenvalues --   -0.38991  -0.38790  -0.38783  -0.38148  -0.37811
 Alpha  occ. eigenvalues --   -0.37180  -0.37157  -0.36408  -0.36261  -0.35968
 Alpha  occ. eigenvalues --   -0.35211  -0.34018  -0.33146  -0.32280  -0.32179
 Alpha  occ. eigenvalues --   -0.31872  -0.28874  -0.28088  -0.25811  -0.22795
 Alpha  occ. eigenvalues --   -0.18262
 Alpha virt. eigenvalues --   -0.06464  -0.01516   0.02070   0.05963   0.07860
 Alpha virt. eigenvalues --    0.09504   0.10497   0.10757   0.10824   0.11045
 Alpha virt. eigenvalues --    0.11748   0.12342   0.12443   0.12825   0.13457

 Mulliken charges:
               1
     1  O   -0.522440
     2  O   -0.593044
     3  C   -0.048309
     4  C    0.000821
     5  C   -0.190334
     6  C   -0.151643
     7  C    0.146534
     8  C    0.156036
     9  C    0.044170
    10  C    0.040816
    11  C   -0.199657
    12  C   -0.217035
    13  C    0.034895
    14  C    0.081457
    15  C   -0.279645
    16  C   -0.289184
    17  C   -0.265157
    18  C   -0.302111
    19  C   -0.069382
    20  C   -0.172999
    21  C   -0.371335
    22  C   -0.378106
    23  C   -0.146096
    24  C   -0.044173
    25  C    0.107912
    26  C    0.099637
    27  C   -0.386027
    28  C   -0.375513
    29  C   -0.111000
    30  C   -0.127852
    31  C   -0.087062
    32  C   -0.076013
    33  C   -0.120262
    34  C   -0.139109
    35  C    0.091286
    36  C    0.085393
    37  C   -0.367507
    38  C   -0.373981
    39  C   -0.106763
    40  C   -0.095114
    41  C   -0.075775
    42  C   -0.103394
    43  H    0.108625
    44  H    0.053531
    45  H    0.051810
    46  H    0.115665
    47  H    0.099248
    48  H    0.082569
    49  H    0.094140
    50  H    0.105253
    51  H    0.131110
    52  H    0.111868
    53  H    0.101124
    54  H    0.100145
    55  H    0.102819
    56  H    0.114735
    57  H    0.074509
    58  H    0.117842
    59  H    0.076667
    60  H    0.096356
    61  H    0.097437
    62  H    0.067626
    63  H    0.113953
    64  H    0.096779
    65  H    0.063776
    66  H    0.097840
    67  H    0.118580
    68  H    0.132423
    69  H    0.092133
    70  H    0.092120
    71  H    0.129888
    72  H    0.090188
    73  H    0.286034
    74  H    0.302878
    75  H    0.083519
    76  H    0.089882
    77  H    0.109374
    78  H    0.114798
    79  H    0.110183
    80  H    0.116080
    81  H    0.121923
    82  H    0.096704
    83  H    0.095492
    84  H    0.049850
    85  H    0.098977
    86  H    0.072039
    87  H    0.087985
    88  H    0.099635
    89  H    0.086079
    90  H    0.112715
    91  H    0.123826
    92  H    0.124757
    93  H    0.143229
    94  H    0.115936
    95  H    0.082165
    96  H    0.087015
    97  H    0.078883
    98  H    0.076349
 Sum of Mulliken charges =  -0.00000

 Dipole moment (field-independent basis, Debye):
    X=             -0.5487    Y=             -1.8607    Z=              0.4480  Tot=              1.9910
 Quadrupole moment (field-independent basis, Debye-Ang):
   XX=           -283.8941   YY=           -243.9612   ZZ=           -262.8988
   XY=             10.1087   XZ=              1.6086   YZ=              3.1287

 Normal termination of Gaussian 16 at Tue Jul 16 21:38:06 2019.
