 Gaussian 16, Revision A.03,
 Gaussian 16:  ES64L-G16RevA.03 25-Dec-2016

 -------------------------------------
 # td=(NStates=1) CAM-B3LYP/6-31G(d,p)
 -------------------------------------

 --
 TD
 --
 Symbolic Z-matrix:
 Charge =  0 Multiplicity = 1

                         Standard orientation:
 ---------------------------------------------------------------------
 Center     Atomic      Atomic             Coordinates (Angstroms)
 Number     Number       Type             X           Y           Z
 ---------------------------------------------------------------------
      1          8           0       14.625743   -2.367003   -0.069504
      2          8           0      -14.798605    1.631318    1.328876
      3          6           0       11.149578   -1.671807    0.953832
      4          6           0      -12.367653   -1.190495    0.419131
      5          6           0       12.608665   -1.934691    1.122006
      6          6           0      -13.683330   -0.467072    0.591261
      7          6           0       13.329556   -1.972123   -0.202031
      8          6           0      -13.637848    1.005069    1.066632
      9          6           0       10.952866   -0.291915    0.045717
     10          6           0      -11.288129   -0.250532   -0.221685
     11          6           0       13.277402   -0.660185   -0.966092
     12          6           0      -12.740276    1.822375    0.176377
     13          6           0       11.950356    0.021935   -0.755300
     14          6           0      -11.503868    1.139754   -0.322348
     15          6           0       10.681751   -1.261781    2.387095
     16          6           0       10.268546   -2.794773    0.352351
     17          6           0      -11.985208   -1.679243    1.843593
     18          6           0      -12.660861   -2.387998   -0.457545
     19          6           0        9.678463    0.317240    0.175046
     20          6           0      -10.009838   -0.916414   -0.510944
     21          6           0       11.848721    1.287687   -1.667234
     22          6           0      -10.487969    2.013329   -1.034206
     23          6           0        9.401491    1.774710    0.126968
     24          6           0       -8.841124   -0.428753   -0.184224
     25          6           0        8.058135    2.278864    0.359839
     26          6           0       -7.556237   -1.104534   -0.545357
     27          6           0        8.068425    3.651268    0.518382
     28          6           0       -7.614255   -2.565877   -1.011841
     29          6           0        6.939984    1.483154    0.104310
     30          6           0       -6.358745   -0.465292   -0.380235
     31          6           0        5.640807    2.025066    0.323576
     32          6           0       -5.039888   -1.021157   -0.679288
     33          6           0        4.485384    1.381633   -0.177256
     34          6           0       -3.992861   -0.217544   -0.397382
     35          6           0        3.173153    1.779490   -0.111275
     36          6           0       -2.602201   -0.564398   -0.636020
     37          6           0        2.916292    3.265964    0.182861
     38          6           0       -2.332741   -1.956760   -1.018908
     39          6           0        2.095048    0.893101   -0.282938
     40          6           0       -1.646628    0.353661   -0.375762
     41          6           0        0.689538    1.125268   -0.228845
     42          6           0       -0.192723    0.119651   -0.434876
     43          1           0       12.925153   -1.130748    1.821307
     44          1           0       12.795422   -2.876825    1.684322
     45          1           0      -14.425471   -1.048231    1.240024
     46          1           0      -14.229350   -0.317333   -0.408194
     47          1           0       12.627324   -2.833583   -0.751897
     48          1           0      -13.118702    0.932470    2.106529
     49          1           0       14.078512    0.192271   -0.654523
     50          1           0       13.517885   -0.730287   -2.068183
     51          1           0      -13.335300    2.005572   -0.778923
     52          1           0      -12.500073    2.809206    0.495880
     53          1           0       10.889589   -2.188759    3.055748
     54          1           0        9.559813   -0.941119    2.363506
     55          1           0       11.252161   -0.579727    2.859854
     56          1           0       10.916316   -3.113783   -0.497427
     57          1           0       10.093334   -3.633738    1.013412
     58          1           0        9.225444   -2.515493    0.233967
     59          1           0      -11.918631   -0.882463    2.571088
     60          1           0      -11.048151   -2.305728    1.645186
     61          1           0      -12.584202   -2.688653    2.142957
     62          1           0      -13.569815   -2.948288   -0.471199
     63          1           0      -11.884749   -3.337360   -0.760020
     64          1           0      -12.715142   -1.854451   -1.470017
     65          1           0        8.798022   -0.246867    0.432482
     66          1           0      -10.120645   -1.924925   -0.763839
     67          1           0       10.800673    1.737175   -1.755161
     68          1           0       12.244973    2.129457   -1.074407
     69          1           0       12.647709    1.099774   -2.401065
     70          1           0      -11.018446    2.915109   -1.543246
     71          1           0       -9.865842    1.528925   -1.704625
     72          1           0       -9.730253    2.395117   -0.237557
     73          1           0       14.666004   -2.995808    0.543239
     74          1           0      -15.438709    1.275689    1.939599
     75          1           0       10.216726    2.489412   -0.118057
     76          1           0       -8.654819    0.594214    0.162756
     77          1           0        9.078833    4.119982    0.329544
     78          1           0        7.397310    4.141191   -0.196994
     79          1           0        7.440719    3.890646    1.479336
     80          1           0       -8.096878   -3.135574   -0.355760
     81          1           0       -7.811676   -2.514957   -2.170026
     82          1           0       -6.775031   -3.049035   -1.003189
     83          1           0        7.113626    0.587003   -0.426680
     84          1           0       -6.375864    0.342210   -0.136208
     85          1           0        5.922981    3.105828    0.530307
     86          1           0       -4.991946   -1.941014   -1.035285
     87          1           0        4.610781    0.196011   -0.546463
     88          1           0       -4.223665    0.922538   -0.221375
     89          1           0        3.276108    3.678801    1.159081
     90          1           0        1.875524    3.397732    0.305207
     91          1           0        3.534890    3.740550   -0.683373
     92          1           0       -2.165771   -2.677396   -0.112805
     93          1           0       -3.155424   -2.338821   -1.763455
     94          1           0       -1.126739   -2.020714   -1.778793
     95          1           0        2.348647   -0.048173   -0.328383
     96          1           0       -2.055549    1.379419   -0.030255
     97          1           0        0.216807    2.211210    0.023724
     98          1           0        0.217809   -0.727407   -0.850967
 ---------------------------------------------------------------------

 SCF Done:  E(RCAM-B3LYP) =  -1706.86418249     A.U. after   15 cycles

 Excitation energies and oscillator strengths:

 Excited State   1:      Singlet-A      2.2487 eV  551.37 nm  f=3.1338  <S**2>=0.000
     155 ->158        -0.15254
     156 ->157         0.68586
 This state for optimization and/or second-order correction.
 Total Energy, E(TD-HF/TD-DFT) =  -1706.78154540
 Copying the excited state density for this state as the 1-particle RhoCI density.

 The electronic state is 1-A.
 Alpha  occ. eigenvalues --  -19.21195 -19.21169 -10.32037 -10.30978 -10.29325
 Alpha  occ. eigenvalues --  -10.27819 -10.27606 -10.27554 -10.27513 -10.27354
 Alpha  occ. eigenvalues --  -10.27318 -10.27272 -10.27208 -10.27050 -10.26940
 Alpha  occ. eigenvalues --  -10.26825 -10.26651 -10.26627 -10.26607 -10.26550
 Alpha  occ. eigenvalues --  -10.26533 -10.26223 -10.26059 -10.25965 -10.25784
 Alpha  occ. eigenvalues --  -10.25724 -10.25696 -10.25497 -10.25478 -10.25463
 Alpha  occ. eigenvalues --  -10.25454 -10.25448 -10.25402 -10.25366 -10.25144
 Alpha  occ. eigenvalues --  -10.24997 -10.24968 -10.24828 -10.24639 -10.24566
 Alpha  occ. eigenvalues --  -10.23712 -10.22907  -1.13841  -1.11666  -0.93650
 Alpha  occ. eigenvalues --   -0.93071  -0.92492  -0.91929  -0.90856  -0.89771
 Alpha  occ. eigenvalues --   -0.87410  -0.87213  -0.86884  -0.85608  -0.84974
 Alpha  occ. eigenvalues --   -0.83103  -0.82091  -0.80205  -0.79780  -0.78107
 Alpha  occ. eigenvalues --   -0.77103  -0.76597  -0.76248  -0.75636  -0.75451
 Alpha  occ. eigenvalues --   -0.75328  -0.75094  -0.74402  -0.73501  -0.70555
 Alpha  occ. eigenvalues --   -0.69641  -0.68148  -0.66738  -0.65781  -0.64544
 Alpha  occ. eigenvalues --   -0.63436  -0.63069  -0.62285  -0.61251  -0.59972
 Alpha  occ. eigenvalues --   -0.59448  -0.59174  -0.58493  -0.57762  -0.56563
 Alpha  occ. eigenvalues --   -0.56155  -0.55578  -0.55228  -0.54989  -0.54222
 Alpha  occ. eigenvalues --   -0.53356  -0.53130  -0.52234  -0.51913  -0.51136
 Alpha  occ. eigenvalues --   -0.50821  -0.50528  -0.50118  -0.49674  -0.49441
 Alpha  occ. eigenvalues --   -0.49021  -0.48734  -0.48259  -0.48189  -0.47968
 Alpha  occ. eigenvalues --   -0.47848  -0.47520  -0.47097  -0.46848  -0.46373
 Alpha  occ. eigenvalues --   -0.45986  -0.45589  -0.45376  -0.44882  -0.44855
 Alpha  occ. eigenvalues --   -0.44393  -0.44070  -0.43811  -0.43585  -0.43500
 Alpha  occ. eigenvalues --   -0.43280  -0.43013  -0.42669  -0.42387  -0.42050
 Alpha  occ. eigenvalues --   -0.41776  -0.41712  -0.41477  -0.40919  -0.40840
 Alpha  occ. eigenvalues --   -0.40672  -0.40427  -0.40015  -0.39542  -0.39129
 Alpha  occ. eigenvalues --   -0.38685  -0.38524  -0.38117  -0.37891  -0.37500
 Alpha  occ. eigenvalues --   -0.37274  -0.36876  -0.36748  -0.36252  -0.35218
 Alpha  occ. eigenvalues --   -0.34959  -0.34881  -0.33050  -0.32050  -0.31587
 Alpha  occ. eigenvalues --   -0.30726  -0.29936  -0.27979  -0.25873  -0.22961
 Alpha  occ. eigenvalues --   -0.19501
 Alpha virt. eigenvalues --   -0.05379  -0.00944   0.02156   0.05254   0.07930
 Alpha virt. eigenvalues --    0.09944   0.10517   0.11450   0.11991   0.12182
 Alpha virt. eigenvalues --    0.12284   0.12858   0.13535   0.13654   0.13889

 Mulliken charges:
               1
     1  O   -0.519761
     2  O   -0.554111
     3  C   -0.020053
     4  C    0.012743
     5  C   -0.213029
     6  C   -0.193272
     7  C    0.205686
     8  C    0.211812
     9  C    0.075907
    10  C    0.028468
    11  C   -0.226584
    12  C   -0.222558
    13  C    0.060603
    14  C    0.057890
    15  C   -0.298584
    16  C   -0.299719
    17  C   -0.288457
    18  C   -0.320609
    19  C   -0.128344
    20  C   -0.110582
    21  C   -0.374408
    22  C   -0.364602
    23  C   -0.148987
    24  C   -0.077327
    25  C    0.118373
    26  C    0.053227
    27  C   -0.421622
    28  C   -0.354851
    29  C   -0.091259
    30  C   -0.022542
    31  C   -0.089096
    32  C   -0.060928
    33  C   -0.143873
    34  C   -0.119326
    35  C    0.116888
    36  C    0.142823
    37  C   -0.352703
    38  C   -0.344644
    39  C   -0.124040
    40  C   -0.137677
    41  C   -0.064197
    42  C   -0.083800
    43  H    0.103549
    44  H    0.081305
    45  H    0.075685
    46  H    0.078620
    47  H    0.036957
    48  H    0.035860
    49  H    0.108050
    50  H    0.122777
    51  H    0.109815
    52  H    0.118711
    53  H    0.073136
    54  H    0.090398
    55  H    0.116417
    56  H    0.104125
    57  H    0.100066
    58  H    0.108648
    59  H    0.113097
    60  H    0.093518
    61  H    0.079508
    62  H    0.117838
    63  H    0.068124
    64  H    0.101912
    65  H    0.098555
    66  H    0.090062
    67  H    0.123846
    68  H    0.114920
    69  H    0.102340
    70  H    0.094809
    71  H    0.138990
    72  H    0.105317
    73  H    0.288943
    74  H    0.313400
    75  H    0.085842
    76  H    0.077659
    77  H    0.116734
    78  H    0.136598
    79  H    0.123205
    80  H    0.124182
    81  H    0.110328
    82  H    0.108500
    83  H    0.089350
    84  H   -0.013724
    85  H    0.073008
    86  H    0.069739
    87  H    0.065507
    88  H    0.080990
    89  H    0.113881
    90  H    0.107989
    91  H    0.113422
    92  H    0.128916
    93  H    0.111628
    94  H    0.043028
    95  H    0.069282
    96  H    0.077682
    97  H    0.077102
    98  H    0.086983
 Sum of Mulliken charges =  -0.00000

 Dipole moment (field-independent basis, Debye):
    X=              0.0583    Y=             -0.8953    Z=              1.2732  Tot=              1.5576
 Quadrupole moment (field-independent basis, Debye-Ang):
   XX=           -240.4061   YY=           -243.5917   ZZ=           -264.0106
   XY=             12.2016   XZ=              1.3301   YZ=             -0.7626

 Normal termination of Gaussian 16 at Fri Jul 19 22:11:56 2019.
