 Gaussian 16, Revision A.03,
 Gaussian 16:  ES64L-G16RevA.03 25-Dec-2016

 -------------------------------------
 # td=(NStates=1) CAM-B3LYP/6-31G(d,p)
 -------------------------------------

 --
 TD
 --
 Symbolic Z-matrix:
 Charge =  0 Multiplicity = 1

                         Standard orientation:
 ---------------------------------------------------------------------
 Center     Atomic      Atomic             Coordinates (Angstroms)
 Number     Number       Type             X           Y           Z
 ---------------------------------------------------------------------
      1          8           0       14.656235   -2.403808   -0.274485
      2          8           0      -14.602693    1.913265    1.149653
      3          6           0       11.051391   -1.611633    0.901857
      4          6           0      -12.290392   -1.095460    0.646291
      5          6           0       12.562494   -1.860659    0.971675
      6          6           0      -13.506978   -0.318654    0.826262
      7          6           0       13.242415   -1.988188   -0.374609
      8          6           0      -13.306378    1.171334    1.061005
      9          6           0       10.716916   -0.334272   -0.033643
     10          6           0      -11.242432   -0.308552   -0.272564
     11          6           0       13.286321   -0.553056   -0.915048
     12          6           0      -12.731093    1.845738   -0.197184
     13          6           0       11.880248    0.134315   -0.821246
     14          6           0      -11.550813    0.975577   -0.670687
     15          6           0       10.641784   -1.330675    2.348286
     16          6           0       10.145361   -2.752789    0.383498
     17          6           0      -11.625049   -1.346455    2.028044
     18          6           0      -12.632836   -2.364599   -0.103153
     19          6           0        9.546163    0.327617    0.184724
     20          6           0      -10.016765   -0.991622   -0.543828
     21          6           0       11.753881    1.268142   -1.817763
     22          6           0      -10.704779    1.582392   -1.730199
     23          6           0        9.310892    1.653273    0.033334
     24          6           0       -8.763161   -0.540486   -0.558043
     25          6           0        8.064423    2.322170    0.181212
     26          6           0       -7.561914   -1.242494   -0.733213
     27          6           0        7.998521    3.862287    0.423491
     28          6           0       -7.693222   -2.638977   -1.160704
     29          6           0        6.855781    1.646636    0.071415
     30          6           0       -6.287703   -0.570124   -0.565986
     31          6           0        5.642453    2.152131    0.182327
     32          6           0       -5.022806   -1.094139   -0.525217
     33          6           0        4.445452    1.372687    0.004097
     34          6           0       -3.877926   -0.313602   -0.348736
     35          6           0        3.111754    1.828941    0.243314
     36          6           0       -2.582495   -0.641158   -0.416991
     37          6           0        2.832265    3.295459    0.589541
     38          6           0       -2.146179   -2.143304   -0.669492
     39          6           0        2.080254    0.924646   -0.105732
     40          6           0       -1.625981    0.194412   -0.186455
     41          6           0        0.672779    1.123139   -0.029982
     42          6           0       -0.177738    0.141190   -0.268633
     43          1           0       13.146686   -1.068175    1.443703
     44          1           0       12.941089   -2.791970    1.637579
     45          1           0      -13.883918   -0.878021    1.808060
     46          1           0      -14.153093   -0.505183   -0.013469
     47          1           0       12.796931   -2.795859   -0.895017
     48          1           0      -12.681262    1.402431    1.827284
     49          1           0       14.020423   -0.021810   -0.110956
     50          1           0       13.478566   -0.663148   -1.837672
     51          1           0      -13.328681    1.941036   -0.974544
     52          1           0      -12.428342    2.738244    0.031857
     53          1           0       10.697057   -2.343551    2.923918
     54          1           0        9.417135   -1.282981    2.447027
     55          1           0       11.183389   -0.526854    2.800378
     56          1           0       10.412266   -3.089967   -0.565543
     57          1           0       10.313575   -3.522582    1.099894
     58          1           0        8.968157   -2.623534    0.538299
     59          1           0      -11.211415   -0.435681    2.347013
     60          1           0      -10.706282   -1.953296    1.891520
     61          1           0      -12.528002   -1.557799    2.690068
     62          1           0      -13.671955   -2.752099    0.386325
     63          1           0      -11.982818   -3.370408    0.288359
     64          1           0      -12.767078   -2.247614   -1.115534
     65          1           0        8.719221   -0.276539    0.512664
     66          1           0      -10.128357   -2.095088   -0.410142
     67          1           0       10.715891    1.507350   -2.034961
     68          1           0       12.196479    2.256222   -1.275794
     69          1           0       12.449657    1.079334   -2.609122
     70          1           0      -11.196915    2.008973   -2.574207
     71          1           0       -9.917879    0.832524   -2.029322
     72          1           0      -10.098239    2.521604   -1.165325
     73          1           0       14.555872   -3.126317    0.343677
     74          1           0      -15.195589    1.454038    1.865996
     75          1           0       10.141365    2.259887   -0.230609
     76          1           0       -8.690727    0.463637   -0.369722
     77          1           0        9.019089    4.121378    0.432332
     78          1           0        7.396292    4.365350   -0.396921
     79          1           0        7.598441    4.092265    1.503891
     80          1           0       -8.033995   -3.348388   -0.238561
     81          1           0       -8.361729   -2.904788   -1.966794
     82          1           0       -6.780134   -2.967115   -1.327883
     83          1           0        6.802931    0.526139   -0.396624
     84          1           0       -6.512320    0.661853   -0.194308
     85          1           0        5.788551    3.167964    0.433508
     86          1           0       -4.849466   -2.167066   -0.770904
     87          1           0        4.443130    0.304391   -0.219596
     88          1           0       -3.987265    0.780233   -0.211448
     89          1           0        3.283406    3.672919    1.642179
     90          1           0        1.836395    3.481182    0.666389
     91          1           0        3.150123    3.928361   -0.210819
     92          1           0       -2.492065   -2.737424    0.075455
     93          1           0       -2.689863   -2.298399   -1.613664
     94          1           0       -1.258776   -2.351939   -0.650084
     95          1           0        2.354226   -0.105001   -0.588465
     96          1           0       -2.057131    1.204082    0.293718
     97          1           0        0.213884    2.013465    0.370459
     98          1           0        0.155271   -0.739076   -0.492486
 ---------------------------------------------------------------------

 SCF Done:  E(RCAM-B3LYP) =  -1706.89428455     A.U. after   16 cycles

 Excitation energies and oscillator strengths:

 Excited State   1:      Singlet-A      1.9691 eV  629.66 nm  f=3.9738  <S**2>=0.000
     155 ->158         0.17939
     156 ->157         0.68324
 This state for optimization and/or second-order correction.
 Total Energy, E(TD-HF/TD-DFT) =  -1706.82192267
 Copying the excited state density for this state as the 1-particle RhoCI density.

 The electronic state is 1-A.
 Alpha  occ. eigenvalues --  -19.21060 -19.20750 -10.29997 -10.29969 -10.28446
 Alpha  occ. eigenvalues --  -10.28418 -10.28390 -10.28041 -10.27532 -10.27435
 Alpha  occ. eigenvalues --  -10.27197 -10.26986 -10.26935 -10.26863 -10.26861
 Alpha  occ. eigenvalues --  -10.26820 -10.26601 -10.26526 -10.26376 -10.26194
 Alpha  occ. eigenvalues --  -10.26190 -10.26155 -10.26044 -10.26041 -10.25986
 Alpha  occ. eigenvalues --  -10.25820 -10.25800 -10.25639 -10.25501 -10.25500
 Alpha  occ. eigenvalues --  -10.25411 -10.25360 -10.25350 -10.25323 -10.25246
 Alpha  occ. eigenvalues --  -10.25194 -10.24949 -10.24864 -10.24779 -10.24240
 Alpha  occ. eigenvalues --  -10.23159 -10.23123  -1.08500  -1.05734  -0.94056
 Alpha  occ. eigenvalues --   -0.93246  -0.93194  -0.91757  -0.91144  -0.90295
 Alpha  occ. eigenvalues --   -0.88096  -0.87628  -0.86853  -0.86518  -0.85632
 Alpha  occ. eigenvalues --   -0.83583  -0.82724  -0.80541  -0.80024  -0.79211
 Alpha  occ. eigenvalues --   -0.77526  -0.76839  -0.76570  -0.76486  -0.76142
 Alpha  occ. eigenvalues --   -0.75935  -0.75663  -0.75147  -0.73161  -0.70576
 Alpha  occ. eigenvalues --   -0.69327  -0.68047  -0.66798  -0.65206  -0.64258
 Alpha  occ. eigenvalues --   -0.63325  -0.62860  -0.61850  -0.60915  -0.60040
 Alpha  occ. eigenvalues --   -0.59639  -0.59110  -0.58600  -0.57886  -0.56313
 Alpha  occ. eigenvalues --   -0.55932  -0.55724  -0.55310  -0.54362  -0.54157
 Alpha  occ. eigenvalues --   -0.53438  -0.52905  -0.52409  -0.52183  -0.51294
 Alpha  occ. eigenvalues --   -0.51199  -0.50338  -0.49931  -0.49477  -0.49299
 Alpha  occ. eigenvalues --   -0.49124  -0.48613  -0.48563  -0.48370  -0.48093
 Alpha  occ. eigenvalues --   -0.47967  -0.47857  -0.47405  -0.46996  -0.46612
 Alpha  occ. eigenvalues --   -0.46509  -0.46086  -0.45732  -0.45293  -0.45084
 Alpha  occ. eigenvalues --   -0.44876  -0.44548  -0.44189  -0.43665  -0.43189
 Alpha  occ. eigenvalues --   -0.43133  -0.43055  -0.42606  -0.42421  -0.42302
 Alpha  occ. eigenvalues --   -0.41723  -0.41612  -0.41450  -0.41281  -0.41241
 Alpha  occ. eigenvalues --   -0.40882  -0.40598  -0.40305  -0.40222  -0.39698
 Alpha  occ. eigenvalues --   -0.39321  -0.39182  -0.38968  -0.38644  -0.37784
 Alpha  occ. eigenvalues --   -0.37664  -0.37254  -0.36962  -0.36709  -0.36279
 Alpha  occ. eigenvalues --   -0.35895  -0.34361  -0.33922  -0.33021  -0.32709
 Alpha  occ. eigenvalues --   -0.32544  -0.30386  -0.27774  -0.25991  -0.21810
 Alpha  occ. eigenvalues --   -0.18793
 Alpha virt. eigenvalues --   -0.06432  -0.02716   0.02135   0.05193   0.07836
 Alpha virt. eigenvalues --    0.10555   0.11271   0.11629   0.12061   0.12234
 Alpha virt. eigenvalues --    0.12362   0.13201   0.13504   0.13699   0.13984

 Mulliken charges:
               1
     1  O   -0.563784
     2  O   -0.582718
     3  C    0.002332
     4  C    0.002156
     5  C   -0.198523
     6  C   -0.189570
     7  C    0.134773
     8  C    0.162021
     9  C    0.063870
    10  C    0.054331
    11  C   -0.181133
    12  C   -0.170085
    13  C    0.003294
    14  C    0.001319
    15  C   -0.287997
    16  C   -0.307445
    17  C   -0.296882
    18  C   -0.295970
    19  C   -0.079111
    20  C   -0.138963
    21  C   -0.356901
    22  C   -0.355115
    23  C   -0.115644
    24  C   -0.087756
    25  C    0.038252
    26  C    0.105347
    27  C   -0.373169
    28  C   -0.360000
    29  C   -0.076072
    30  C   -0.113003
    31  C   -0.073627
    32  C   -0.109975
    33  C   -0.137550
    34  C   -0.124647
    35  C    0.107913
    36  C    0.153737
    37  C   -0.360062
    38  C   -0.337077
    39  C   -0.150783
    40  C   -0.174100
    41  C   -0.057289
    42  C   -0.050267
    43  H    0.108857
    44  H    0.052295
    45  H    0.059946
    46  H    0.109599
    47  H    0.095817
    48  H    0.097296
    49  H    0.124136
    50  H    0.116270
    51  H    0.128439
    52  H    0.120063
    53  H    0.087645
    54  H    0.075214
    55  H    0.116273
    56  H    0.114814
    57  H    0.102183
    58  H    0.096025
    59  H    0.116274
    60  H    0.109432
    61  H    0.089650
    62  H    0.073330
    63  H    0.077761
    64  H    0.128291
    65  H    0.085502
    66  H    0.076041
    67  H    0.132940
    68  H    0.092701
    69  H    0.111199
    70  H    0.113005
    71  H    0.120720
    72  H    0.066783
    73  H    0.296617
    74  H    0.296973
    75  H    0.079751
    76  H    0.079172
    77  H    0.116142
    78  H    0.127155
    79  H    0.118574
    80  H    0.090513
    81  H    0.130370
    82  H    0.109521
    83  H    0.059907
    84  H    0.061638
    85  H    0.080564
    86  H    0.095316
    87  H    0.087356
    88  H    0.081129
    89  H    0.098813
    90  H    0.118547
    91  H    0.132649
    92  H    0.125300
    93  H    0.113662
    94  H    0.101350
    95  H    0.081940
    96  H    0.050394
    97  H    0.085521
    98  H    0.058495
 Sum of Mulliken charges =  -0.00000

 Dipole moment (field-independent basis, Debye):
    X=              0.1592    Y=             -1.4385    Z=              1.3954  Tot=              2.0104
 Quadrupole moment (field-independent basis, Debye-Ang):
   XX=           -287.7006   YY=           -245.3591   ZZ=           -260.7278
   XY=             17.9820   XZ=             -0.5648   YZ=             -0.0984

 Normal termination of Gaussian 16 at Thu Jul 11 05:00:41 2019.
