 Gaussian 16, Revision A.03,
 Gaussian 16:  ES64L-G16RevA.03 25-Dec-2016

 -------------------------------------
 # td=(NStates=1) CAM-B3LYP/6-31G(d,p)
 -------------------------------------

 --
 TD
 --
 Symbolic Z-matrix:
 Charge =  0 Multiplicity = 1

                         Standard orientation:
 ---------------------------------------------------------------------
 Center     Atomic      Atomic             Coordinates (Angstroms)
 Number     Number       Type             X           Y           Z
 ---------------------------------------------------------------------
      1          8           0       14.834520   -2.133856   -0.135070
      2          8           0      -14.881464    1.881414    0.721095
      3          6           0       11.310117   -1.380023    0.865089
      4          6           0      -12.477039   -1.016766    0.556756
      5          6           0       12.840319   -1.696831    1.110072
      6          6           0      -13.772748   -0.246415    0.623364
      7          6           0       13.445719   -1.868071   -0.259754
      8          6           0      -13.640692    1.186553    0.786791
      9          6           0       11.033961   -0.225448   -0.160586
     10          6           0      -11.330386   -0.230543   -0.170302
     11          6           0       13.436555   -0.455037   -1.005977
     12          6           0      -12.690715    1.979857   -0.166088
     13          6           0       11.946918    0.178651   -1.025287
     14          6           0      -11.536659    1.040785   -0.601307
     15          6           0       10.730086   -0.979712    2.327420
     16          6           0       10.546737   -2.678086    0.453072
     17          6           0      -12.100944   -1.318248    2.007676
     18          6           0      -12.768225   -2.249759   -0.251509
     19          6           0        9.697803    0.324640   -0.004947
     20          6           0      -10.059501   -0.932723   -0.439457
     21          6           0       11.646378    1.270356   -2.021976
     22          6           0      -10.542887    1.780870   -1.563787
     23          6           0        9.380745    1.671095   -0.120171
     24          6           0       -8.787230   -0.448732   -0.211205
     25          6           0        7.950649    2.267322    0.088583
     26          6           0       -7.629126   -1.192815   -0.464074
     27          6           0        7.879958    3.758782    0.402577
     28          6           0       -7.665144   -2.610204   -1.052858
     29          6           0        6.914228    1.519548    0.032622
     30          6           0       -6.404955   -0.604697   -0.354448
     31          6           0        5.556450    1.927721    0.199541
     32          6           0       -5.040967   -1.120607   -0.513368
     33          6           0        4.488350    1.072646    0.097403
     34          6           0       -3.887692   -0.324452   -0.247614
     35          6           0        3.146570    1.603749    0.307413
     36          6           0       -2.590157   -0.796295   -0.432644
     37          6           0        2.963608    2.985029    0.793623
     38          6           0       -2.346772   -2.310467   -0.809634
     39          6           0        2.070904    0.714445   -0.004541
     40          6           0       -1.600708    0.068476   -0.089074
     41          6           0        0.790932    0.859894    0.116618
     42          6           0       -0.266680   -0.229014   -0.208776
     43          1           0       13.404864   -0.791941    1.469503
     44          1           0       13.034115   -2.530490    1.755783
     45          1           0      -14.580660   -0.325060    1.547036
     46          1           0      -14.451734   -0.372238   -0.224420
     47          1           0       13.050467   -2.493462   -0.983851
     48          1           0      -13.206105    1.449221    1.900202
     49          1           0       14.201424    0.205680   -0.490721
     50          1           0       13.722292   -0.541859   -1.910783
     51          1           0      -13.525398    2.174910   -1.020017
     52          1           0      -12.263730    3.004173    0.189017
     53          1           0       10.962498   -1.780518    3.088945
     54          1           0        9.664693   -0.743208    2.324551
     55          1           0       11.191566   -0.034155    2.652622
     56          1           0       11.013044   -2.875577   -0.586444
     57          1           0       10.739956   -3.469736    1.374501
     58          1           0        9.496980   -2.496420    0.402305
     59          1           0      -11.753905   -0.467945    2.641615
     60          1           0      -11.122419   -1.769619    2.004741
     61          1           0      -12.744981   -2.045404    2.541921
     62          1           0      -13.741926   -2.646108    0.186683
     63          1           0      -11.763759   -3.022865   -0.163717
     64          1           0      -12.825098   -2.300171   -1.401042
     65          1           0        8.947368   -0.376978    0.168538
     66          1           0      -10.105973   -2.030286   -0.641069
     67          1           0       10.483650    1.390501   -2.207471
     68          1           0       12.163317    2.125424   -1.380766
     69          1           0       12.058353    1.070498   -2.895000
     70          1           0      -11.286109    2.242821   -2.328707
     71          1           0       -9.896423    1.115744   -2.126767
     72          1           0       -9.848435    2.421856   -0.964481
     73          1           0       14.840550   -2.837866    0.433170
     74          1           0      -15.389743    1.672381    1.524383
     75          1           0        9.970408    2.335338   -0.331217
     76          1           0       -8.856336    0.488683   -0.000014
     77          1           0        8.824602    4.214684    0.599750
     78          1           0        7.433725    4.185191   -0.641087
     79          1           0        6.966081    4.044716    1.271552
     80          1           0       -8.221457   -3.260845   -0.371514
     81          1           0       -8.239489   -2.722704   -1.955020
     82          1           0       -6.630194   -2.936682   -1.184599
     83          1           0        7.090160    0.333457   -0.212029
     84          1           0       -6.409459    0.410746    0.020220
     85          1           0        5.502041    2.900287    0.499158
     86          1           0       -4.970755   -2.294022   -0.760392
     87          1           0        4.892293    0.006728   -0.008738
     88          1           0       -3.955086    0.744813    0.014328
     89          1           0        3.685955    3.217622    1.534436
     90          1           0        1.839494    3.135090    1.489433
     91          1           0        2.831364    3.527765   -0.039243
     92          1           0       -2.540014   -3.025212    0.002578
     93          1           0       -2.856257   -2.619019   -1.511249
     94          1           0       -1.341250   -2.633122   -1.087536
     95          1           0        2.391552   -0.247292   -0.317995
     96          1           0       -1.856506    0.940910    0.160925
     97          1           0        0.293624    1.791730    0.203906
     98          1           0        0.235768   -1.213468   -0.479536
 ---------------------------------------------------------------------

 SCF Done:  E(RCAM-B3LYP) =  -1706.87389659     A.U. after   16 cycles

 Excitation energies and oscillator strengths:

 Excited State   1:      Singlet-A      1.9408 eV  638.83 nm  f=3.5297  <S**2>=0.000
     155 ->158         0.11521
     156 ->157         0.70609
     156 <-157        -0.13228
 This state for optimization and/or second-order correction.
 Total Energy, E(TD-HF/TD-DFT) =  -1706.80257324
 Copying the excited state density for this state as the 1-particle RhoCI density.

 The electronic state is 1-A.
 Alpha  occ. eigenvalues --  -19.21041 -19.20269 -10.30803 -10.29782 -10.28689
 Alpha  occ. eigenvalues --  -10.28139 -10.28101 -10.28088 -10.28084 -10.27600
 Alpha  occ. eigenvalues --  -10.27204 -10.27091 -10.27013 -10.26946 -10.26945
 Alpha  occ. eigenvalues --  -10.26796 -10.26765 -10.26741 -10.26691 -10.26611
 Alpha  occ. eigenvalues --  -10.26536 -10.26285 -10.26129 -10.26106 -10.25906
 Alpha  occ. eigenvalues --  -10.25827 -10.25749 -10.25723 -10.25549 -10.25466
 Alpha  occ. eigenvalues --  -10.25401 -10.25275 -10.25272 -10.25106 -10.25095
 Alpha  occ. eigenvalues --  -10.24932 -10.24842 -10.24630 -10.24578 -10.24528
 Alpha  occ. eigenvalues --  -10.24500 -10.24191  -1.11030  -1.09375  -0.93413
 Alpha  occ. eigenvalues --   -0.92907  -0.92371  -0.91821  -0.90830  -0.90131
 Alpha  occ. eigenvalues --   -0.86940  -0.86483  -0.85970  -0.84955  -0.84419
 Alpha  occ. eigenvalues --   -0.83053  -0.81668  -0.80438  -0.79744  -0.79592
 Alpha  occ. eigenvalues --   -0.77155  -0.76458  -0.76263  -0.75832  -0.75540
 Alpha  occ. eigenvalues --   -0.75491  -0.74872  -0.74802  -0.73204  -0.70911
 Alpha  occ. eigenvalues --   -0.69110  -0.67471  -0.66496  -0.64914  -0.63617
 Alpha  occ. eigenvalues --   -0.63314  -0.63007  -0.62528  -0.61552  -0.60198
 Alpha  occ. eigenvalues --   -0.59868  -0.58842  -0.58461  -0.58046  -0.56894
 Alpha  occ. eigenvalues --   -0.55703  -0.55566  -0.55258  -0.53971  -0.53660
 Alpha  occ. eigenvalues --   -0.52850  -0.52737  -0.52407  -0.51783  -0.51270
 Alpha  occ. eigenvalues --   -0.50482  -0.49890  -0.49187  -0.49089  -0.48963
 Alpha  occ. eigenvalues --   -0.48852  -0.48747  -0.48468  -0.48207  -0.48006
 Alpha  occ. eigenvalues --   -0.47756  -0.47358  -0.47157  -0.46432  -0.46040
 Alpha  occ. eigenvalues --   -0.46006  -0.45911  -0.45650  -0.45194  -0.44905
 Alpha  occ. eigenvalues --   -0.44702  -0.44267  -0.44073  -0.43728  -0.43526
 Alpha  occ. eigenvalues --   -0.43240  -0.42950  -0.42906  -0.42557  -0.42265
 Alpha  occ. eigenvalues --   -0.42051  -0.41807  -0.41331  -0.41137  -0.40894
 Alpha  occ. eigenvalues --   -0.40756  -0.40208  -0.39853  -0.39407  -0.39290
 Alpha  occ. eigenvalues --   -0.39049  -0.38872  -0.38427  -0.38065  -0.37617
 Alpha  occ. eigenvalues --   -0.37512  -0.36996  -0.36761  -0.36399  -0.35922
 Alpha  occ. eigenvalues --   -0.35142  -0.34011  -0.33263  -0.32522  -0.32190
 Alpha  occ. eigenvalues --   -0.31934  -0.30046  -0.28621  -0.25992  -0.24009
 Alpha  occ. eigenvalues --   -0.18212
 Alpha virt. eigenvalues --   -0.06770  -0.00172   0.02196   0.06054   0.07910
 Alpha virt. eigenvalues --    0.09900   0.10645   0.10983   0.11763   0.12068
 Alpha virt. eigenvalues --    0.12087   0.12690   0.13405   0.13729   0.14056

 Mulliken charges:
               1
     1  O   -0.546254
     2  O   -0.559753
     3  C   -0.040647
     4  C    0.005013
     5  C   -0.181178
     6  C   -0.153045
     7  C    0.145391
     8  C    0.159982
     9  C    0.093834
    10  C    0.064338
    11  C   -0.201992
    12  C   -0.210461
    13  C   -0.017011
    14  C    0.012738
    15  C   -0.309360
    16  C   -0.276340
    17  C   -0.308127
    18  C   -0.295055
    19  C   -0.107863
    20  C   -0.148918
    21  C   -0.340423
    22  C   -0.355320
    23  C   -0.054599
    24  C   -0.044730
    25  C    0.067018
    26  C    0.109855
    27  C   -0.356552
    28  C   -0.367210
    29  C   -0.106416
    30  C   -0.127572
    31  C   -0.070930
    32  C   -0.116632
    33  C   -0.108682
    34  C   -0.126249
    35  C    0.062912
    36  C    0.118322
    37  C   -0.349200
    38  C   -0.363937
    39  C   -0.088304
    40  C   -0.072872
    41  C   -0.099614
    42  C   -0.111301
    43  H    0.111610
    44  H    0.085343
    45  H    0.058625
    46  H    0.109212
    47  H    0.092776
    48  H    0.042353
    49  H    0.109574
    50  H    0.108297
    51  H    0.104020
    52  H    0.110704
    53  H    0.087132
    54  H    0.101472
    55  H    0.102361
    56  H    0.097096
    57  H    0.078726
    58  H    0.111708
    59  H    0.110493
    60  H    0.103164
    61  H    0.103562
    62  H    0.100499
    63  H    0.060549
    64  H    0.116715
    65  H    0.087378
    66  H    0.067206
    67  H    0.114228
    68  H    0.109070
    69  H    0.112588
    70  H    0.103878
    71  H    0.123031
    72  H    0.113173
    73  H    0.289875
    74  H    0.304720
    75  H    0.049468
    76  H    0.060790
    77  H    0.121057
    78  H    0.111452
    79  H    0.092413
    80  H    0.115421
    81  H    0.126210
    82  H    0.101540
    83  H    0.055091
    84  H    0.072752
    85  H    0.067605
    86  H    0.084561
    87  H    0.093997
    88  H    0.092137
    89  H    0.131821
    90  H    0.067962
    91  H    0.151045
    92  H    0.119844
    93  H    0.128131
    94  H    0.103661
    95  H    0.074095
    96  H    0.061953
    97  H    0.075523
    98  H    0.087474
 Sum of Mulliken charges =  -0.00000

 Dipole moment (field-independent basis, Debye):
    X=              0.7984    Y=             -0.9166    Z=              1.3865  Tot=              1.8439
 Quadrupole moment (field-independent basis, Debye-Ang):
   XX=           -283.0065   YY=           -245.2358   ZZ=           -260.6839
   XY=             11.2804   XZ=             -7.8643   YZ=              3.1505

 Normal termination of Gaussian 16 at Sat Jul 13 23:47:54 2019.
