 Gaussian 16, Revision A.03,
 Gaussian 16:  ES64L-G16RevA.03 25-Dec-2016

 -------------------------------------
 # td=(NStates=1) CAM-B3LYP/6-31G(d,p)
 -------------------------------------

 --
 TD
 --
 Symbolic Z-matrix:
 Charge =  0 Multiplicity = 1

                         Standard orientation:
 ---------------------------------------------------------------------
 Center     Atomic      Atomic             Coordinates (Angstroms)
 Number     Number       Type             X           Y           Z
 ---------------------------------------------------------------------
      1          8           0       14.573214   -2.329323   -0.176014
      2          8           0      -14.902224    1.728341    1.004792
      3          6           0       11.189453   -1.362951    1.071850
      4          6           0      -12.362705   -1.039287    0.542702
      5          6           0       12.648582   -1.926337    1.081313
      6          6           0      -13.694290   -0.163087    0.437200
      7          6           0       13.267885   -1.963782   -0.275510
      8          6           0      -13.641841    1.163966    1.000704
      9          6           0       11.016238   -0.254802    0.046307
     10          6           0      -11.254703   -0.223673   -0.028694
     11          6           0       13.230858   -0.596365   -0.950574
     12          6           0      -12.732447    1.883965   -0.034779
     13          6           0       11.955754    0.144782   -0.829743
     14          6           0      -11.530198    0.997329   -0.449291
     15          6           0       10.715894   -1.112966    2.451578
     16          6           0       10.257524   -2.556522    0.469276
     17          6           0      -11.951177   -1.441261    1.966519
     18          6           0      -12.553571   -2.330143   -0.381379
     19          6           0        9.633280    0.355241    0.169117
     20          6           0      -10.054212   -0.897371   -0.362105
     21          6           0       11.866671    1.272279   -1.843224
     22          6           0      -10.504436    1.920392   -1.271128
     23          6           0        9.339477    1.680861    0.157197
     24          6           0       -8.701485   -0.475586   -0.299044
     25          6           0        8.028378    2.305147    0.120552
     26          6           0       -7.558784   -1.235017   -0.584729
     27          6           0        7.971284    3.769854    0.608765
     28          6           0       -7.611671   -2.652465   -0.915500
     29          6           0        6.931571    1.548810   -0.038103
     30          6           0       -6.344493   -0.593593   -0.385602
     31          6           0        5.678159    1.950519    0.084809
     32          6           0       -5.074658   -1.095778   -0.557426
     33          6           0        4.489871    1.253428   -0.159518
     34          6           0       -3.948858   -0.370830   -0.380149
     35          6           0        3.169282    1.681637    0.074938
     36          6           0       -2.647838   -0.742471   -0.520250
     37          6           0        2.794492    3.139290    0.524242
     38          6           0       -2.352972   -2.193186   -0.983949
     39          6           0        2.218812    0.758014   -0.278757
     40          6           0       -1.535591    0.144616   -0.335493
     41          6           0        0.819350    0.864280   -0.169651
     42          6           0       -0.163565   -0.085388   -0.413316
     43          1           0       13.314359   -1.264462    1.673597
     44          1           0       12.639585   -3.042515    1.406617
     45          1           0      -14.396277   -0.770437    1.033673
     46          1           0      -13.867238   -0.230939   -0.653872
     47          1           0       12.770301   -2.606422   -0.921541
     48          1           0      -13.407760    1.144444    2.123114
     49          1           0       13.919215    0.148172   -0.343893
     50          1           0       13.572613   -0.552888   -2.008118
     51          1           0      -13.647282    1.968938   -0.906566
     52          1           0      -12.341271    2.766612    0.423273
     53          1           0       10.830897   -2.208577    2.891287
     54          1           0        9.705584   -0.671890    2.831406
     55          1           0       11.456725   -0.408172    2.759553
     56          1           0       10.353571   -2.841429   -0.621909
     57          1           0       10.417280   -3.308668    1.077278
     58          1           0        9.306422   -2.093366    0.614158
     59          1           0      -11.709252   -0.675555    2.592293
     60          1           0      -11.087630   -1.923023    1.920756
     61          1           0      -12.532095   -2.180359    2.572981
     62          1           0      -13.646437   -2.537844    0.044486
     63          1           0      -11.909209   -3.051453    0.009039
     64          1           0      -12.525434   -1.933210   -1.396182
     65          1           0        8.891167   -0.393762    0.461370
     66          1           0      -10.220363   -1.950402   -0.338970
     67          1           0       10.784753    1.368893   -2.168864
     68          1           0       12.070704    2.354560   -1.475217
     69          1           0       12.335014    1.189109   -2.880840
     70          1           0      -11.031853    2.475560   -2.068355
     71          1           0       -9.817253    1.118164   -1.855716
     72          1           0       -9.912188    2.751192   -0.675913
     73          1           0       14.691359   -3.109008    0.650218
     74          1           0      -15.281908    1.571098    1.933874
     75          1           0       10.262227    2.362624   -0.261903
     76          1           0       -8.495440    0.580968    0.031420
     77          1           0        9.027157    4.092851    0.710395
     78          1           0        7.379295    4.476011   -0.163077
     79          1           0        7.526218    3.934446    1.602225
     80          1           0       -8.120207   -3.386083   -0.141047
     81          1           0       -8.327677   -2.502577   -1.787864
     82          1           0       -6.649205   -3.055492   -1.339381
     83          1           0        6.970549    0.515504   -0.511925
     84          1           0       -6.367522    0.344096    0.112175
     85          1           0        5.566882    3.160831    0.449103
     86          1           0       -5.109684   -1.943417   -0.704580
     87          1           0        4.788271    0.294285   -0.594691
     88          1           0       -4.193116    0.533280   -0.025577
     89          1           0        2.954738    3.411291    1.581987
     90          1           0        1.859927    3.541833    0.157633
     91          1           0        3.404082    3.916805   -0.048978
     92          1           0       -2.524087   -2.694892   -0.091402
     93          1           0       -3.038149   -2.320204   -1.942204
     94          1           0       -1.291250   -2.308953   -1.301372
     95          1           0        2.383867   -0.211036   -0.638286
     96          1           0       -1.753990    1.144768   -0.203174
     97          1           0        0.350989    1.776945    0.359794
     98          1           0        0.282176   -1.087673   -0.737435
 ---------------------------------------------------------------------

 SCF Done:  E(RCAM-B3LYP) =  -1706.91067994     A.U. after   16 cycles

 Excitation energies and oscillator strengths:

 Excited State   1:      Singlet-A      1.9752 eV  627.71 nm  f=4.0505  <S**2>=0.000
     155 ->158        -0.14868
     156 ->157         0.69378
 This state for optimization and/or second-order correction.
 Total Energy, E(TD-HF/TD-DFT) =  -1706.83809362
 Copying the excited state density for this state as the 1-particle RhoCI density.

 The electronic state is 1-A.
 Alpha  occ. eigenvalues --  -19.21896 -19.21024 -10.29784 -10.29036 -10.28528
 Alpha  occ. eigenvalues --  -10.27873 -10.27333 -10.27208 -10.26970 -10.26910
 Alpha  occ. eigenvalues --  -10.26870 -10.26830 -10.26771 -10.26744 -10.26735
 Alpha  occ. eigenvalues --  -10.26631 -10.26598 -10.26575 -10.26506 -10.26488
 Alpha  occ. eigenvalues --  -10.26480 -10.26436 -10.26404 -10.26327 -10.26306
 Alpha  occ. eigenvalues --  -10.26285 -10.26043 -10.26011 -10.25905 -10.25880
 Alpha  occ. eigenvalues --  -10.25840 -10.25528 -10.25417 -10.25410 -10.25026
 Alpha  occ. eigenvalues --  -10.24990 -10.24651 -10.24566 -10.23829 -10.23690
 Alpha  occ. eigenvalues --  -10.23149 -10.22782  -1.10082  -1.09334  -0.94093
 Alpha  occ. eigenvalues --   -0.93714  -0.93113  -0.92157  -0.90996  -0.90171
 Alpha  occ. eigenvalues --   -0.87623  -0.87399  -0.85700  -0.85476  -0.84821
 Alpha  occ. eigenvalues --   -0.83479  -0.82164  -0.79648  -0.79102  -0.78487
 Alpha  occ. eigenvalues --   -0.77602  -0.76727  -0.76585  -0.76560  -0.75752
 Alpha  occ. eigenvalues --   -0.75679  -0.75380  -0.73855  -0.73287  -0.71607
 Alpha  occ. eigenvalues --   -0.69294  -0.67408  -0.66203  -0.64917  -0.64258
 Alpha  occ. eigenvalues --   -0.64076  -0.63373  -0.62213  -0.61248  -0.60333
 Alpha  occ. eigenvalues --   -0.59540  -0.58905  -0.58221  -0.57933  -0.56303
 Alpha  occ. eigenvalues --   -0.55897  -0.54924  -0.54591  -0.54097  -0.53719
 Alpha  occ. eigenvalues --   -0.53281  -0.52942  -0.52314  -0.51548  -0.51243
 Alpha  occ. eigenvalues --   -0.51067  -0.50492  -0.50212  -0.49458  -0.49013
 Alpha  occ. eigenvalues --   -0.48855  -0.48764  -0.48672  -0.48351  -0.47955
 Alpha  occ. eigenvalues --   -0.47571  -0.47358  -0.47139  -0.46872  -0.46374
 Alpha  occ. eigenvalues --   -0.45811  -0.45430  -0.45132  -0.44954  -0.44859
 Alpha  occ. eigenvalues --   -0.44399  -0.44132  -0.43996  -0.43444  -0.43265
 Alpha  occ. eigenvalues --   -0.42940  -0.42817  -0.42657  -0.42515  -0.42070
 Alpha  occ. eigenvalues --   -0.42051  -0.41866  -0.41786  -0.41408  -0.41305
 Alpha  occ. eigenvalues --   -0.41164  -0.40483  -0.39756  -0.39574  -0.38984
 Alpha  occ. eigenvalues --   -0.38619  -0.38415  -0.38197  -0.38066  -0.37642
 Alpha  occ. eigenvalues --   -0.37361  -0.37132  -0.36211  -0.36077  -0.35893
 Alpha  occ. eigenvalues --   -0.35801  -0.34763  -0.33792  -0.32495  -0.31905
 Alpha  occ. eigenvalues --   -0.31069  -0.30270  -0.27902  -0.26258  -0.23042
 Alpha  occ. eigenvalues --   -0.18782
 Alpha virt. eigenvalues --   -0.06716  -0.01703   0.02446   0.05772   0.08136
 Alpha virt. eigenvalues --    0.08508   0.10130   0.10454   0.11610   0.12425
 Alpha virt. eigenvalues --    0.12612   0.12621   0.13258   0.13565   0.14073

 Mulliken charges:
               1
     1  O   -0.562184
     2  O   -0.551621
     3  C   -0.061689
     4  C   -0.070684
     5  C   -0.211957
     6  C   -0.159264
     7  C    0.227676
     8  C    0.159189
     9  C    0.069320
    10  C    0.141197
    11  C   -0.231205
    12  C   -0.212106
    13  C    0.070813
    14  C    0.002184
    15  C   -0.280993
    16  C   -0.294580
    17  C   -0.313360
    18  C   -0.299985
    19  C   -0.102807
    20  C   -0.157707
    21  C   -0.391699
    22  C   -0.357378
    23  C   -0.124384
    24  C   -0.108264
    25  C    0.078604
    26  C    0.126959
    27  C   -0.365783
    28  C   -0.372437
    29  C   -0.084611
    30  C   -0.141319
    31  C   -0.075144
    32  C    0.018414
    33  C   -0.126356
    34  C   -0.084659
    35  C    0.111931
    36  C    0.063547
    37  C   -0.378647
    38  C   -0.352811
    39  C   -0.102974
    40  C   -0.119413
    41  C   -0.099301
    42  C   -0.080076
    43  H    0.103445
    44  H    0.069378
    45  H    0.068493
    46  H    0.101054
    47  H    0.079382
    48  H    0.060745
    49  H    0.100631
    50  H    0.108796
    51  H    0.104467
    52  H    0.110508
    53  H    0.083650
    54  H    0.110456
    55  H    0.112815
    56  H    0.102455
    57  H    0.100430
    58  H    0.100964
    59  H    0.111178
    60  H    0.110819
    61  H    0.085960
    62  H    0.091365
    63  H    0.114485
    64  H    0.121829
    65  H    0.088609
    66  H    0.073087
    67  H    0.122687
    68  H    0.114752
    69  H    0.106697
    70  H    0.107761
    71  H    0.102071
    72  H    0.099027
    73  H    0.297683
    74  H    0.309454
    75  H    0.068669
    76  H    0.095505
    77  H    0.109955
    78  H    0.103163
    79  H    0.130701
    80  H    0.118148
    81  H    0.118917
    82  H    0.115115
    83  H    0.078836
    84  H    0.071151
    85  H    0.049676
    86  H    0.001036
    87  H    0.082097
    88  H    0.064742
    89  H    0.129444
    90  H    0.126056
    91  H    0.111824
    92  H    0.138673
    93  H    0.109122
    94  H    0.107307
    95  H    0.080616
    96  H    0.078170
    97  H    0.070340
    98  H    0.071169
 Sum of Mulliken charges =  -0.00000

 Dipole moment (field-independent basis, Debye):
    X=              0.5157    Y=             -1.2593    Z=              2.6058  Tot=              2.9397
 Quadrupole moment (field-independent basis, Debye-Ang):
   XX=           -288.1627   YY=           -245.2746   ZZ=           -256.7627
   XY=              6.6666   XZ=            -12.5211   YZ=              0.6227

 Normal termination of Gaussian 16 at Thu Jul 18 09:35:17 2019.
