 Gaussian 16, Revision A.03,
 Gaussian 16:  ES64L-G16RevA.03 25-Dec-2016

 -------------------------------------
 # td=(NStates=1) CAM-B3LYP/6-31G(d,p)
 -------------------------------------

 --
 TD
 --
 Symbolic Z-matrix:
 Charge =  0 Multiplicity = 1

                         Standard orientation:
 ---------------------------------------------------------------------
 Center     Atomic      Atomic             Coordinates (Angstroms)
 Number     Number       Type             X           Y           Z
 ---------------------------------------------------------------------
      1          8           0       14.607101   -2.453465   -0.276459
      2          8           0      -14.491395    1.978062    1.196509
      3          6           0       11.118359   -1.494125    1.076065
      4          6           0      -12.354136   -1.089381    0.535041
      5          6           0       12.555872   -2.031101    1.067853
      6          6           0      -13.705661   -0.324212    0.660536
      7          6           0       13.303145   -1.966998   -0.270620
      8          6           0      -13.395752    1.150184    1.079002
      9          6           0       10.929757   -0.265080    0.085391
     10          6           0      -11.255936   -0.252043   -0.117232
     11          6           0       13.179695   -0.623240   -0.911080
     12          6           0      -12.653233    1.784150   -0.105670
     13          6           0       11.876435    0.052923   -0.829709
     14          6           0      -11.483408    1.004666   -0.513239
     15          6           0       10.697324   -1.213511    2.428110
     16          6           0       10.142123   -2.580639    0.545385
     17          6           0      -11.879221   -1.526066    1.983948
     18          6           0      -12.764936   -2.331402   -0.264052
     19          6           0        9.626001    0.291561    0.154490
     20          6           0      -10.028920   -1.010020   -0.273661
     21          6           0       11.723179    1.171967   -1.786168
     22          6           0      -10.554258    1.606483   -1.478134
     23          6           0        9.376049    1.630270    0.141392
     24          6           0       -8.744900   -0.452621   -0.286203
     25          6           0        8.109062    2.369240    0.157922
     26          6           0       -7.521391   -1.231043   -0.553810
     27          6           0        7.896776    3.864263    0.325715
     28          6           0       -7.613275   -2.714820   -0.967108
     29          6           0        6.936120    1.600754    0.068864
     30          6           0       -6.357182   -0.485125   -0.599334
     31          6           0        5.596227    2.220936    0.183961
     32          6           0       -5.050640   -0.970433   -0.703050
     33          6           0        4.500457    1.392918    0.086014
     34          6           0       -3.930715   -0.241711   -0.529928
     35          6           0        3.146753    1.832393    0.167800
     36          6           0       -2.565429   -0.706649   -0.565167
     37          6           0        2.817750    3.282825    0.416409
     38          6           0       -2.400518   -2.040634   -1.156327
     39          6           0        2.167583    0.797595   -0.188556
     40          6           0       -1.525540    0.164531   -0.252413
     41          6           0        0.847983    0.950149   -0.081234
     42          6           0       -0.179406   -0.043335   -0.238804
     43          1           0       13.084626   -1.528271    1.879995
     44          1           0       12.616558   -2.885042    1.695973
     45          1           0      -14.340146   -0.882745    1.293503
     46          1           0      -14.236020   -0.211036   -0.215428
     47          1           0       12.891450   -2.612085   -1.021731
     48          1           0      -12.810734    1.152737    1.732797
     49          1           0       14.104780    0.172300   -0.444682
     50          1           0       13.391172   -0.783265   -2.034846
     51          1           0      -13.419039    1.891441   -0.873717
     52          1           0      -12.473226    2.909426    0.004507
     53          1           0       10.654334   -2.089274    3.043230
     54          1           0        9.621989   -0.814390    2.513542
     55          1           0       11.325510   -0.490147    2.818687
     56          1           0       10.470414   -2.678686   -0.658612
     57          1           0       10.252223   -3.370136    1.179732
     58          1           0        9.069218   -2.450711    0.641397
     59          1           0      -11.826662   -0.811810    2.790275
     60          1           0      -10.845828   -1.810442    1.872577
     61          1           0      -12.389309   -2.508951    2.306612
     62          1           0      -13.728072   -2.547602    0.314282
     63          1           0      -11.991140   -3.143950   -0.142369
     64          1           0      -12.869857   -1.984217   -1.489930
     65          1           0        8.744595   -0.164387    0.575481
     66          1           0      -10.064143   -2.037823   -0.527246
     67          1           0       10.737899    1.310249   -2.129647
     68          1           0       12.037668    2.246812   -1.533249
     69          1           0       12.261998    0.888384   -2.695148
     70          1           0      -11.261667    2.370478   -2.080779
     71          1           0      -10.009732    0.823481   -2.048084
     72          1           0       -9.619144    2.341021   -1.094581
     73          1           0       14.662979   -3.393849   -0.048858
     74          1           0      -15.039098    1.844185    2.174726
     75          1           0       10.345299    2.216768    0.052861
     76          1           0       -8.671516    0.537319    0.065676
     77          1           0        8.921987    4.440439    0.204153
     78          1           0        7.143864    4.411127   -0.542499
     79          1           0        7.672518    4.323771    1.237490
     80          1           0       -7.914906   -3.300884   -0.092000
     81          1           0       -8.292002   -2.773932   -1.832446
     82          1           0       -6.655041   -3.084081   -1.276463
     83          1           0        6.966252    0.630575   -0.144537
     84          1           0       -6.442212    0.483487   -0.374978
     85          1           0        5.539361    3.288956    0.520070
     86          1           0       -4.936734   -2.061148   -0.812862
     87          1           0        4.718632    0.275598   -0.139049
     88          1           0       -4.128751    0.778862   -0.181470
     89          1           0        2.996859    3.621345    1.446508
     90          1           0        1.740810    3.646133    0.351221
     91          1           0        3.363179    3.789306   -0.555082
     92          1           0       -2.951153   -2.843115   -0.412444
     93          1           0       -2.898379   -2.271046   -2.092306
     94          1           0       -1.403100   -2.365685   -1.247854
     95          1           0        2.594974   -0.280067   -0.308552
     96          1           0       -1.887041    1.264889    0.199615
     97          1           0        0.350463    1.840440    0.348677
     98          1           0        0.404237   -0.959229   -0.526932
 ---------------------------------------------------------------------

 SCF Done:  E(RCAM-B3LYP) =  -1706.94994361     A.U. after   15 cycles

 Excitation energies and oscillator strengths:

 Excited State   1:      Singlet-A      1.9818 eV  625.62 nm  f=3.6774  <S**2>=0.000
     155 ->158         0.14245
     156 ->157         0.69442
     156 <-157        -0.10103
 This state for optimization and/or second-order correction.
 Total Energy, E(TD-HF/TD-DFT) =  -1706.87711489
 Copying the excited state density for this state as the 1-particle RhoCI density.

 The electronic state is 1-A.
 Alpha  occ. eigenvalues --  -19.22183 -19.20705 -10.30198 -10.28841 -10.27974
 Alpha  occ. eigenvalues --  -10.27953 -10.27791 -10.27727 -10.27663 -10.27622
 Alpha  occ. eigenvalues --  -10.27578 -10.27356 -10.27140 -10.27080 -10.26982
 Alpha  occ. eigenvalues --  -10.26891 -10.26764 -10.26756 -10.26721 -10.26418
 Alpha  occ. eigenvalues --  -10.26362 -10.26224 -10.26162 -10.26060 -10.25973
 Alpha  occ. eigenvalues --  -10.25930 -10.25754 -10.25748 -10.25598 -10.25564
 Alpha  occ. eigenvalues --  -10.25551 -10.25476 -10.25101 -10.24902 -10.24872
 Alpha  occ. eigenvalues --  -10.24626 -10.24600 -10.24577 -10.24532 -10.24201
 Alpha  occ. eigenvalues --  -10.23506 -10.23150  -1.09920  -1.08420  -0.93914
 Alpha  occ. eigenvalues --   -0.93630  -0.92151  -0.91408  -0.90240  -0.89548
 Alpha  occ. eigenvalues --   -0.88188  -0.87274  -0.86902  -0.85607  -0.84843
 Alpha  occ. eigenvalues --   -0.83113  -0.81740  -0.80377  -0.79399  -0.78871
 Alpha  occ. eigenvalues --   -0.76884  -0.76630  -0.76039  -0.75839  -0.75798
 Alpha  occ. eigenvalues --   -0.75320  -0.74925  -0.74242  -0.73093  -0.70789
 Alpha  occ. eigenvalues --   -0.69070  -0.68222  -0.66894  -0.65397  -0.63887
 Alpha  occ. eigenvalues --   -0.63449  -0.62254  -0.61119  -0.60840  -0.60759
 Alpha  occ. eigenvalues --   -0.60137  -0.59735  -0.58638  -0.58073  -0.56305
 Alpha  occ. eigenvalues --   -0.55787  -0.55657  -0.54967  -0.54403  -0.54201
 Alpha  occ. eigenvalues --   -0.52975  -0.52795  -0.52155  -0.51433  -0.51343
 Alpha  occ. eigenvalues --   -0.50542  -0.49716  -0.49542  -0.49487  -0.49304
 Alpha  occ. eigenvalues --   -0.49142  -0.48638  -0.47978  -0.47939  -0.47589
 Alpha  occ. eigenvalues --   -0.47438  -0.47200  -0.47012  -0.46520  -0.46184
 Alpha  occ. eigenvalues --   -0.46140  -0.45233  -0.45044  -0.44893  -0.44276
 Alpha  occ. eigenvalues --   -0.44068  -0.43908  -0.43851  -0.43755  -0.43356
 Alpha  occ. eigenvalues --   -0.42968  -0.42380  -0.42127  -0.42030  -0.41937
 Alpha  occ. eigenvalues --   -0.41493  -0.41432  -0.41142  -0.41055  -0.40601
 Alpha  occ. eigenvalues --   -0.40138  -0.40005  -0.39874  -0.39799  -0.39305
 Alpha  occ. eigenvalues --   -0.39018  -0.38765  -0.38100  -0.38058  -0.37649
 Alpha  occ. eigenvalues --   -0.37565  -0.37238  -0.37223  -0.36945  -0.35722
 Alpha  occ. eigenvalues --   -0.35547  -0.34888  -0.33989  -0.32412  -0.31622
 Alpha  occ. eigenvalues --   -0.31349  -0.29594  -0.28185  -0.25328  -0.23252
 Alpha  occ. eigenvalues --   -0.18830
 Alpha virt. eigenvalues --   -0.06684  -0.01147   0.01524   0.05599   0.07659
 Alpha virt. eigenvalues --    0.09047   0.09615   0.11507   0.12015   0.12160
 Alpha virt. eigenvalues --    0.12374   0.12958   0.13054   0.13136   0.13603

 Mulliken charges:
               1
     1  O   -0.573716
     2  O   -0.572918
     3  C   -0.021380
     4  C   -0.028575
     5  C   -0.206259
     6  C   -0.195475
     7  C    0.208921
     8  C    0.226653
     9  C    0.075729
    10  C    0.074108
    11  C   -0.207104
    12  C   -0.261981
    13  C    0.061194
    14  C    0.100874
    15  C   -0.306857
    16  C   -0.274876
    17  C   -0.319276
    18  C   -0.274611
    19  C   -0.107981
    20  C   -0.149366
    21  C   -0.371319
    22  C   -0.358864
    23  C   -0.129077
    24  C   -0.099161
    25  C    0.103473
    26  C    0.075016
    27  C   -0.380441
    28  C   -0.369650
    29  C   -0.107121
    30  C   -0.097863
    31  C   -0.093199
    32  C   -0.073271
    33  C   -0.111182
    34  C   -0.120380
    35  C    0.094827
    36  C    0.133145
    37  C   -0.370828
    38  C   -0.375183
    39  C   -0.130099
    40  C   -0.127153
    41  C   -0.068814
    42  C   -0.093899
    43  H    0.096157
    44  H    0.081629
    45  H    0.083326
    46  H    0.102936
    47  H    0.079119
    48  H    0.069674
    49  H    0.075989
    50  H    0.100031
    51  H    0.121280
    52  H    0.105975
    53  H    0.098454
    54  H    0.092945
    55  H    0.111743
    56  H    0.075350
    57  H    0.096699
    58  H    0.098962
    59  H    0.108495
    60  H    0.111496
    61  H    0.082948
    62  H    0.100572
    63  H    0.093141
    64  H    0.082235
    65  H    0.087145
    66  H    0.084888
    67  H    0.131183
    68  H    0.111296
    69  H    0.094004
    70  H    0.081459
    71  H    0.129779
    72  H    0.074389
    73  H    0.309571
    74  H    0.296901
    75  H    0.077506
    76  H    0.093724
    77  H    0.088779
    78  H    0.094808
    79  H    0.140930
    80  H    0.125444
    81  H    0.128618
    82  H    0.114568
    83  H    0.077540
    84  H    0.068000
    85  H    0.104027
    86  H    0.070919
    87  H    0.086069
    88  H    0.073492
    89  H    0.133002
    90  H    0.115010
    91  H    0.116663
    92  H    0.090851
    93  H    0.133550
    94  H    0.115000
    95  H    0.084693
    96  H    0.070078
    97  H    0.075358
    98  H    0.075541
 Sum of Mulliken charges =  -0.00000

 Dipole moment (field-independent basis, Debye):
    X=             -0.9489    Y=             -1.5055    Z=              2.3153  Tot=              2.9202
 Quadrupole moment (field-independent basis, Debye-Ang):
   XX=           -286.1142   YY=           -241.0743   ZZ=           -258.4824
   XY=              0.2697   XZ=            -10.1655   YZ=              3.8106

 Normal termination of Gaussian 16 at Wed Jul 10 22:24:01 2019.
