 Gaussian 16, Revision A.03,
 Gaussian 16:  ES64L-G16RevA.03 25-Dec-2016

 -------------------------------------
 # td=(NStates=1) CAM-B3LYP/6-31G(d,p)
 -------------------------------------

 --
 TD
 --
 Symbolic Z-matrix:
 Charge =  0 Multiplicity = 1

                         Standard orientation:
 ---------------------------------------------------------------------
 Center     Atomic      Atomic             Coordinates (Angstroms)
 Number     Number       Type             X           Y           Z
 ---------------------------------------------------------------------
      1          8           0       14.830883   -2.140419   -0.304616
      2          8           0      -14.923319    1.841706    1.070844
      3          6           0       11.178061   -1.394615    1.033445
      4          6           0      -12.379392   -1.049412    0.475231
      5          6           0       12.690246   -1.859121    1.002663
      6          6           0      -13.788012   -0.227762    0.554969
      7          6           0       13.407681   -1.923345   -0.303223
      8          6           0      -13.648661    1.198674    0.940789
      9          6           0       10.997056   -0.264017    0.043433
     10          6           0      -11.319758   -0.158464   -0.162619
     11          6           0       13.183839   -0.523108   -1.042285
     12          6           0      -12.757966    1.952667   -0.097123
     13          6           0       11.882863    0.148988   -0.939664
     14          6           0      -11.528920    1.139217   -0.473333
     15          6           0       10.906031   -0.961740    2.496905
     16          6           0       10.433839   -2.584246    0.540982
     17          6           0      -11.864009   -1.397652    1.923532
     18          6           0      -12.553271   -2.346649   -0.226228
     19          6           0        9.691294    0.408381    0.237911
     20          6           0      -10.081454   -0.960456   -0.587012
     21          6           0       11.639730    1.107724   -2.052066
     22          6           0      -10.471367    1.862290   -1.289247
     23          6           0        9.442040    1.748914   -0.021566
     24          6           0       -8.878792   -0.411506   -0.444469
     25          6           0        8.033428    2.294178    0.155328
     26          6           0       -7.513389   -1.173688   -0.724271
     27          6           0        7.916664    3.800053    0.323600
     28          6           0       -7.624791   -2.654280   -1.134587
     29          6           0        6.896122    1.495272    0.203333
     30          6           0       -6.410575   -0.458295   -0.569353
     31          6           0        5.617543    2.104928    0.185647
     32          6           0       -5.088558   -1.146350   -0.517785
     33          6           0        4.464150    1.309910    0.091858
     34          6           0       -3.994013   -0.466410   -0.327805
     35          6           0        3.165067    1.641325    0.017343
     36          6           0       -2.625252   -0.926929   -0.240903
     37          6           0        2.877010    3.065823    0.387336
     38          6           0       -2.370531   -2.394565   -0.618280
     39          6           0        2.086142    0.608729   -0.033682
     40          6           0       -1.632738    0.082908   -0.173654
     41          6           0        0.742989    0.880734    0.028296
     42          6           0       -0.229873   -0.143433   -0.193393
     43          1           0       13.360860   -0.886274    1.449893
     44          1           0       12.660733   -2.883763    1.443637
     45          1           0      -14.468648   -0.740189    1.320367
     46          1           0      -14.056016   -0.499310   -0.445835
     47          1           0       12.784082   -2.755896   -0.810181
     48          1           0      -13.151740    1.290954    1.921073
     49          1           0       13.882957    0.043801   -0.454642
     50          1           0       13.419252   -0.792788   -2.080617
     51          1           0      -13.357501    2.158011   -1.095526
     52          1           0      -12.418534    2.961782    0.317246
     53          1           0       11.353478   -1.840921    3.236983
     54          1           0        9.896145   -0.759999    2.866950
     55          1           0       11.647532   -0.220628    2.768218
     56          1           0       10.585015   -2.872967   -0.475420
     57          1           0       10.671998   -3.324013    1.114361
     58          1           0        9.345053   -2.390071    0.601624
     59          1           0      -11.766494   -0.512587    2.694992
     60          1           0      -10.999689   -1.948079    1.794834
     61          1           0      -12.555828   -1.911781    2.488424
     62          1           0      -13.494630   -2.942875    0.091932
     63          1           0      -11.830856   -3.090373    0.020878
     64          1           0      -12.509626   -2.258934   -1.405494
     65          1           0        8.902222   -0.278345    0.641475
     66          1           0      -10.380480   -1.931995   -0.926930
     67          1           0       10.524798    1.234452   -2.207998
     68          1           0       12.429210    2.048442   -1.840065
     69          1           0       12.197131    0.829108   -3.016401
     70          1           0      -10.974711    2.437178   -2.071842
     71          1           0       -9.767092    1.366080   -1.972535
     72          1           0       -9.955176    2.721462   -0.597013
     73          1           0       14.925820   -3.078455    0.287594
     74          1           0      -15.458383    1.329578    1.769757
     75          1           0       10.271553    2.497625   -0.052529
     76          1           0       -8.646309    0.642314   -0.022388
     77          1           0        8.844014    4.380212    0.169553
     78          1           0        7.344989    4.257240   -0.421179
     79          1           0        7.669183    4.243281    1.251004
     80          1           0       -8.385694   -3.207708   -0.360727
     81          1           0       -8.270174   -2.677239   -1.978847
     82          1           0       -6.705535   -3.246742   -1.411776
     83          1           0        6.998621    0.455733   -0.066467
     84          1           0       -6.298360    0.559966   -0.223402
     85          1           0        5.459937    3.256887    0.479524
     86          1           0       -5.087738   -2.229662   -0.644555
     87          1           0        4.641690    0.156617   -0.127319
     88          1           0       -4.006632    0.747938   -0.340425
     89          1           0        3.270194    3.337115    1.457660
     90          1           0        1.632617    3.250857    0.128776
     91          1           0        3.392882    3.662243   -0.376746
     92          1           0       -3.062341   -2.913516    0.011757
     93          1           0       -2.486604   -2.526732   -1.708272
     94          1           0       -1.321810   -2.550401   -0.264459
     95          1           0        2.492958   -0.398148   -0.200945
     96          1           0       -1.991282    1.091370    0.058587
     97          1           0        0.360169    1.877217    0.436598
     98          1           0        0.239451   -1.325384   -0.173283
 ---------------------------------------------------------------------

 SCF Done:  E(RCAM-B3LYP) =  -1706.98019988     A.U. after   15 cycles

 Excitation energies and oscillator strengths:

 Excited State   1:      Singlet-A      2.0675 eV  599.67 nm  f=3.2354  <S**2>=0.000
     155 ->158        -0.12148
     156 ->157         0.70126
     156 <-157        -0.11681
 This state for optimization and/or second-order correction.
 Total Energy, E(TD-HF/TD-DFT) =  -1706.90421946
 Copying the excited state density for this state as the 1-particle RhoCI density.

 The electronic state is 1-A.
 Alpha  occ. eigenvalues --  -19.23662 -19.21115 -10.31011 -10.30647 -10.28414
 Alpha  occ. eigenvalues --  -10.27986 -10.27776 -10.27775 -10.27637 -10.27476
 Alpha  occ. eigenvalues --  -10.27340 -10.27307 -10.27224 -10.27186 -10.27150
 Alpha  occ. eigenvalues --  -10.27072 -10.27038 -10.26903 -10.26861 -10.26847
 Alpha  occ. eigenvalues --  -10.26777 -10.26765 -10.26723 -10.26590 -10.26513
 Alpha  occ. eigenvalues --  -10.26279 -10.26240 -10.26063 -10.25981 -10.25844
 Alpha  occ. eigenvalues --  -10.25774 -10.25769 -10.25675 -10.25652 -10.25531
 Alpha  occ. eigenvalues --  -10.25515 -10.25478 -10.25408 -10.24895 -10.24316
 Alpha  occ. eigenvalues --  -10.23860 -10.23470  -1.07900  -1.07728  -0.93931
 Alpha  occ. eigenvalues --   -0.93023  -0.91449  -0.91080  -0.89485  -0.88881
 Alpha  occ. eigenvalues --   -0.87808  -0.86702  -0.86387  -0.84962  -0.84341
 Alpha  occ. eigenvalues --   -0.82468  -0.81158  -0.79970  -0.79601  -0.78259
 Alpha  occ. eigenvalues --   -0.77796  -0.76366  -0.76184  -0.75951  -0.75153
 Alpha  occ. eigenvalues --   -0.74950  -0.74914  -0.74408  -0.72837  -0.69922
 Alpha  occ. eigenvalues --   -0.67812  -0.66892  -0.65029  -0.64751  -0.64271
 Alpha  occ. eigenvalues --   -0.63223  -0.62255  -0.60386  -0.60146  -0.59014
 Alpha  occ. eigenvalues --   -0.58445  -0.57777  -0.57473  -0.56808  -0.55632
 Alpha  occ. eigenvalues --   -0.55047  -0.54663  -0.54102  -0.53492  -0.53045
 Alpha  occ. eigenvalues --   -0.52762  -0.52561  -0.51693  -0.51521  -0.50699
 Alpha  occ. eigenvalues --   -0.50156  -0.49809  -0.49648  -0.49255  -0.49195
 Alpha  occ. eigenvalues --   -0.48992  -0.48824  -0.48660  -0.48352  -0.48269
 Alpha  occ. eigenvalues --   -0.47924  -0.47570  -0.47095  -0.46719  -0.46310
 Alpha  occ. eigenvalues --   -0.45824  -0.45409  -0.45297  -0.45169  -0.44657
 Alpha  occ. eigenvalues --   -0.44453  -0.44102  -0.44008  -0.43471  -0.43348
 Alpha  occ. eigenvalues --   -0.43063  -0.42666  -0.42617  -0.42431  -0.41995
 Alpha  occ. eigenvalues --   -0.41815  -0.41806  -0.41743  -0.40701  -0.40411
 Alpha  occ. eigenvalues --   -0.40046  -0.39967  -0.39729  -0.39322  -0.39100
 Alpha  occ. eigenvalues --   -0.38858  -0.38680  -0.38248  -0.37919  -0.37326
 Alpha  occ. eigenvalues --   -0.37156  -0.36870  -0.36002  -0.35627  -0.35319
 Alpha  occ. eigenvalues --   -0.34954  -0.34262  -0.33894  -0.32433  -0.32298
 Alpha  occ. eigenvalues --   -0.32231  -0.29904  -0.27853  -0.25850  -0.24096
 Alpha  occ. eigenvalues --   -0.18503
 Alpha virt. eigenvalues --   -0.06080   0.00130   0.02564   0.05651   0.08190
 Alpha virt. eigenvalues --    0.09065   0.09540   0.10489   0.11294   0.11303
 Alpha virt. eigenvalues --    0.12158   0.12340   0.12631   0.13036   0.13401

 Mulliken charges:
               1
     1  O   -0.543555
     2  O   -0.571106
     3  C   -0.021364
     4  C   -0.028604
     5  C   -0.187256
     6  C   -0.186649
     7  C    0.156968
     8  C    0.192759
     9  C    0.062754
    10  C    0.062884
    11  C   -0.240591
    12  C   -0.224883
    13  C    0.075428
    14  C    0.055062
    15  C   -0.294434
    16  C   -0.290883
    17  C   -0.297648
    18  C   -0.333582
    19  C   -0.107804
    20  C   -0.126707
    21  C   -0.358292
    22  C   -0.365203
    23  C   -0.133098
    24  C   -0.093201
    25  C    0.072792
    26  C    0.100468
    27  C   -0.394969
    28  C   -0.372081
    29  C   -0.110568
    30  C   -0.129833
    31  C   -0.096475
    32  C   -0.099028
    33  C   -0.108049
    34  C   -0.089805
    35  C    0.091257
    36  C    0.061730
    37  C   -0.362310
    38  C   -0.350340
    39  C   -0.103684
    40  C   -0.119134
    41  C   -0.092312
    42  C   -0.098336
    43  H    0.063207
    44  H    0.074480
    45  H    0.064192
    46  H    0.111914
    47  H    0.054577
    48  H    0.083461
    49  H    0.130185
    50  H    0.114908
    51  H    0.109806
    52  H    0.106833
    53  H    0.066317
    54  H    0.115991
    55  H    0.122691
    56  H    0.117526
    57  H    0.108489
    58  H    0.092465
    59  H    0.082289
    60  H    0.111205
    61  H    0.101547
    62  H    0.097937
    63  H    0.115110
    64  H    0.096892
    65  H    0.090428
    66  H    0.094446
    67  H    0.133724
    68  H    0.090096
    69  H    0.107487
    70  H    0.098923
    71  H    0.131803
    72  H    0.083837
    73  H    0.306947
    74  H    0.305185
    75  H    0.108552
    76  H    0.106072
    77  H    0.097418
    78  H    0.129752
    79  H    0.129650
    80  H    0.099578
    81  H    0.135095
    82  H    0.115966
    83  H    0.088470
    84  H    0.089248
    85  H    0.092663
    86  H    0.080329
    87  H    0.055043
    88  H    0.061515
    89  H    0.122267
    90  H    0.069781
    91  H    0.124193
    92  H    0.123882
    93  H    0.135426
    94  H    0.105366
    95  H    0.083581
    96  H    0.087248
    97  H    0.099722
    98  H    0.073965
 Sum of Mulliken charges =  -0.00000

 Dipole moment (field-independent basis, Debye):
    X=             -0.0082    Y=             -2.8376    Z=              1.2636  Tot=              3.1063
 Quadrupole moment (field-independent basis, Debye-Ang):
   XX=           -269.9250   YY=           -242.2604   ZZ=           -261.5707
   XY=             16.4400   XZ=             -0.1349   YZ=              0.6176

 Normal termination of Gaussian 16 at Mon Jul  8 21:50:31 2019.
