 Gaussian 16, Revision A.03,
 Gaussian 16:  ES64L-G16RevA.03 25-Dec-2016

 -------------------------------------
 # td=(NStates=1) CAM-B3LYP/6-31G(d,p)
 -------------------------------------

 --
 TD
 --
 Symbolic Z-matrix:
 Charge =  0 Multiplicity = 1

                         Standard orientation:
 ---------------------------------------------------------------------
 Center     Atomic      Atomic             Coordinates (Angstroms)
 Number     Number       Type             X           Y           Z
 ---------------------------------------------------------------------
      1          8           0       14.738972   -2.196940   -0.327808
      2          8           0      -14.562844    1.974974    1.141388
      3          6           0       11.116905   -1.450343    1.106822
      4          6           0      -12.372018   -0.969612    0.566599
      5          6           0       12.687176   -1.731706    1.079368
      6          6           0      -13.644510   -0.175879    0.757002
      7          6           0       13.280814   -1.950609   -0.357987
      8          6           0      -13.393184    1.301155    1.078755
      9          6           0       10.969978   -0.258428    0.101686
     10          6           0      -11.234692   -0.223301   -0.217275
     11          6           0       13.232831   -0.693940   -1.074265
     12          6           0      -12.584127    1.781731   -0.117712
     13          6           0       11.823431    0.028243   -0.860862
     14          6           0      -11.455596    1.023317   -0.584230
     15          6           0       10.729210   -1.059928    2.480158
     16          6           0       10.291376   -2.687640    0.748744
     17          6           0      -11.784773   -1.285515    1.987932
     18          6           0      -12.735450   -2.296349   -0.179197
     19          6           0        9.650859    0.413770    0.271541
     20          6           0      -10.043955   -1.040135   -0.397815
     21          6           0       11.679605    1.203468   -1.821430
     22          6           0      -10.487728    1.771861   -1.397715
     23          6           0        9.365729    1.747602    0.160398
     24          6           0       -8.802756   -0.442935   -0.434489
     25          6           0        8.004663    2.367571    0.281832
     26          6           0       -7.634312   -1.219632   -0.552418
     27          6           0        8.023995    3.936586    0.483445
     28          6           0       -7.749688   -2.767811   -0.978426
     29          6           0        6.908372    1.601629    0.020393
     30          6           0       -6.391069   -0.664310   -0.477171
     31          6           0        5.536591    2.026794    0.117241
     32          6           0       -4.969645   -1.208772   -0.675639
     33          6           0        4.412035    1.161425   -0.063093
     34          6           0       -3.980326   -0.428613   -0.499663
     35          6           0        3.103454    1.660465   -0.019989
     36          6           0       -2.625643   -0.813970   -0.611982
     37          6           0        2.814532    3.113417    0.291338
     38          6           0       -2.351096   -2.269293   -0.766246
     39          6           0        2.103283    0.779164   -0.152641
     40          6           0       -1.543670    0.134234   -0.452795
     41          6           0        0.657206    0.946627   -0.156860
     42          6           0       -0.174260   -0.050703   -0.432257
     43          1           0       13.149500   -0.932949    1.446791
     44          1           0       13.044855   -2.609107    1.770867
     45          1           0      -14.166784   -0.539278    1.746941
     46          1           0      -14.424881   -0.208312   -0.059380
     47          1           0       12.768199   -2.639620   -0.898262
     48          1           0      -12.761334    1.417097    2.138598
     49          1           0       13.944009    0.114759   -0.567124
     50          1           0       13.594368   -0.842211   -2.139082
     51          1           0      -13.344991    1.743195   -0.908571
     52          1           0      -12.360421    2.861157    0.056172
     53          1           0       11.256654   -1.900873    3.164258
     54          1           0        9.509144   -1.236118    2.682036
     55          1           0       11.104994   -0.002517    2.626208
     56          1           0       10.773395   -3.124726   -0.032525
     57          1           0       10.100669   -3.498435    1.605430
     58          1           0        9.304289   -2.159779    0.581611
     59          1           0      -11.654361   -0.436929    2.774554
     60          1           0      -10.853002   -1.870265    2.019041
     61          1           0      -12.522844   -2.029622    2.572685
     62          1           0      -13.635438   -2.476386    0.282719
     63          1           0      -11.856873   -2.947406   -0.140228
     64          1           0      -13.043912   -2.215955   -1.178829
     65          1           0        8.968910   -0.440657    0.457135
     66          1           0      -10.108115   -2.188256   -0.283643
     67          1           0       10.616578    1.593298   -2.130594
     68          1           0       12.294550    1.981561   -1.379124
     69          1           0       12.142118    0.927835   -2.694878
     70          1           0      -11.104917    2.419492   -2.123715
     71          1           0       -9.899020    1.083301   -2.055113
     72          1           0       -9.900047    2.585255   -0.753740
     73          1           0       15.180868   -3.123662    0.040882
     74          1           0      -15.210731    1.538202    1.744196
     75          1           0       10.187474    2.402684    0.186799
     76          1           0       -8.616229    0.480596   -0.191356
     77          1           0        8.875256    4.347626    0.557859
     78          1           0        7.465152    4.379638   -0.243947
     79          1           0        7.478908    4.050042    1.559883
     80          1           0       -8.455005   -3.172091   -0.268796
     81          1           0       -8.134938   -2.837570   -2.139888
     82          1           0       -6.805274   -3.379318   -0.950685
     83          1           0        7.075288    0.495328   -0.315405
     84          1           0       -6.460411    0.456378   -0.434977
     85          1           0        5.261703    3.117743    0.231672
     86          1           0       -5.094901   -2.382771   -0.718274
     87          1           0        4.540225    0.110210   -0.334015
     88          1           0       -4.246503    0.697138   -0.342261
     89          1           0        3.845835    3.672331    1.052257
     90          1           0        1.610845    3.111737    0.888421
     91          1           0        2.830735    3.586757   -0.970600
     92          1           0       -2.864696   -2.852824   -0.027757
     93          1           0       -2.815313   -2.497183   -1.891962
     94          1           0       -1.325922   -2.494908   -0.807860
     95          1           0        2.245401   -0.284596   -0.172542
     96          1           0       -1.747515    1.332441   -0.421112
     97          1           0        0.101021    1.800506   -0.038395
     98          1           0        0.133121   -1.064033   -0.587586
 ---------------------------------------------------------------------

 SCF Done:  E(RCAM-B3LYP) =  -1706.89363595     A.U. after   15 cycles

 Excitation energies and oscillator strengths:

 Excited State   1:      Singlet-A      2.4866 eV  498.60 nm  f=3.6427  <S**2>=0.000
     155 ->158        -0.17119
     156 ->157         0.68071
 This state for optimization and/or second-order correction.
 Total Energy, E(TD-HF/TD-DFT) =  -1706.80225383
 Copying the excited state density for this state as the 1-particle RhoCI density.

 The electronic state is 1-A.
 Alpha  occ. eigenvalues --  -19.21832 -19.21161 -10.32241 -10.31041 -10.29875
 Alpha  occ. eigenvalues --  -10.27842 -10.27757 -10.27504 -10.27440 -10.27095
 Alpha  occ. eigenvalues --  -10.27086 -10.27035 -10.26967 -10.26863 -10.26783
 Alpha  occ. eigenvalues --  -10.26781 -10.26683 -10.26679 -10.26529 -10.26332
 Alpha  occ. eigenvalues --  -10.26329 -10.26303 -10.26178 -10.26117 -10.26034
 Alpha  occ. eigenvalues --  -10.25958 -10.25939 -10.25789 -10.25728 -10.25607
 Alpha  occ. eigenvalues --  -10.25482 -10.25451 -10.25310 -10.25294 -10.25135
 Alpha  occ. eigenvalues --  -10.24929 -10.24779 -10.24736 -10.24735 -10.24728
 Alpha  occ. eigenvalues --  -10.24446 -10.23601  -1.11722  -1.05133  -0.93908
 Alpha  occ. eigenvalues --   -0.93403  -0.92530  -0.91543  -0.90139  -0.89430
 Alpha  occ. eigenvalues --   -0.88302  -0.87304  -0.87000  -0.85015  -0.84539
 Alpha  occ. eigenvalues --   -0.82860  -0.81761  -0.80256  -0.79300  -0.77628
 Alpha  occ. eigenvalues --   -0.76540  -0.76259  -0.75941  -0.75780  -0.75068
 Alpha  occ. eigenvalues --   -0.74549  -0.74407  -0.74344  -0.73025  -0.70635
 Alpha  occ. eigenvalues --   -0.69040  -0.67740  -0.65757  -0.65000  -0.64350
 Alpha  occ. eigenvalues --   -0.63315  -0.62611  -0.62151  -0.59938  -0.59137
 Alpha  occ. eigenvalues --   -0.58972  -0.58250  -0.58027  -0.57581  -0.56451
 Alpha  occ. eigenvalues --   -0.55082  -0.54765  -0.53989  -0.53816  -0.53580
 Alpha  occ. eigenvalues --   -0.52965  -0.52495  -0.52192  -0.51464  -0.50610
 Alpha  occ. eigenvalues --   -0.50340  -0.49832  -0.49370  -0.49200  -0.48854
 Alpha  occ. eigenvalues --   -0.48772  -0.48376  -0.48140  -0.47992  -0.47865
 Alpha  occ. eigenvalues --   -0.47520  -0.47071  -0.46630  -0.46390  -0.46290
 Alpha  occ. eigenvalues --   -0.45919  -0.45539  -0.45318  -0.45042  -0.44730
 Alpha  occ. eigenvalues --   -0.44307  -0.44016  -0.43862  -0.43771  -0.43454
 Alpha  occ. eigenvalues --   -0.42789  -0.42276  -0.42117  -0.41943  -0.41869
 Alpha  occ. eigenvalues --   -0.41789  -0.41021  -0.40996  -0.40537  -0.40353
 Alpha  occ. eigenvalues --   -0.40025  -0.39673  -0.39645  -0.39473  -0.39083
 Alpha  occ. eigenvalues --   -0.38934  -0.38887  -0.38840  -0.38131  -0.37515
 Alpha  occ. eigenvalues --   -0.37167  -0.36861  -0.36370  -0.36181  -0.36000
 Alpha  occ. eigenvalues --   -0.34910  -0.34033  -0.33576  -0.32186  -0.32067
 Alpha  occ. eigenvalues --   -0.31631  -0.30388  -0.28619  -0.25891  -0.23163
 Alpha  occ. eigenvalues --   -0.20042
 Alpha virt. eigenvalues --   -0.04815  -0.00668   0.02301   0.05853   0.08311
 Alpha virt. eigenvalues --    0.09116   0.09821   0.10354   0.11435   0.11480
 Alpha virt. eigenvalues --    0.11827   0.12229   0.12412   0.12644   0.13638

 Mulliken charges:
               1
     1  O   -0.600450
     2  O   -0.542865
     3  C   -0.021885
     4  C   -0.023424
     5  C   -0.186817
     6  C   -0.220124
     7  C    0.187131
     8  C    0.193924
     9  C    0.032372
    10  C    0.115022
    11  C   -0.201009
    12  C   -0.236822
    13  C    0.014508
    14  C    0.076938
    15  C   -0.270585
    16  C   -0.271552
    17  C   -0.302820
    18  C   -0.298900
    19  C   -0.075750
    20  C   -0.145083
    21  C   -0.353542
    22  C   -0.372749
    23  C   -0.129438
    24  C   -0.064669
    25  C    0.062613
    26  C    0.089588
    27  C   -0.342102
    28  C   -0.352718
    29  C   -0.118571
    30  C   -0.170608
    31  C   -0.113311
    32  C   -0.068943
    33  C   -0.100592
    34  C   -0.077900
    35  C    0.146643
    36  C    0.067949
    37  C   -0.310962
    38  C   -0.352758
    39  C   -0.142892
    40  C   -0.141658
    41  C   -0.079434
    42  C   -0.039716
    43  H    0.110010
    44  H    0.060033
    45  H    0.064203
    46  H    0.099581
    47  H    0.095997
    48  H    0.040626
    49  H    0.112577
    50  H    0.107169
    51  H    0.117280
    52  H    0.104663
    53  H    0.086284
    54  H    0.074879
    55  H    0.104770
    56  H    0.106844
    57  H    0.088644
    58  H    0.091609
    59  H    0.104110
    60  H    0.105351
    61  H    0.069659
    62  H    0.109951
    63  H    0.097988
    64  H    0.111567
    65  H    0.082210
    66  H    0.084505
    67  H    0.114475
    68  H    0.119146
    69  H    0.112687
    70  H    0.090309
    71  H    0.124808
    72  H    0.100705
    73  H    0.302381
    74  H    0.311763
    75  H    0.088005
    76  H    0.088683
    77  H    0.118380
    78  H    0.135358
    79  H    0.099802
    80  H    0.117062
    81  H    0.104653
    82  H    0.101427
    83  H    0.086035
    84  H    0.061043
    85  H    0.081097
    86  H    0.085544
    87  H    0.086387
    88  H    0.091098
    89  H    0.082147
    90  H    0.092847
    91  H    0.092236
    92  H    0.129980
    93  H    0.097356
    94  H    0.111701
    95  H    0.080896
    96  H    0.062356
    97  H    0.068647
    98  H    0.074436
 Sum of Mulliken charges =  -0.00000

 Dipole moment (field-independent basis, Debye):
    X=              0.1594    Y=             -1.9662    Z=              0.6098  Tot=              2.0647
 Quadrupole moment (field-independent basis, Debye-Ang):
   XX=           -242.0303   YY=           -245.2047   ZZ=           -264.3784
   XY=              5.7793   XZ=             -8.0430   YZ=              0.0760

 Normal termination of Gaussian 16 at Sun Jul 14 00:34:10 2019.
