 Gaussian 16, Revision A.03,
 Gaussian 16:  ES64L-G16RevA.03 25-Dec-2016

 -------------------------------------
 # td=(NStates=1) CAM-B3LYP/6-31G(d,p)
 -------------------------------------

 --
 TD
 --
 Symbolic Z-matrix:
 Charge =  0 Multiplicity = 1

                         Standard orientation:
 ---------------------------------------------------------------------
 Center     Atomic      Atomic             Coordinates (Angstroms)
 Number     Number       Type             X           Y           Z
 ---------------------------------------------------------------------
      1          8           0       14.719339   -2.311089   -0.196516
      2          8           0      -14.751943    1.916846    0.956304
      3          6           0       11.284529   -1.412193    1.064582
      4          6           0      -12.413057   -1.064204    0.525086
      5          6           0       12.671480   -1.792338    1.017866
      6          6           0      -13.806546   -0.301948    0.578975
      7          6           0       13.315550   -2.011812   -0.352944
      8          6           0      -13.537499    1.241079    0.942308
      9          6           0       10.926536   -0.258652    0.046943
     10          6           0      -11.327912   -0.289894   -0.114525
     11          6           0       13.348494   -0.625073   -0.978097
     12          6           0      -12.693553    1.854136   -0.232775
     13          6           0       11.949020    0.129206   -0.894125
     14          6           0      -11.417129    1.005725   -0.607573
     15          6           0       10.743631   -1.109924    2.387703
     16          6           0       10.511404   -2.729597    0.486011
     17          6           0      -12.074057   -1.381769    1.986543
     18          6           0      -12.727396   -2.369208   -0.227406
     19          6           0        9.578295    0.367971    0.079105
     20          6           0      -10.105997   -1.020782   -0.284381
     21          6           0       11.791605    1.164425   -1.967173
     22          6           0      -10.453960    1.735994   -1.493244
     23          6           0        9.398640    1.664901    0.183760
     24          6           0       -8.835916   -0.491601   -0.369240
     25          6           0        8.051151    2.320483    0.219060
     26          6           0       -7.620070   -1.202109   -0.570705
     27          6           0        8.038236    3.808222    0.568590
     28          6           0       -7.743540   -2.589714   -0.950542
     29          6           0        6.943474    1.586539   -0.006327
     30          6           0       -6.422125   -0.514600   -0.337787
     31          6           0        5.597253    2.037274    0.193275
     32          6           0       -5.142209   -1.048052   -0.669409
     33          6           0        4.534815    1.339475   -0.100889
     34          6           0       -3.975422   -0.363167   -0.307088
     35          6           0        3.088046    1.811433    0.093583
     36          6           0       -2.624032   -0.713806   -0.460863
     37          6           0        2.729977    3.206899    0.418010
     38          6           0       -2.373490   -2.230603   -0.773399
     39          6           0        2.194516    0.844249   -0.028973
     40          6           0       -1.571566    0.116558   -0.223115
     41          6           0        0.754985    0.988649   -0.003962
     42          6           0       -0.172506   -0.022510   -0.333626
     43          1           0       13.382428   -1.200679    1.507636
     44          1           0       12.692591   -2.741199    1.536079
     45          1           0      -14.434424   -0.790406    1.222228
     46          1           0      -14.363323   -0.358297   -0.241183
     47          1           0       12.997520   -2.587164   -1.033528
     48          1           0      -13.182898    1.471667    1.886690
     49          1           0       14.082616    0.113524   -0.539291
     50          1           0       13.634374   -0.602250   -2.291527
     51          1           0      -13.419317    2.173803   -0.869538
     52          1           0      -12.250921    2.687188    0.119002
     53          1           0       11.132201   -1.752255    3.160988
     54          1           0        9.642542   -1.055821    2.307737
     55          1           0       11.204661   -0.036861    2.753988
     56          1           0       10.887504   -2.954863   -0.628886
     57          1           0       10.552427   -3.625153    1.164805
     58          1           0        9.521389   -2.531421    0.299971
     59          1           0      -11.847379   -0.358209    2.542520
     60          1           0      -11.054723   -1.829077    2.202866
     61          1           0      -12.955794   -1.775991    2.591078
     62          1           0      -13.363138   -2.924023    0.284212
     63          1           0      -11.897765   -3.138642   -0.081493
     64          1           0      -12.666490   -2.311583   -1.437484
     65          1           0        8.888586   -0.563261    0.231728
     66          1           0      -10.201996   -1.964903   -0.765090
     67          1           0       10.729015    1.572016   -2.156997
     68          1           0       12.531563    1.995438   -1.722948
     69          1           0       12.351043    0.693977   -2.811148
     70          1           0      -11.035334    2.243172   -2.173695
     71          1           0       -9.779432    0.944167   -2.114244
     72          1           0       -9.802235    2.349800   -0.957812
     73          1           0       15.073892   -3.169614    0.456406
     74          1           0      -15.450037    1.192878    1.447409
     75          1           0       10.176459    2.530269    0.091072
     76          1           0       -8.760145    0.571766   -0.004157
     77          1           0        8.833031    4.431389    0.579818
     78          1           0        7.306662    4.286703   -0.159872
     79          1           0        7.416206    3.655600    1.467948
     80          1           0       -8.345886   -3.291324   -0.073431
     81          1           0       -8.015018   -2.702020   -2.019156
     82          1           0       -6.723520   -2.889537   -0.936646
     83          1           0        7.023137    0.546212   -0.141170
     84          1           0       -6.467594    0.520543   -0.001742
     85          1           0        5.709649    3.007529    0.462230
     86          1           0       -5.260213   -2.189204   -1.110038
     87          1           0        4.886153    0.174052   -0.320858
     88          1           0       -4.207013    0.573899    0.146137
     89          1           0        2.893718    3.376725    1.577634
     90          1           0        1.744461    3.531419    0.305761
     91          1           0        3.710600    3.815901   -0.009044
     92          1           0       -2.435792   -2.797447    0.287622
     93          1           0       -3.145860   -2.581022   -1.366883
     94          1           0       -1.288112   -2.416560   -0.929715
     95          1           0        2.459004   -0.196676   -0.334593
     96          1           0       -1.893397    1.138798    0.010906
     97          1           0        0.445871    1.812208    0.149332
     98          1           0        0.117347   -0.999221   -0.659345
 ---------------------------------------------------------------------

 SCF Done:  E(RCAM-B3LYP) =  -1706.84929491     A.U. after   14 cycles

 Excitation energies and oscillator strengths:

 Excited State   1:      Singlet-A      2.5188 eV  492.23 nm  f=3.6463  <S**2>=0.000
     155 ->158         0.16227
     156 ->157         0.68389
 This state for optimization and/or second-order correction.
 Total Energy, E(TD-HF/TD-DFT) =  -1706.75672900
 Copying the excited state density for this state as the 1-particle RhoCI density.

 The electronic state is 1-A.
 Alpha  occ. eigenvalues --  -19.21191 -19.21049 -10.29323 -10.29291 -10.28014
 Alpha  occ. eigenvalues --  -10.27751 -10.27737 -10.27645 -10.27451 -10.27431
 Alpha  occ. eigenvalues --  -10.27413 -10.27287 -10.27196 -10.27185 -10.27169
 Alpha  occ. eigenvalues --  -10.27022 -10.26887 -10.26822 -10.26627 -10.26443
 Alpha  occ. eigenvalues --  -10.26433 -10.26422 -10.26403 -10.25979 -10.25957
 Alpha  occ. eigenvalues --  -10.25743 -10.25728 -10.25726 -10.25508 -10.25449
 Alpha  occ. eigenvalues --  -10.25405 -10.25397 -10.25391 -10.25054 -10.24965
 Alpha  occ. eigenvalues --  -10.24751 -10.24626 -10.24332 -10.24124 -10.24115
 Alpha  occ. eigenvalues --  -10.23635 -10.23484  -1.07990  -1.05696  -0.93281
 Alpha  occ. eigenvalues --   -0.93211  -0.92205  -0.91751  -0.90935  -0.90059
 Alpha  occ. eigenvalues --   -0.87316  -0.86791  -0.86194  -0.85419  -0.84300
 Alpha  occ. eigenvalues --   -0.83316  -0.81898  -0.80642  -0.79329  -0.78073
 Alpha  occ. eigenvalues --   -0.76998  -0.76546  -0.76259  -0.75905  -0.75845
 Alpha  occ. eigenvalues --   -0.75377  -0.75220  -0.74804  -0.73615  -0.70811
 Alpha  occ. eigenvalues --   -0.68913  -0.67501  -0.66329  -0.65701  -0.64838
 Alpha  occ. eigenvalues --   -0.63526  -0.62603  -0.62415  -0.61585  -0.60064
 Alpha  occ. eigenvalues --   -0.59353  -0.58518  -0.57916  -0.57274  -0.56169
 Alpha  occ. eigenvalues --   -0.55477  -0.55051  -0.54625  -0.54152  -0.53832
 Alpha  occ. eigenvalues --   -0.53116  -0.52585  -0.51792  -0.51426  -0.51190
 Alpha  occ. eigenvalues --   -0.50679  -0.50647  -0.49943  -0.49846  -0.49306
 Alpha  occ. eigenvalues --   -0.49112  -0.48660  -0.48201  -0.47996  -0.47796
 Alpha  occ. eigenvalues --   -0.47696  -0.47109  -0.46989  -0.46714  -0.46538
 Alpha  occ. eigenvalues --   -0.46055  -0.45647  -0.45531  -0.45429  -0.44950
 Alpha  occ. eigenvalues --   -0.44853  -0.44517  -0.44486  -0.44378  -0.43972
 Alpha  occ. eigenvalues --   -0.43178  -0.42992  -0.42478  -0.42401  -0.41930
 Alpha  occ. eigenvalues --   -0.41731  -0.41663  -0.41187  -0.40916  -0.40507
 Alpha  occ. eigenvalues --   -0.39555  -0.39371  -0.39362  -0.39200  -0.38980
 Alpha  occ. eigenvalues --   -0.38700  -0.38417  -0.38143  -0.37783  -0.37687
 Alpha  occ. eigenvalues --   -0.37383  -0.36757  -0.36483  -0.35941  -0.35538
 Alpha  occ. eigenvalues --   -0.34725  -0.34083  -0.33642  -0.32421  -0.32328
 Alpha  occ. eigenvalues --   -0.30706  -0.29366  -0.27612  -0.25712  -0.23482
 Alpha  occ. eigenvalues --   -0.20183
 Alpha virt. eigenvalues --   -0.04936  -0.00629   0.02336   0.06079   0.07485
 Alpha virt. eigenvalues --    0.08863   0.09374   0.09682   0.11091   0.11540
 Alpha virt. eigenvalues --    0.11941   0.12119   0.12944   0.13356   0.13572

 Mulliken charges:
               1
     1  O   -0.602860
     2  O   -0.576493
     3  C    0.000956
     4  C   -0.007662
     5  C   -0.183159
     6  C   -0.202596
     7  C    0.232684
     8  C    0.176879
     9  C    0.025072
    10  C    0.071874
    11  C   -0.205896
    12  C   -0.223425
    13  C    0.033482
    14  C    0.017252
    15  C   -0.282987
    16  C   -0.318252
    17  C   -0.310277
    18  C   -0.300567
    19  C   -0.114840
    20  C   -0.130270
    21  C   -0.351557
    22  C   -0.356994
    23  C   -0.086185
    24  C   -0.113894
    25  C    0.046003
    26  C    0.103710
    27  C   -0.379743
    28  C   -0.362869
    29  C   -0.102394
    30  C   -0.107019
    31  C   -0.038354
    32  C   -0.094262
    33  C   -0.128343
    34  C   -0.125272
    35  C    0.111752
    36  C    0.110172
    37  C   -0.368515
    38  C   -0.356315
    39  C   -0.114107
    40  C   -0.129007
    41  C   -0.028965
    42  C   -0.083293
    43  H    0.108542
    44  H    0.079874
    45  H    0.075454
    46  H    0.108215
    47  H    0.089708
    48  H    0.088002
    49  H    0.126254
    50  H    0.046535
    51  H    0.124895
    52  H    0.115226
    53  H    0.102920
    54  H    0.104613
    55  H    0.081283
    56  H    0.091024
    57  H    0.098464
    58  H    0.102378
    59  H    0.088226
    60  H    0.110564
    61  H    0.095836
    62  H    0.106463
    63  H    0.083616
    64  H    0.100006
    65  H    0.098284
    66  H    0.092357
    67  H    0.118766
    68  H    0.106291
    69  H    0.105013
    70  H    0.119776
    71  H    0.107217
    72  H    0.127875
    73  H    0.297802
    74  H    0.299349
    75  H    0.092730
    76  H    0.072149
    77  H    0.120252
    78  H    0.119038
    79  H    0.141224
    80  H    0.104568
    81  H    0.128929
    82  H    0.098653
    83  H    0.065968
    84  H    0.086537
    85  H    0.055509
    86  H    0.079160
    87  H    0.076607
    88  H    0.084568
    89  H    0.113041
    90  H    0.133667
    91  H    0.105113
    92  H    0.101418
    93  H    0.124977
    94  H    0.109685
    95  H    0.076944
    96  H    0.066715
    97  H    0.025357
    98  H    0.072894
 Sum of Mulliken charges =  -0.00000

 Dipole moment (field-independent basis, Debye):
    X=              0.2315    Y=             -1.5564    Z=              1.7539  Tot=              2.3563
 Quadrupole moment (field-independent basis, Debye-Ang):
   XX=           -266.3526   YY=           -243.0344   ZZ=           -262.7834
   XY=             16.0993   XZ=              9.9242   YZ=             -0.5657

 Normal termination of Gaussian 16 at Thu Jul 11 19:03:56 2019.
