 Gaussian 16, Revision A.03,
 Gaussian 16:  ES64L-G16RevA.03 25-Dec-2016

 -------------------------------------
 # td=(NStates=1) CAM-B3LYP/6-31G(d,p)
 -------------------------------------

 --
 TD
 --
 Symbolic Z-matrix:
 Charge =  0 Multiplicity = 1

                         Standard orientation:
 ---------------------------------------------------------------------
 Center     Atomic      Atomic             Coordinates (Angstroms)
 Number     Number       Type             X           Y           Z
 ---------------------------------------------------------------------
      1          8           0       14.484675   -2.364042   -0.394699
      2          8           0      -14.783760    2.048700    0.704987
      3          6           0       11.138481   -1.429298    0.925072
      4          6           0      -12.379519   -0.984435    0.521216
      5          6           0       12.623243   -1.914206    0.883342
      6          6           0      -13.775746   -0.280820    0.553722
      7          6           0       13.141952   -1.945467   -0.467418
      8          6           0      -13.567304    1.224714    0.751028
      9          6           0       10.995612   -0.202444   -0.003594
     10          6           0      -11.284374   -0.197655   -0.207519
     11          6           0       13.117930   -0.590795   -1.109916
     12          6           0      -12.678886    1.739193   -0.428312
     13          6           0       11.802243    0.076634   -1.028373
     14          6           0      -11.417281    1.020376   -0.632707
     15          6           0       10.890238   -1.076974    2.344060
     16          6           0       10.279209   -2.738767    0.553033
     17          6           0      -12.056348   -1.178430    2.031047
     18          6           0      -12.547009   -2.419374   -0.093393
     19          6           0        9.730491    0.529745    0.186135
     20          6           0      -10.013603   -0.964079   -0.330310
     21          6           0       11.729685    1.302771   -1.999060
     22          6           0      -10.412020    1.758190   -1.417553
     23          6           0        9.384208    1.818229    0.143474
     24          6           0       -8.741630   -0.487513   -0.325197
     25          6           0        8.013795    2.375111    0.272383
     26          6           0       -7.555282   -1.231853   -0.458680
     27          6           0        7.864169    3.813090    0.611083
     28          6           0       -7.675244   -2.743831   -0.805471
     29          6           0        6.910569    1.635191    0.082962
     30          6           0       -6.420327   -0.605161   -0.343788
     31          6           0        5.617797    2.165356    0.284061
     32          6           0       -4.984988   -1.050179   -0.516718
     33          6           0        4.555330    1.205250    0.045577
     34          6           0       -3.851653   -0.438058   -0.370312
     35          6           0        3.195839    1.671000    0.146137
     36          6           0       -2.553237   -0.898086   -0.320113
     37          6           0        2.831480    3.092484    0.361687
     38          6           0       -2.256234   -2.272525   -0.684708
     39          6           0        2.158206    0.751094   -0.106130
     40          6           0       -1.514732    0.083975   -0.038400
     41          6           0        0.754131    0.931745    0.134208
     42          6           0       -0.126123   -0.100775   -0.161641
     43          1           0       13.129300   -1.206418    1.711205
     44          1           0       12.758430   -2.831300    1.321336
     45          1           0      -14.640517   -0.756820    1.193318
     46          1           0      -14.121811   -0.305470   -0.401192
     47          1           0       12.559639   -2.607055   -0.882869
     48          1           0      -12.995147    1.499482    1.721597
     49          1           0       13.929115    0.062987   -0.726671
     50          1           0       13.574975   -0.908419   -2.015256
     51          1           0      -13.312494    1.637988   -1.459642
     52          1           0      -12.533029    2.828665   -0.046172
     53          1           0       11.250997   -1.894726    3.131375
     54          1           0        9.812661   -0.804250    2.684676
     55          1           0       11.678394   -0.338498    2.691008
     56          1           0       10.509929   -3.227127   -0.267727
     57          1           0       10.352609   -3.431489    1.369839
     58          1           0        9.152322   -2.353604    0.522025
     59          1           0      -12.004438   -0.177744    2.542342
     60          1           0      -11.102499   -1.860830    2.152437
     61          1           0      -13.055199   -1.605374    2.393458
     62          1           0      -13.381828   -2.895537    0.251226
     63          1           0      -11.687487   -3.026204   -0.024828
     64          1           0      -12.955868   -2.140156   -1.348463
     65          1           0        8.917608    0.073437    0.623782
     66          1           0      -10.123937   -2.140705   -0.403157
     67          1           0       10.630196    1.532250   -2.317827
     68          1           0       12.105849    2.277415   -1.314547
     69          1           0       12.446553    0.944298   -2.838616
     70          1           0      -10.779657    2.520839   -2.227719
     71          1           0       -9.947831    1.095819   -2.137532
     72          1           0       -9.661600    2.293952   -0.517095
     73          1           0       14.544882   -3.185508    0.085927
     74          1           0      -15.260390    1.797935    1.436952
     75          1           0       10.110187    2.697580    0.123822
     76          1           0       -8.589464    0.513073   -0.119783
     77          1           0        8.873963    4.282358    0.455062
     78          1           0        7.369885    4.405120   -0.104966
     79          1           0        7.236793    4.068332    1.482499
     80          1           0       -8.347936   -3.206257   -0.075694
     81          1           0       -8.144662   -2.659475   -1.809220
     82          1           0       -6.748204   -3.300366   -0.833699
     83          1           0        7.004649    0.465301   -0.191064
     84          1           0       -6.511660    0.552584    0.021344
     85          1           0        5.533400    3.204342    0.577353
     86          1           0       -4.831769   -2.105585   -1.100409
     87          1           0        4.786626    0.351658   -0.437427
     88          1           0       -3.866419    0.545790    0.078137
     89          1           0        3.217546    3.338037    1.417700
     90          1           0        1.761335    3.057786    0.296674
     91          1           0        3.217835    3.749539   -0.369343
     92          1           0       -2.719873   -3.091187    0.023902
     93          1           0       -2.605428   -2.684267   -1.748715
     94          1           0       -1.184026   -2.607760   -0.834469
     95          1           0        2.512032   -0.401224   -0.412089
     96          1           0       -2.008964    1.048998    0.132561
     97          1           0        0.621939    1.744850    0.758917
     98          1           0        0.376769   -0.974852   -0.602080
 ---------------------------------------------------------------------

 SCF Done:  E(RCAM-B3LYP) =  -1706.94671584     A.U. after   15 cycles

 Excitation energies and oscillator strengths:

 Excited State   1:      Singlet-A      2.2823 eV  543.24 nm  f=3.4710  <S**2>=0.000
     155 ->158        -0.14814
     156 ->157         0.69055
 This state for optimization and/or second-order correction.
 Total Energy, E(TD-HF/TD-DFT) =  -1706.86284251
 Copying the excited state density for this state as the 1-particle RhoCI density.

 The electronic state is 1-A.
 Alpha  occ. eigenvalues --  -19.20754 -19.20519 -10.31391 -10.28117 -10.28041
 Alpha  occ. eigenvalues --  -10.27947 -10.27741 -10.27465 -10.27362 -10.27280
 Alpha  occ. eigenvalues --  -10.27174 -10.27100 -10.27063 -10.27041 -10.27038
 Alpha  occ. eigenvalues --  -10.27016 -10.26864 -10.26824 -10.26607 -10.26575
 Alpha  occ. eigenvalues --  -10.26391 -10.26349 -10.26347 -10.26318 -10.26276
 Alpha  occ. eigenvalues --  -10.26244 -10.26156 -10.26038 -10.25975 -10.25770
 Alpha  occ. eigenvalues --  -10.25682 -10.25601 -10.25528 -10.25483 -10.25395
 Alpha  occ. eigenvalues --  -10.25288 -10.25009 -10.24875 -10.24846 -10.24721
 Alpha  occ. eigenvalues --  -10.24328 -10.23979  -1.10113  -1.09309  -0.94199
 Alpha  occ. eigenvalues --   -0.93939  -0.92347  -0.91894  -0.91083  -0.90427
 Alpha  occ. eigenvalues --   -0.87529  -0.87358  -0.87107  -0.85907  -0.84627
 Alpha  occ. eigenvalues --   -0.83158  -0.81975  -0.80697  -0.79619  -0.77848
 Alpha  occ. eigenvalues --   -0.76944  -0.76744  -0.76404  -0.75928  -0.75823
 Alpha  occ. eigenvalues --   -0.75471  -0.75334  -0.74561  -0.73391  -0.70957
 Alpha  occ. eigenvalues --   -0.68835  -0.67636  -0.66200  -0.64978  -0.64275
 Alpha  occ. eigenvalues --   -0.63905  -0.63021  -0.62363  -0.60518  -0.60350
 Alpha  occ. eigenvalues --   -0.59207  -0.58925  -0.58034  -0.57071  -0.56240
 Alpha  occ. eigenvalues --   -0.55480  -0.55188  -0.55110  -0.54322  -0.54063
 Alpha  occ. eigenvalues --   -0.53254  -0.52963  -0.52060  -0.51859  -0.50801
 Alpha  occ. eigenvalues --   -0.50291  -0.49899  -0.49540  -0.49283  -0.49168
 Alpha  occ. eigenvalues --   -0.48624  -0.48497  -0.48367  -0.48252  -0.48088
 Alpha  occ. eigenvalues --   -0.47988  -0.47616  -0.47268  -0.46989  -0.46514
 Alpha  occ. eigenvalues --   -0.46303  -0.45963  -0.45297  -0.45056  -0.44917
 Alpha  occ. eigenvalues --   -0.44699  -0.44309  -0.44215  -0.43693  -0.43203
 Alpha  occ. eigenvalues --   -0.42996  -0.42551  -0.42191  -0.41843  -0.41695
 Alpha  occ. eigenvalues --   -0.41653  -0.41403  -0.41167  -0.40625  -0.40599
 Alpha  occ. eigenvalues --   -0.40337  -0.40196  -0.39853  -0.39654  -0.39310
 Alpha  occ. eigenvalues --   -0.38950  -0.38508  -0.38329  -0.37714  -0.37485
 Alpha  occ. eigenvalues --   -0.37357  -0.36823  -0.36654  -0.36014  -0.35795
 Alpha  occ. eigenvalues --   -0.35470  -0.35165  -0.34356  -0.32781  -0.32422
 Alpha  occ. eigenvalues --   -0.31928  -0.30701  -0.28430  -0.26141  -0.23747
 Alpha  occ. eigenvalues --   -0.19633
 Alpha virt. eigenvalues --   -0.05581  -0.00651   0.02315   0.05071   0.08322
 Alpha virt. eigenvalues --    0.09712   0.10876   0.11297   0.11922   0.12182
 Alpha virt. eigenvalues --    0.12700   0.13113   0.13359   0.13423   0.13552

 Mulliken charges:
               1
     1  O   -0.571721
     2  O   -0.550982
     3  C   -0.017961
     4  C   -0.048983
     5  C   -0.186374
     6  C   -0.189364
     7  C    0.196828
     8  C    0.138719
     9  C    0.093451
    10  C    0.130489
    11  C   -0.221289
    12  C   -0.224723
    13  C    0.032170
    14  C    0.058424
    15  C   -0.309041
    16  C   -0.298598
    17  C   -0.271605
    18  C   -0.270987
    19  C   -0.116397
    20  C   -0.157112
    21  C   -0.333178
    22  C   -0.351972
    23  C   -0.101879
    24  C   -0.074757
    25  C    0.081126
    26  C    0.150107
    27  C   -0.400554
    28  C   -0.361328
    29  C   -0.109789
    30  C   -0.163272
    31  C   -0.091390
    32  C   -0.107340
    33  C   -0.105730
    34  C   -0.093730
    35  C    0.080124
    36  C    0.155155
    37  C   -0.354411
    38  C   -0.399146
    39  C   -0.132803
    40  C   -0.132272
    41  C   -0.076822
    42  C   -0.095103
    43  H    0.068420
    44  H    0.071684
    45  H    0.076799
    46  H    0.110954
    47  H    0.084087
    48  H    0.072440
    49  H    0.125657
    50  H    0.109334
    51  H    0.103198
    52  H    0.108586
    53  H    0.079955
    54  H    0.098770
    55  H    0.105678
    56  H    0.113386
    57  H    0.109525
    58  H    0.081153
    59  H    0.099697
    60  H    0.091302
    61  H    0.089640
    62  H    0.114722
    63  H    0.111562
    64  H    0.044771
    65  H    0.082553
    66  H    0.067272
    67  H    0.120398
    68  H    0.102721
    69  H    0.108022
    70  H    0.098367
    71  H    0.132318
    72  H    0.089909
    73  H    0.299506
    74  H    0.297165
    75  H    0.065841
    76  H    0.072297
    77  H    0.100477
    78  H    0.130658
    79  H    0.126918
    80  H    0.118219
    81  H    0.126281
    82  H    0.114624
    83  H    0.075806
    84  H    0.062153
    85  H    0.095040
    86  H    0.061810
    87  H    0.092287
    88  H    0.068499
    89  H    0.109365
    90  H    0.106413
    91  H    0.132825
    92  H    0.112429
    93  H    0.104411
    94  H    0.107360
    95  H    0.056981
    96  H    0.089361
    97  H    0.105778
    98  H    0.098633
 Sum of Mulliken charges =  -0.00000

 Dipole moment (field-independent basis, Debye):
    X=             -0.0427    Y=             -1.6374    Z=              1.2952  Tot=              2.0881
 Quadrupole moment (field-independent basis, Debye-Ang):
   XX=           -278.0169   YY=           -242.7818   ZZ=           -262.3809
   XY=              8.3864   XZ=             -6.7545   YZ=              2.6558

 Normal termination of Gaussian 16 at Sun Jul 14 08:56:48 2019.
