 Gaussian 16, Revision A.03,
 Gaussian 16:  ES64L-G16RevA.03 25-Dec-2016

 -------------------------------------
 # td=(NStates=1) CAM-B3LYP/6-31G(d,p)
 -------------------------------------

 --
 TD
 --
 Symbolic Z-matrix:
 Charge =  0 Multiplicity = 1

                         Standard orientation:
 ---------------------------------------------------------------------
 Center     Atomic      Atomic             Coordinates (Angstroms)
 Number     Number       Type             X           Y           Z
 ---------------------------------------------------------------------
      1          8           0       14.731263   -2.237897   -0.261535
      2          8           0      -14.687952    1.978433    1.029495
      3          6           0       11.197885   -1.469249    0.964681
      4          6           0      -12.382521   -1.052609    0.449730
      5          6           0       12.705934   -1.974070    1.019024
      6          6           0      -13.686142   -0.283692    0.572434
      7          6           0       13.298175   -1.946845   -0.328192
      8          6           0      -13.474421    1.163432    0.940399
      9          6           0       11.008142   -0.212096   -0.029052
     10          6           0      -11.246414   -0.280324   -0.206242
     11          6           0       13.325673   -0.489755   -0.890022
     12          6           0      -12.670628    1.853733   -0.196130
     13          6           0       11.928436    0.117325   -0.937871
     14          6           0      -11.483243    0.984953   -0.548237
     15          6           0       10.843495   -0.880944    2.393253
     16          6           0       10.343004   -2.548432    0.695347
     17          6           0      -11.903568   -1.381186    1.861750
     18          6           0      -12.775734   -2.367606   -0.162597
     19          6           0        9.633321    0.348020    0.137157
     20          6           0       -9.949191   -0.952145   -0.368013
     21          6           0       11.681996    1.186260   -1.869814
     22          6           0      -10.436171    1.867650   -1.393982
     23          6           0        9.405774    1.698306   -0.104014
     24          6           0       -8.742433   -0.464207   -0.314742
     25          6           0        8.097626    2.261964    0.075393
     26          6           0       -7.513939   -1.157038   -0.603754
     27          6           0        7.849186    3.852369    0.199875
     28          6           0       -7.583976   -2.578465   -0.996568
     29          6           0        6.849435    1.528642    0.036401
     30          6           0       -6.283856   -0.536263   -0.368149
     31          6           0        5.558539    1.993338    0.262724
     32          6           0       -5.055353   -1.075708   -0.570141
     33          6           0        4.446744    1.118556    0.054074
     34          6           0       -3.959686   -0.385608   -0.485251
     35          6           0        3.071048    1.650779    0.214177
     36          6           0       -2.602430   -0.864561   -0.470683
     37          6           0        2.787371    2.998480    0.682251
     38          6           0       -2.320978   -2.294228   -0.949664
     39          6           0        2.055406    0.763547    0.006372
     40          6           0       -1.659011    0.156860   -0.181739
     41          6           0        0.628856    0.980584    0.047153
     42          6           0       -0.249975   -0.065781   -0.207697
     43          1           0       13.125449   -1.136784    1.528111
     44          1           0       12.665426   -3.000731    1.449228
     45          1           0      -14.227262   -0.628345    1.448981
     46          1           0      -14.564979   -0.411517   -0.151496
     47          1           0       12.872609   -2.658209   -0.975838
     48          1           0      -13.217288    1.262586    1.911481
     49          1           0       13.924034    0.021128   -0.317247
     50          1           0       13.875264   -0.416672   -1.834245
     51          1           0      -13.456483    1.821394   -1.207843
     52          1           0      -12.253265    2.717547   -0.006970
     53          1           0       10.925010   -1.590377    3.316099
     54          1           0        9.708674   -0.519020    2.461969
     55          1           0       11.315582    0.033441    2.674536
     56          1           0       10.476100   -3.003980   -0.341288
     57          1           0       10.244321   -3.373677    1.619557
     58          1           0        9.182716   -2.450536    0.343480
     59          1           0      -11.445416   -0.506067    2.263234
     60          1           0      -11.139382   -2.204959    2.124435
     61          1           0      -12.755859   -1.797554    2.467697
     62          1           0      -13.793298   -2.689788    0.377478
     63          1           0      -12.002923   -3.175343   -0.073891
     64          1           0      -12.993385   -2.223859   -1.177647
     65          1           0        8.681541   -0.228990    0.522268
     66          1           0      -10.144311   -2.058170   -0.805220
     67          1           0       10.562286    1.218400   -2.182725
     68          1           0       12.222775    2.191357   -1.649172
     69          1           0       12.201917    0.895808   -2.756015
     70          1           0      -10.908154    2.707337   -1.991080
     71          1           0       -9.908918    1.253989   -2.084938
     72          1           0       -9.725094    2.448233   -0.643322
     73          1           0       14.762923   -3.154022    0.165890
     74          1           0      -15.275189    1.595060    1.852266
     75          1           0       10.216961    2.370327   -0.193066
     76          1           0       -8.477255    0.470074   -0.134252
     77          1           0        8.721090    4.381107    0.372280
     78          1           0        7.333853    4.184303   -0.805859
     79          1           0        7.230893    4.201247    1.052844
     80          1           0       -7.955421   -3.240967   -0.089808
     81          1           0       -8.360644   -2.792101   -1.857144
     82          1           0       -6.515575   -2.973096   -1.417224
     83          1           0        6.989272    0.511022   -0.194342
     84          1           0       -6.257974    0.708984    0.031810
     85          1           0        5.517605    3.034983    0.650302
     86          1           0       -4.742774   -2.001899   -0.994544
     87          1           0        4.605774    0.142706   -0.306089
     88          1           0       -4.048843    0.572335   -0.184516
     89          1           0        3.236448    3.186421    1.633648
     90          1           0        1.620086    2.914660    0.943162
     91          1           0        3.089348    3.738487   -0.124737
     92          1           0       -2.527694   -2.761896   -0.085744
     93          1           0       -2.997401   -2.443686   -1.815799
     94          1           0       -1.201284   -2.316516   -1.292524
     95          1           0        2.327129   -0.374196   -0.289397
     96          1           0       -1.859054    1.169500    0.230104
     97          1           0        0.301225    2.008413    0.190752
     98          1           0        0.054053   -1.136097   -0.369145
 ---------------------------------------------------------------------

 SCF Done:  E(RCAM-B3LYP) =  -1706.94422927     A.U. after   15 cycles

 Excitation energies and oscillator strengths:

 Excited State   1:      Singlet-A      2.2470 eV  551.78 nm  f=3.5791  <S**2>=0.000
     155 ->158         0.17714
     156 ->157         0.68180
 This state for optimization and/or second-order correction.
 Total Energy, E(TD-HF/TD-DFT) =  -1706.86165463
 Copying the excited state density for this state as the 1-particle RhoCI density.

 The electronic state is 1-A.
 Alpha  occ. eigenvalues --  -19.20858 -19.20851 -10.29782 -10.29214 -10.27893
 Alpha  occ. eigenvalues --  -10.27864 -10.27844 -10.27806 -10.27570 -10.27397
 Alpha  occ. eigenvalues --  -10.27034 -10.26972 -10.26921 -10.26915 -10.26892
 Alpha  occ. eigenvalues --  -10.26851 -10.26788 -10.26754 -10.26714 -10.26689
 Alpha  occ. eigenvalues --  -10.26540 -10.26525 -10.26421 -10.26395 -10.26363
 Alpha  occ. eigenvalues --  -10.26354 -10.26004 -10.25998 -10.25839 -10.25825
 Alpha  occ. eigenvalues --  -10.25464 -10.25417 -10.25268 -10.25157 -10.25108
 Alpha  occ. eigenvalues --  -10.25040 -10.25034 -10.24461 -10.24420 -10.24343
 Alpha  occ. eigenvalues --  -10.24250 -10.23977  -1.07472  -1.05967  -0.93987
 Alpha  occ. eigenvalues --   -0.93650  -0.92924  -0.91432  -0.90485  -0.89356
 Alpha  occ. eigenvalues --   -0.88057  -0.87643  -0.86621  -0.85553  -0.84585
 Alpha  occ. eigenvalues --   -0.83118  -0.82464  -0.79643  -0.79525  -0.78446
 Alpha  occ. eigenvalues --   -0.76553  -0.76328  -0.75878  -0.75724  -0.75538
 Alpha  occ. eigenvalues --   -0.75263  -0.75019  -0.74893  -0.72875  -0.70324
 Alpha  occ. eigenvalues --   -0.68768  -0.67312  -0.66248  -0.65466  -0.63897
 Alpha  occ. eigenvalues --   -0.63504  -0.62636  -0.61971  -0.61175  -0.60042
 Alpha  occ. eigenvalues --   -0.59043  -0.58877  -0.57844  -0.56974  -0.56369
 Alpha  occ. eigenvalues --   -0.55850  -0.55235  -0.55124  -0.54585  -0.52949
 Alpha  occ. eigenvalues --   -0.52800  -0.52387  -0.51980  -0.51267  -0.51082
 Alpha  occ. eigenvalues --   -0.50670  -0.50143  -0.49992  -0.49571  -0.49172
 Alpha  occ. eigenvalues --   -0.49078  -0.48648  -0.48513  -0.47771  -0.47509
 Alpha  occ. eigenvalues --   -0.47256  -0.46955  -0.46867  -0.46669  -0.46328
 Alpha  occ. eigenvalues --   -0.45936  -0.45611  -0.45526  -0.44888  -0.44746
 Alpha  occ. eigenvalues --   -0.44194  -0.44159  -0.43554  -0.43170  -0.43112
 Alpha  occ. eigenvalues --   -0.42648  -0.42461  -0.42208  -0.41875  -0.41663
 Alpha  occ. eigenvalues --   -0.41626  -0.41305  -0.41133  -0.40808  -0.40795
 Alpha  occ. eigenvalues --   -0.40532  -0.40112  -0.39897  -0.39489  -0.39242
 Alpha  occ. eigenvalues --   -0.39036  -0.38894  -0.38501  -0.38449  -0.37741
 Alpha  occ. eigenvalues --   -0.37539  -0.37493  -0.36805  -0.35958  -0.35739
 Alpha  occ. eigenvalues --   -0.35243  -0.34583  -0.34046  -0.32688  -0.31932
 Alpha  occ. eigenvalues --   -0.31528  -0.29864  -0.28526  -0.26373  -0.22817
 Alpha  occ. eigenvalues --   -0.19362
 Alpha virt. eigenvalues --   -0.05309  -0.01522   0.02584   0.06016   0.07997
 Alpha virt. eigenvalues --    0.10079   0.10210   0.10995   0.11852   0.12264
 Alpha virt. eigenvalues --    0.12401   0.12667   0.12805   0.13568   0.13841

 Mulliken charges:
               1
     1  O   -0.570736
     2  O   -0.586324
     3  C   -0.000252
     4  C   -0.012037
     5  C   -0.173783
     6  C   -0.204592
     7  C    0.157986
     8  C    0.169290
     9  C    0.050265
    10  C    0.092900
    11  C   -0.218207
    12  C   -0.168985
    13  C    0.061336
    14  C   -0.003520
    15  C   -0.311301
    16  C   -0.294139
    17  C   -0.299836
    18  C   -0.292770
    19  C   -0.123328
    20  C   -0.146655
    21  C   -0.386594
    22  C   -0.363991
    23  C   -0.099703
    24  C   -0.020710
    25  C    0.040824
    26  C    0.103658
    27  C   -0.372389
    28  C   -0.365626
    29  C   -0.108464
    30  C   -0.143004
    31  C   -0.081197
    32  C   -0.031121
    33  C   -0.112071
    34  C   -0.087190
    35  C    0.106883
    36  C    0.035210
    37  C   -0.363949
    38  C   -0.357397
    39  C   -0.120888
    40  C   -0.117491
    41  C   -0.108625
    42  C   -0.082110
    43  H    0.114095
    44  H    0.088629
    45  H    0.081167
    46  H    0.104352
    47  H    0.089022
    48  H    0.096752
    49  H    0.135547
    50  H    0.105434
    51  H    0.095792
    52  H    0.115692
    53  H    0.083407
    54  H    0.090204
    55  H    0.111836
    56  H    0.096415
    57  H    0.083713
    58  H    0.079922
    59  H    0.109366
    60  H    0.096429
    61  H    0.086889
    62  H    0.082588
    63  H    0.095630
    64  H    0.111359
    65  H    0.111068
    66  H    0.072084
    67  H    0.126558
    68  H    0.107141
    69  H    0.104912
    70  H    0.101106
    71  H    0.128006
    72  H    0.097561
    73  H    0.296454
    74  H    0.288634
    75  H    0.103310
    76  H    0.064985
    77  H    0.108651
    78  H    0.114862
    79  H    0.115765
    80  H    0.114472
    81  H    0.105043
    82  H    0.091482
    83  H    0.066113
    84  H    0.063785
    85  H    0.088095
    86  H    0.066885
    87  H    0.090284
    88  H    0.059105
    89  H    0.132044
    90  H    0.088143
    91  H    0.122867
    92  H    0.154243
    93  H    0.130468
    94  H    0.107901
    95  H    0.064857
    96  H    0.090509
    97  H    0.095888
    98  H    0.083116
 Sum of Mulliken charges =  -0.00000

 Dipole moment (field-independent basis, Debye):
    X=              0.2177    Y=             -1.6810    Z=              1.1963  Tot=              2.0747
 Quadrupole moment (field-independent basis, Debye-Ang):
   XX=           -288.6825   YY=           -245.5966   ZZ=           -260.5141
   XY=             14.8407   XZ=             -9.0980   YZ=              2.3189

 Normal termination of Gaussian 16 at Mon Jul 15 15:04:45 2019.
