 Gaussian 16, Revision A.03,
 Gaussian 16:  ES64L-G16RevA.03 25-Dec-2016

 -------------------------------------
 # td=(NStates=1) CAM-B3LYP/6-31G(d,p)
 -------------------------------------

 --
 TD
 --
 Symbolic Z-matrix:
 Charge =  0 Multiplicity = 1

                         Standard orientation:
 ---------------------------------------------------------------------
 Center     Atomic      Atomic             Coordinates (Angstroms)
 Number     Number       Type             X           Y           Z
 ---------------------------------------------------------------------
      1          8           0       14.650185   -2.232311   -0.047696
      2          8           0      -14.661854    1.701841    1.204895
      3          6           0       11.081525   -1.495038    1.004889
      4          6           0      -12.322950   -1.067710    0.669640
      5          6           0       12.542664   -1.874628    1.067671
      6          6           0      -13.605708   -0.283912    0.915622
      7          6           0       13.256605   -1.892826   -0.311902
      8          6           0      -13.477509    1.185604    1.099604
      9          6           0       10.928824   -0.299016    0.076981
     10          6           0      -11.301993   -0.212386   -0.152875
     11          6           0       13.195309   -0.493543   -0.835014
     12          6           0      -12.911732    1.781048   -0.219789
     13          6           0       11.807828    0.059021   -0.833511
     14          6           0      -11.595386    1.103137   -0.517989
     15          6           0       10.611415   -1.333082    2.453829
     16          6           0       10.193928   -2.741645    0.422815
     17          6           0      -11.748802   -1.383664    2.028908
     18          6           0      -12.612566   -2.452332    0.032647
     19          6           0        9.564445    0.404072    0.190656
     20          6           0      -10.031425   -0.851591   -0.497088
     21          6           0       11.687265    1.161562   -1.829883
     22          6           0      -10.618661    1.845927   -1.383912
     23          6           0        9.371330    1.733517    0.156694
     24          6           0       -8.726158   -0.415868   -0.342831
     25          6           0        8.096237    2.349207    0.265762
     26          6           0       -7.540614   -1.165684   -0.677270
     27          6           0        7.970990    3.833559    0.621976
     28          6           0       -7.575274   -2.808809   -1.091702
     29          6           0        6.969616    1.528968   -0.075253
     30          6           0       -6.359923   -0.525955   -0.520247
     31          6           0        5.637873    1.973319    0.118014
     32          6           0       -5.019100   -1.004914   -0.800744
     33          6           0        4.507267    1.222258   -0.229628
     34          6           0       -3.875578   -0.195809   -0.544578
     35          6           0        3.218369    1.640979    0.065416
     36          6           0       -2.600262   -0.611170   -0.677852
     37          6           0        2.989495    3.038069    0.664860
     38          6           0       -2.315978   -1.978568   -1.149725
     39          6           0        2.180076    0.788677   -0.231536
     40          6           0       -1.572512    0.327562   -0.367577
     41          6           0        0.717714    0.922896   -0.130067
     42          6           0       -0.188311    0.105732   -0.497792
     43          1           0       13.111720   -1.191393    1.536151
     44          1           0       12.690574   -2.883886    1.329885
     45          1           0      -14.206701   -0.815620    1.641767
     46          1           0      -13.988914   -0.488486   -0.052925
     47          1           0       12.793170   -2.596864   -0.916026
     48          1           0      -12.866838    1.123654    2.049885
     49          1           0       13.849880    0.068655   -0.105469
     50          1           0       13.629771   -0.437962   -1.818309
     51          1           0      -13.598131    1.578657   -1.026807
     52          1           0      -12.497611    2.906114   -0.049174
     53          1           0       10.840578   -2.358386    2.962090
     54          1           0        9.646748   -1.324597    2.227643
     55          1           0       11.189084   -0.520949    3.041297
     56          1           0       10.605375   -3.083539   -0.600207
     57          1           0       10.389643   -3.713182    0.962700
     58          1           0        9.128725   -2.295005    0.399071
     59          1           0      -11.633153   -0.633027    2.840249
     60          1           0      -10.802234   -1.841542    2.015451
     61          1           0      -12.458611   -2.135406    2.416621
     62          1           0      -13.294815   -2.759979    0.801632
     63          1           0      -11.854733   -3.216872    0.043736
     64          1           0      -12.963391   -2.412058   -1.015656
     65          1           0        8.772336   -0.270252    0.412853
     66          1           0      -10.027040   -1.765151   -0.872003
     67          1           0       10.605506    1.755896   -1.819585
     68          1           0       12.366946    2.042029   -1.481435
     69          1           0       12.045964    0.786603   -2.829337
     70          1           0      -11.216540    2.571876   -2.004291
     71          1           0      -10.234192    1.158632   -2.194067
     72          1           0       -9.846413    2.431630   -0.816674
     73          1           0       14.604731   -2.956153    0.744115
     74          1           0      -15.049125    1.272874    2.020070
     75          1           0       10.434339    2.363243    0.258772
     76          1           0       -8.645831    0.552239   -0.147536
     77          1           0        8.962987    4.261564    0.441095
     78          1           0        7.255428    4.502598   -0.053904
     79          1           0        7.543177    3.953473    1.674527
     80          1           0       -7.957905   -3.472498   -0.154814
     81          1           0       -8.340757   -2.899316   -2.069159
     82          1           0       -6.513672   -3.091693   -1.408419
     83          1           0        6.997863    0.424583   -0.400777
     84          1           0       -6.480008    0.551482   -0.277463
     85          1           0        5.480922    3.075373    0.351959
     86          1           0       -4.930399   -2.048926   -1.021244
     87          1           0        4.702882    0.180405   -0.704295
     88          1           0       -4.006657    0.896306   -0.137344
     89          1           0        3.835132    3.286336    1.404599
     90          1           0        1.905840    3.162690    1.177336
     91          1           0        3.133568    3.895852   -0.328328
     92          1           0       -2.990609   -2.692268   -0.741932
     93          1           0       -2.605410   -2.057854   -2.218980
     94          1           0       -1.379550   -2.101640   -0.950193
     95          1           0        2.578253   -0.118986   -0.739908
     96          1           0       -2.072604    1.234497   -0.038190
     97          1           0        0.310611    1.805503    0.270452
     98          1           0       -0.026558   -0.917294   -0.910416
 ---------------------------------------------------------------------

 SCF Done:  E(RCAM-B3LYP) =  -1706.97784615     A.U. after   15 cycles

 Excitation energies and oscillator strengths:

 Excited State   1:      Singlet-A      2.2541 eV  550.05 nm  f=3.7439  <S**2>=0.000
     155 ->158         0.17798
     156 ->157         0.68160
 This state for optimization and/or second-order correction.
 Total Energy, E(TD-HF/TD-DFT) =  -1706.89501070
 Copying the excited state density for this state as the 1-particle RhoCI density.

 The electronic state is 1-A.
 Alpha  occ. eigenvalues --  -19.21822 -19.21406 -10.29983 -10.29748 -10.29297
 Alpha  occ. eigenvalues --  -10.28872 -10.28273 -10.27719 -10.27625 -10.27525
 Alpha  occ. eigenvalues --  -10.27389 -10.27211 -10.27134 -10.26954 -10.26938
 Alpha  occ. eigenvalues --  -10.26847 -10.26820 -10.26721 -10.26705 -10.26669
 Alpha  occ. eigenvalues --  -10.26516 -10.26467 -10.26340 -10.26233 -10.26089
 Alpha  occ. eigenvalues --  -10.26051 -10.25998 -10.25878 -10.25812 -10.25806
 Alpha  occ. eigenvalues --  -10.25616 -10.25585 -10.25182 -10.24858 -10.24719
 Alpha  occ. eigenvalues --  -10.24713 -10.24499 -10.24409 -10.23940 -10.23467
 Alpha  occ. eigenvalues --  -10.23409 -10.23166  -1.14316  -1.06609  -0.93968
 Alpha  occ. eigenvalues --   -0.93202  -0.92930  -0.91652  -0.90316  -0.89701
 Alpha  occ. eigenvalues --   -0.88207  -0.87513  -0.87133  -0.84944  -0.84557
 Alpha  occ. eigenvalues --   -0.82503  -0.81618  -0.79984  -0.79352  -0.78401
 Alpha  occ. eigenvalues --   -0.76524  -0.76035  -0.75802  -0.75649  -0.75580
 Alpha  occ. eigenvalues --   -0.74975  -0.74790  -0.74609  -0.73460  -0.70825
 Alpha  occ. eigenvalues --   -0.68950  -0.67470  -0.65848  -0.65056  -0.64195
 Alpha  occ. eigenvalues --   -0.63688  -0.62915  -0.62049  -0.60678  -0.59695
 Alpha  occ. eigenvalues --   -0.59499  -0.59273  -0.58584  -0.57819  -0.56727
 Alpha  occ. eigenvalues --   -0.56171  -0.55548  -0.54585  -0.53991  -0.53709
 Alpha  occ. eigenvalues --   -0.53113  -0.52562  -0.52122  -0.51771  -0.51171
 Alpha  occ. eigenvalues --   -0.50899  -0.50182  -0.49740  -0.49270  -0.49068
 Alpha  occ. eigenvalues --   -0.48996  -0.48650  -0.48290  -0.47814  -0.47713
 Alpha  occ. eigenvalues --   -0.47330  -0.46879  -0.46557  -0.46517  -0.45939
 Alpha  occ. eigenvalues --   -0.45927  -0.45559  -0.45365  -0.45125  -0.44961
 Alpha  occ. eigenvalues --   -0.44586  -0.44234  -0.43979  -0.43894  -0.43772
 Alpha  occ. eigenvalues --   -0.43424  -0.43084  -0.42757  -0.42614  -0.42491
 Alpha  occ. eigenvalues --   -0.42374  -0.41933  -0.41655  -0.41016  -0.40553
 Alpha  occ. eigenvalues --   -0.40415  -0.40324  -0.39831  -0.39727  -0.39648
 Alpha  occ. eigenvalues --   -0.39308  -0.39081  -0.38671  -0.38381  -0.38158
 Alpha  occ. eigenvalues --   -0.37917  -0.37605  -0.36710  -0.36159  -0.35532
 Alpha  occ. eigenvalues --   -0.35348  -0.34992  -0.34298  -0.31847  -0.31744
 Alpha  occ. eigenvalues --   -0.31103  -0.29809  -0.28338  -0.26256  -0.22807
 Alpha  occ. eigenvalues --   -0.19525
 Alpha virt. eigenvalues --   -0.05608  -0.01602   0.03101   0.05573   0.08017
 Alpha virt. eigenvalues --    0.09439   0.10885   0.11082   0.11633   0.11690
 Alpha virt. eigenvalues --    0.12096   0.12195   0.13078   0.13293   0.13471

 Mulliken charges:
               1
     1  O   -0.578070
     2  O   -0.510145
     3  C   -0.057465
     4  C   -0.039503
     5  C   -0.191287
     6  C   -0.201493
     7  C    0.162116
     8  C    0.197282
     9  C    0.062041
    10  C    0.076409
    11  C   -0.213627
    12  C   -0.220919
    13  C    0.071160
    14  C    0.029855
    15  C   -0.251167
    16  C   -0.312573
    17  C   -0.292978
    18  C   -0.303133
    19  C   -0.089482
    20  C   -0.139795
    21  C   -0.359699
    22  C   -0.370757
    23  C   -0.126276
    24  C   -0.070577
    25  C    0.066787
    26  C    0.088002
    27  C   -0.367697
    28  C   -0.344995
    29  C   -0.108694
    30  C   -0.115770
    31  C   -0.098946
    32  C   -0.114316
    33  C   -0.123316
    34  C   -0.123259
    35  C    0.154033
    36  C    0.119334
    37  C   -0.349487
    38  C   -0.349825
    39  C   -0.149474
    40  C   -0.129762
    41  C   -0.085772
    42  C   -0.053826
    43  H    0.108449
    44  H    0.067850
    45  H    0.072432
    46  H    0.096029
    47  H    0.085378
    48  H    0.059744
    49  H    0.117972
    50  H    0.100660
    51  H    0.133856
    52  H    0.095757
    53  H    0.085007
    54  H    0.101194
    55  H    0.101870
    56  H    0.099776
    57  H    0.104477
    58  H    0.099358
    59  H    0.095293
    60  H    0.108984
    61  H    0.079224
    62  H    0.100929
    63  H    0.109227
    64  H    0.103566
    65  H    0.082178
    66  H    0.064783
    67  H    0.105045
    68  H    0.105537
    69  H    0.109931
    70  H    0.093741
    71  H    0.124164
    72  H    0.117111
    73  H    0.301220
    74  H    0.301289
    75  H    0.086345
    76  H    0.064106
    77  H    0.118518
    78  H    0.109994
    79  H    0.127300
    80  H    0.115068
    81  H    0.100086
    82  H    0.110455
    83  H    0.086903
    84  H    0.078889
    85  H    0.085204
    86  H    0.077859
    87  H    0.084125
    88  H    0.078382
    89  H    0.117269
    90  H    0.105275
    91  H    0.084401
    92  H    0.120589
    93  H    0.123868
    94  H    0.106728
    95  H    0.072509
    96  H    0.073206
    97  H    0.077489
    98  H    0.080469
 Sum of Mulliken charges =  -0.00000

 Dipole moment (field-independent basis, Debye):
    X=             -1.0241    Y=             -1.3996    Z=              1.6297  Tot=              2.3798
 Quadrupole moment (field-independent basis, Debye-Ang):
   XX=           -284.4078   YY=           -245.2911   ZZ=           -259.7650
   XY=             15.4309   XZ=              0.8241   YZ=              2.0601

 Normal termination of Gaussian 16 at Fri Jul 12 19:39:21 2019.
