 Gaussian 16, Revision A.03,
 Gaussian 16:  ES64L-G16RevA.03 25-Dec-2016

 -------------------------------------
 # td=(NStates=1) CAM-B3LYP/6-31G(d,p)
 -------------------------------------

 --
 TD
 --
 Symbolic Z-matrix:
 Charge =  0 Multiplicity = 1

                         Standard orientation:
 ---------------------------------------------------------------------
 Center     Atomic      Atomic             Coordinates (Angstroms)
 Number     Number       Type             X           Y           Z
 ---------------------------------------------------------------------
      1          8           0       14.616343   -2.284119   -0.115340
      2          8           0      -14.693273    1.824339    1.198996
      3          6           0       11.136047   -1.433068    1.041378
      4          6           0      -12.309826   -1.028299    0.632238
      5          6           0       12.533020   -1.928857    1.045538
      6          6           0      -13.662996   -0.322823    0.695487
      7          6           0       13.271197   -2.042478   -0.229640
      8          6           0      -13.520671    1.165467    0.951914
      9          6           0       10.975756   -0.310096    0.036137
     10          6           0      -11.361729   -0.250526   -0.069348
     11          6           0       13.259844   -0.625060   -0.861933
     12          6           0      -12.699938    1.739264   -0.100174
     13          6           0       11.905343    0.085874   -0.840807
     14          6           0      -11.471858    1.002366   -0.450296
     15          6           0       10.598078   -1.162855    2.486538
     16          6           0       10.240588   -2.634340    0.598740
     17          6           0      -11.837278   -1.375423    2.129562
     18          6           0      -12.654010   -2.405367   -0.075061
     19          6           0        9.658897    0.340642    0.104130
     20          6           0      -10.027272   -0.965376   -0.426434
     21          6           0       11.683080    1.049253   -1.940366
     22          6           0      -10.601125    1.843994   -1.319015
     23          6           0        9.394249    1.659621    0.245210
     24          6           0       -8.807605   -0.479318   -0.246664
     25          6           0        8.067441    2.316881    0.265002
     26          6           0       -7.522846   -1.181701   -0.540986
     27          6           0        8.182044    3.780840    0.734949
     28          6           0       -7.717158   -2.588396   -1.135622
     29          6           0        6.954561    1.683168   -0.050884
     30          6           0       -6.358562   -0.592547   -0.376524
     31          6           0        5.633377    2.137939    0.117330
     32          6           0       -5.046115   -1.120155   -0.596480
     33          6           0        4.452991    1.423765   -0.136958
     34          6           0       -3.909653   -0.300875   -0.570463
     35          6           0        3.080123    1.831747   -0.101273
     36          6           0       -2.571688   -0.715737   -0.809564
     37          6           0        2.873429    3.248279    0.327859
     38          6           0       -2.290594   -2.216782   -1.000230
     39          6           0        2.095370    0.884169   -0.350118
     40          6           0       -1.529618    0.248898   -0.524868
     41          6           0        0.738687    1.025695   -0.170823
     42          6           0       -0.152285   -0.011539   -0.462304
     43          1           0       12.968540   -1.230620    1.893430
     44          1           0       12.852923   -2.934948    1.574248
     45          1           0      -14.237981   -0.801323    1.510507
     46          1           0      -14.319422   -0.319458   -0.209083
     47          1           0       12.680911   -2.870544   -1.009633
     48          1           0      -13.033804    1.226418    1.955930
     49          1           0       13.941795   -0.033704   -0.284742
     50          1           0       13.993020   -0.707337   -1.684028
     51          1           0      -13.341528    1.839601   -0.966028
     52          1           0      -12.276352    2.823711    0.114013
     53          1           0       10.747289   -1.979919    3.010854
     54          1           0        9.475207   -0.997308    2.498758
     55          1           0       11.070818   -0.386639    3.086913
     56          1           0       10.542371   -3.044984   -0.426795
     57          1           0       10.323605   -3.421351    1.409076
     58          1           0        9.124718   -2.403799    0.661072
     59          1           0      -11.708405   -0.430058    2.590455
     60          1           0      -10.994112   -2.050072    1.917854
     61          1           0      -12.585453   -2.024641    2.717188
     62          1           0      -13.433558   -3.073106    0.357442
     63          1           0      -11.825179   -3.088206   -0.178155
     64          1           0      -12.800866   -2.168399   -1.197057
     65          1           0        8.796361   -0.334923    0.149222
     66          1           0      -10.226660   -1.957818   -0.643637
     67          1           0       10.734949    1.296707   -2.250969
     68          1           0       11.841474    2.147567   -1.857350
     69          1           0       12.023231    0.765746   -2.817943
     70          1           0      -11.144234    2.186576   -2.166672
     71          1           0       -9.880732    1.220930   -1.845148
     72          1           0       -9.876718    2.628098   -0.947630
     73          1           0       14.683186   -3.178864    0.317713
     74          1           0      -15.290901    1.388717    1.690620
     75          1           0       10.198490    2.315342    0.339586
     76          1           0       -8.612728    0.751233    0.241627
     77          1           0        9.121282    4.079935    0.671377
     78          1           0        7.355392    4.362257    0.173402
     79          1           0        7.954893    3.664743    1.918959
     80          1           0       -8.233513   -3.359590   -0.703933
     81          1           0       -8.221757   -2.405376   -2.197173
     82          1           0       -6.743359   -2.998635   -1.617373
     83          1           0        7.092440    0.707008   -0.446292
     84          1           0       -6.601587    0.438789    0.113038
     85          1           0        5.483145    3.179591    0.597992
     86          1           0       -5.026709   -2.279388   -0.897060
     87          1           0        4.496900    0.494289   -0.760969
     88          1           0       -3.901894    0.849219   -0.307566
     89          1           0        2.638953    3.195222    1.577417
     90          1           0        1.906692    3.755037   -0.441856
     91          1           0        4.101299    3.917117   -0.062012
     92          1           0       -2.460400   -2.782860   -0.045398
     93          1           0       -2.567029   -2.465642   -1.893520
     94          1           0       -1.166518   -2.246025   -1.136251
     95          1           0        2.383498   -0.111300   -0.575201
     96          1           0       -1.894205    1.062477   -0.266564
     97          1           0        0.147707    1.865420    0.315868
     98          1           0        0.252192   -1.054116   -0.388850
 ---------------------------------------------------------------------

 SCF Done:  E(RCAM-B3LYP) =  -1706.87846331     A.U. after   15 cycles

 Excitation energies and oscillator strengths:

 Excited State   1:      Singlet-A      2.1855 eV  567.30 nm  f=3.3960  <S**2>=0.000
     155 ->158        -0.13002
     156 ->157         0.69749
 This state for optimization and/or second-order correction.
 Total Energy, E(TD-HF/TD-DFT) =  -1706.79814718
 Copying the excited state density for this state as the 1-particle RhoCI density.

 The electronic state is 1-A.
 Alpha  occ. eigenvalues --  -19.22849 -19.19666 -10.31942 -10.31362 -10.29111
 Alpha  occ. eigenvalues --  -10.27886 -10.27883 -10.27828 -10.27590 -10.27469
 Alpha  occ. eigenvalues --  -10.27450 -10.27420 -10.27074 -10.27029 -10.27029
 Alpha  occ. eigenvalues --  -10.26858 -10.26787 -10.26769 -10.26387 -10.26350
 Alpha  occ. eigenvalues --  -10.26224 -10.26163 -10.25940 -10.25928 -10.25908
 Alpha  occ. eigenvalues --  -10.25841 -10.25798 -10.25748 -10.25562 -10.25375
 Alpha  occ. eigenvalues --  -10.25274 -10.25171 -10.25108 -10.25088 -10.24943
 Alpha  occ. eigenvalues --  -10.24556 -10.24556 -10.24468 -10.24439 -10.24319
 Alpha  occ. eigenvalues --  -10.24146 -10.22790  -1.11945  -1.11766  -0.94847
 Alpha  occ. eigenvalues --   -0.94129  -0.92074  -0.91308  -0.90680  -0.89740
 Alpha  occ. eigenvalues --   -0.87535  -0.87235  -0.86907  -0.85433  -0.84817
 Alpha  occ. eigenvalues --   -0.82916  -0.81910  -0.80656  -0.79531  -0.78844
 Alpha  occ. eigenvalues --   -0.77275  -0.76700  -0.76653  -0.76424  -0.75801
 Alpha  occ. eigenvalues --   -0.75212  -0.75160  -0.74730  -0.73563  -0.70712
 Alpha  occ. eigenvalues --   -0.69223  -0.68281  -0.66379  -0.66145  -0.65355
 Alpha  occ. eigenvalues --   -0.64190  -0.62863  -0.62464  -0.59497  -0.59037
 Alpha  occ. eigenvalues --   -0.58651  -0.58547  -0.58256  -0.57467  -0.57026
 Alpha  occ. eigenvalues --   -0.56384  -0.55450  -0.54567  -0.54255  -0.53916
 Alpha  occ. eigenvalues --   -0.52985  -0.52619  -0.52179  -0.51751  -0.51508
 Alpha  occ. eigenvalues --   -0.50742  -0.50578  -0.50232  -0.49739  -0.49274
 Alpha  occ. eigenvalues --   -0.48940  -0.48885  -0.48526  -0.48193  -0.47851
 Alpha  occ. eigenvalues --   -0.47575  -0.47555  -0.47286  -0.47027  -0.46795
 Alpha  occ. eigenvalues --   -0.46555  -0.46072  -0.45602  -0.45237  -0.44956
 Alpha  occ. eigenvalues --   -0.44587  -0.44447  -0.43849  -0.43571  -0.42976
 Alpha  occ. eigenvalues --   -0.42785  -0.42332  -0.42180  -0.42036  -0.41789
 Alpha  occ. eigenvalues --   -0.41659  -0.41228  -0.40846  -0.40832  -0.40555
 Alpha  occ. eigenvalues --   -0.40227  -0.40072  -0.39524  -0.39474  -0.39156
 Alpha  occ. eigenvalues --   -0.38947  -0.38672  -0.38336  -0.37811  -0.37361
 Alpha  occ. eigenvalues --   -0.37134  -0.36966  -0.36469  -0.36363  -0.35311
 Alpha  occ. eigenvalues --   -0.34642  -0.34326  -0.33444  -0.33121  -0.32258
 Alpha  occ. eigenvalues --   -0.30556  -0.29764  -0.28326  -0.26746  -0.24207
 Alpha  occ. eigenvalues --   -0.19362
 Alpha virt. eigenvalues --   -0.06049  -0.00217   0.02955   0.05918   0.07701
 Alpha virt. eigenvalues --    0.08347   0.09612   0.10493   0.10838   0.11340
 Alpha virt. eigenvalues --    0.12247   0.12689   0.12751   0.13108   0.13342

 Mulliken charges:
               1
     1  O   -0.535403
     2  O   -0.548444
     3  C   -0.017761
     4  C   -0.048623
     5  C   -0.173648
     6  C   -0.197408
     7  C    0.189300
     8  C    0.187350
     9  C    0.060826
    10  C    0.095288
    11  C   -0.252907
    12  C   -0.215033
    13  C    0.081162
    14  C    0.071658
    15  C   -0.306725
    16  C   -0.293802
    17  C   -0.290564
    18  C   -0.319185
    19  C   -0.118685
    20  C   -0.142204
    21  C   -0.379699
    22  C   -0.382254
    23  C   -0.098015
    24  C   -0.074823
    25  C    0.083355
    26  C    0.127522
    27  C   -0.345443
    28  C   -0.380153
    29  C   -0.103799
    30  C   -0.108569
    31  C   -0.113851
    32  C   -0.131611
    33  C   -0.116154
    34  C   -0.098407
    35  C    0.123251
    36  C    0.057348
    37  C   -0.318200
    38  C   -0.355504
    39  C   -0.121170
    40  C   -0.075274
    41  C   -0.084883
    42  C   -0.096863
    43  H    0.090073
    44  H    0.046740
    45  H    0.074693
    46  H    0.090454
    47  H    0.039538
    48  H    0.054041
    49  H    0.128479
    50  H    0.110256
    51  H    0.112958
    52  H    0.094736
    53  H    0.116586
    54  H    0.101194
    55  H    0.102139
    56  H    0.099530
    57  H    0.094673
    58  H    0.091731
    59  H    0.117215
    60  H    0.111049
    61  H    0.089042
    62  H    0.106298
    63  H    0.096422
    64  H    0.096433
    65  H    0.085345
    66  H    0.079272
    67  H    0.121662
    68  H    0.105069
    69  H    0.120742
    70  H    0.117134
    71  H    0.120051
    72  H    0.115375
    73  H    0.306204
    74  H    0.291113
    75  H    0.074567
    76  H    0.054601
    77  H    0.121497
    78  H    0.113725
    79  H    0.108603
    80  H    0.132935
    81  H    0.104475
    82  H    0.092983
    83  H    0.078523
    84  H    0.074251
    85  H    0.082617
    86  H    0.098538
    87  H    0.077917
    88  H    0.081213
    89  H    0.112025
    90  H    0.085246
    91  H    0.060877
    92  H    0.133422
    93  H    0.133838
    94  H    0.091225
    95  H    0.084377
    96  H    0.051852
    97  H    0.094585
    98  H    0.097863
 Sum of Mulliken charges =  -0.00000

 Dipole moment (field-independent basis, Debye):
    X=              0.6773    Y=             -2.8559    Z=              1.1668  Tot=              3.1585
 Quadrupole moment (field-independent basis, Debye-Ang):
   XX=           -262.2348   YY=           -247.3857   ZZ=           -259.6632
   XY=             13.8485   XZ=              4.8902   YZ=             -1.0105

 Normal termination of Gaussian 16 at Tue Jul 16 12:29:49 2019.
