 Gaussian 16, Revision A.03,
 Gaussian 16:  ES64L-G16RevA.03 25-Dec-2016

 -------------------------------------
 # td=(NStates=1) CAM-B3LYP/6-31G(d,p)
 -------------------------------------

 --
 TD
 --
 Symbolic Z-matrix:
 Charge =  0 Multiplicity = 1

                         Standard orientation:
 ---------------------------------------------------------------------
 Center     Atomic      Atomic             Coordinates (Angstroms)
 Number     Number       Type             X           Y           Z
 ---------------------------------------------------------------------
      1          8           0       14.841021   -2.117017   -0.006677
      2          8           0      -14.585600    2.025752    1.340153
      3          6           0       11.175013   -1.468350    0.991294
      4          6           0      -12.262223   -1.030334    0.798685
      5          6           0       12.615172   -1.913742    1.109767
      6          6           0      -13.639778   -0.328987    1.034417
      7          6           0       13.476675   -1.716412   -0.205627
      8          6           0      -13.409245    1.249911    1.209616
      9          6           0       11.149694   -0.238213    0.120342
     10          6           0      -11.337301   -0.179632   -0.149952
     11          6           0       13.343721   -0.410289   -0.778287
     12          6           0      -12.841287    1.788311   -0.086268
     13          6           0       12.078380    0.226659   -0.734733
     14          6           0      -11.651500    1.091788   -0.524346
     15          6           0       10.621278   -1.225012    2.447807
     16          6           0       10.309713   -2.676662    0.386992
     17          6           0      -11.587522   -1.375704    2.125280
     18          6           0      -12.776272   -2.314356    0.124172
     19          6           0        9.781180    0.366658    0.223349
     20          6           0      -10.117256   -0.922922   -0.449254
     21          6           0       11.742361    1.314302   -1.707598
     22          6           0      -10.718593    1.782336   -1.518011
     23          6           0        9.257603    1.687664    0.284006
     24          6           0       -8.850877   -0.460211   -0.473468
     25          6           0        8.012458    2.260486    0.303924
     26          6           0       -7.593209   -1.129302   -0.766690
     27          6           0        7.889146    3.734649    0.650595
     28          6           0       -7.797516   -2.624514   -1.095517
     29          6           0        6.934434    1.600736    0.002715
     30          6           0       -6.417839   -0.507591   -0.716103
     31          6           0        5.594860    2.008759    0.161511
     32          6           0       -5.076961   -1.072043   -0.814998
     33          6           0        4.455405    1.263506   -0.211679
     34          6           0       -3.912340   -0.361738   -0.625831
     35          6           0        3.181213    1.662030   -0.073270
     36          6           0       -2.649113   -0.868375   -0.676926
     37          6           0        2.828928    3.035176    0.221627
     38          6           0       -2.432736   -2.280099   -1.100356
     39          6           0        2.145203    0.643764   -0.342494
     40          6           0       -1.592133   -0.014811   -0.448144
     41          6           0        0.738627    0.781287   -0.297601
     42          6           0       -0.231709   -0.164387   -0.669819
     43          1           0       13.309811   -1.321546    1.841968
     44          1           0       12.745171   -3.092087    1.291381
     45          1           0      -13.888286   -0.709785    2.019748
     46          1           0      -14.250090   -0.480410    0.087340
     47          1           0       12.993484   -2.318130   -1.055798
     48          1           0      -12.624645    1.263472    1.887745
     49          1           0       13.796741    0.333318   -0.092304
     50          1           0       13.855311   -0.311427   -1.789311
     51          1           0      -13.631923    1.715222   -0.944309
     52          1           0      -12.667602    2.970967   -0.098800
     53          1           0       10.874778   -2.142063    2.990103
     54          1           0        9.564276   -1.052314    2.568073
     55          1           0       11.104690   -0.199153    2.806712
     56          1           0       10.537791   -2.944583   -0.509812
     57          1           0       10.219767   -3.511487    1.163105
     58          1           0        9.288242   -2.508778    0.318839
     59          1           0      -11.382144   -0.426997    2.690803
     60          1           0      -10.848815   -2.182206    1.726915
     61          1           0      -12.436333   -1.928435    2.840416
     62          1           0      -13.415709   -2.879274    0.684170
     63          1           0      -11.917806   -2.881158   -0.086468
     64          1           0      -13.359163   -1.839304   -0.885111
     65          1           0        8.776568   -0.311145    0.170615
     66          1           0      -10.060840   -2.002428   -0.589501
     67          1           0       10.766577    1.475505   -1.905788
     68          1           0       12.082030    2.336334   -1.267696
     69          1           0       12.268817    1.033181   -2.555787
     70          1           0      -11.161975    2.427770   -2.260176
     71          1           0       -9.899074    1.150371   -2.057638
     72          1           0      -10.312245    2.625109   -0.811724
     73          1           0       14.678427   -3.055762    0.148045
     74          1           0      -14.974316    1.709593    2.190242
     75          1           0       10.194768    2.276540    0.339952
     76          1           0       -8.682830    0.525291   -0.083294
     77          1           0        8.834516    4.008380    0.826772
     78          1           0        7.556523    4.303439   -0.362581
     79          1           0        7.187124    3.935753    1.473367
     80          1           0       -8.158581   -3.015615   -0.286408
     81          1           0       -8.323407   -2.722207   -1.942982
     82          1           0       -6.782773   -3.012175   -1.340240
     83          1           0        7.093968    0.492723   -0.162743
     84          1           0       -6.744726    0.419131   -0.578364
     85          1           0        5.446745    2.974523    0.594750
     86          1           0       -4.956978   -2.102873   -1.164006
     87          1           0        4.698964    0.239009   -0.596746
     88          1           0       -4.130792    0.696986   -0.234986
     89          1           0        2.754622    3.284422    1.428565
     90          1           0        1.739962    3.425468   -0.102422
     91          1           0        3.566844    3.672209   -0.257035
     92          1           0       -2.968350   -3.017069   -0.601387
     93          1           0       -2.768876   -2.305097   -2.049718
     94          1           0       -1.280973   -2.665513   -1.202400
     95          1           0        2.607805   -0.314172   -0.573846
     96          1           0       -1.923949    0.935247    0.058768
     97          1           0        0.304640    1.681764    0.128238
     98          1           0        0.046934   -1.214434   -0.869815
 ---------------------------------------------------------------------

 SCF Done:  E(RCAM-B3LYP) =  -1706.95756776     A.U. after   15 cycles

 Excitation energies and oscillator strengths:

 Excited State   1:      Singlet-A      1.9823 eV  625.44 nm  f=3.6588  <S**2>=0.000
     155 ->158        -0.13283
     156 ->157         0.69846
     156 <-157        -0.10776
 This state for optimization and/or second-order correction.
 Total Energy, E(TD-HF/TD-DFT) =  -1706.88471795
 Copying the excited state density for this state as the 1-particle RhoCI density.

 The electronic state is 1-A.
 Alpha  occ. eigenvalues --  -19.22271 -19.22234 -10.31068 -10.30020 -10.28236
 Alpha  occ. eigenvalues --  -10.27450 -10.27412 -10.27335 -10.27178 -10.27146
 Alpha  occ. eigenvalues --  -10.27130 -10.26944 -10.26928 -10.26875 -10.26816
 Alpha  occ. eigenvalues --  -10.26793 -10.26768 -10.26448 -10.26247 -10.26246
 Alpha  occ. eigenvalues --  -10.26170 -10.26125 -10.26052 -10.26039 -10.25992
 Alpha  occ. eigenvalues --  -10.25971 -10.25930 -10.25780 -10.25739 -10.25644
 Alpha  occ. eigenvalues --  -10.25493 -10.25388 -10.25310 -10.25237 -10.25158
 Alpha  occ. eigenvalues --  -10.25018 -10.24733 -10.24699 -10.24672 -10.24665
 Alpha  occ. eigenvalues --  -10.23676 -10.22917  -1.10366  -1.09908  -0.94939
 Alpha  occ. eigenvalues --   -0.93550  -0.92788  -0.92581  -0.91190  -0.90862
 Alpha  occ. eigenvalues --   -0.88349  -0.87535  -0.87220  -0.85300  -0.84953
 Alpha  occ. eigenvalues --   -0.82988  -0.81971  -0.80120  -0.79684  -0.78909
 Alpha  occ. eigenvalues --   -0.78294  -0.77281  -0.76803  -0.76256  -0.75833
 Alpha  occ. eigenvalues --   -0.75640  -0.75402  -0.74679  -0.74082  -0.71610
 Alpha  occ. eigenvalues --   -0.69304  -0.68085  -0.66373  -0.65078  -0.64735
 Alpha  occ. eigenvalues --   -0.63622  -0.62440  -0.61229  -0.60160  -0.59845
 Alpha  occ. eigenvalues --   -0.59658  -0.59105  -0.58579  -0.57578  -0.56111
 Alpha  occ. eigenvalues --   -0.55892  -0.55191  -0.54824  -0.54661  -0.54000
 Alpha  occ. eigenvalues --   -0.53673  -0.52801  -0.52579  -0.51918  -0.51810
 Alpha  occ. eigenvalues --   -0.51599  -0.50789  -0.50241  -0.50147  -0.49871
 Alpha  occ. eigenvalues --   -0.49761  -0.49433  -0.48932  -0.48599  -0.48106
 Alpha  occ. eigenvalues --   -0.47962  -0.47673  -0.47296  -0.47073  -0.46549
 Alpha  occ. eigenvalues --   -0.46401  -0.46128  -0.45770  -0.45620  -0.44886
 Alpha  occ. eigenvalues --   -0.44577  -0.44128  -0.44103  -0.43897  -0.43622
 Alpha  occ. eigenvalues --   -0.43429  -0.43161  -0.42612  -0.42449  -0.42209
 Alpha  occ. eigenvalues --   -0.42147  -0.41859  -0.41474  -0.41229  -0.40764
 Alpha  occ. eigenvalues --   -0.40592  -0.40551  -0.39751  -0.39687  -0.39573
 Alpha  occ. eigenvalues --   -0.39241  -0.38815  -0.38291  -0.37761  -0.37571
 Alpha  occ. eigenvalues --   -0.37512  -0.37404  -0.37106  -0.36803  -0.36314
 Alpha  occ. eigenvalues --   -0.35705  -0.35036  -0.34292  -0.32510  -0.32059
 Alpha  occ. eigenvalues --   -0.31398  -0.30022  -0.28052  -0.25891  -0.23398
 Alpha  occ. eigenvalues --   -0.18718
 Alpha virt. eigenvalues --   -0.06676  -0.00777   0.02342   0.05444   0.07719
 Alpha virt. eigenvalues --    0.09666   0.10544   0.11317   0.12217   0.12684
 Alpha virt. eigenvalues --    0.12737   0.13039   0.13261   0.13611   0.13909

 Mulliken charges:
               1
     1  O   -0.539734
     2  O   -0.547095
     3  C    0.005705
     4  C   -0.066698
     5  C   -0.192322
     6  C   -0.187417
     7  C    0.137236
     8  C    0.164767
     9  C    0.033434
    10  C    0.077236
    11  C   -0.217552
    12  C   -0.230505
    13  C    0.065250
    14  C    0.082619
    15  C   -0.294405
    16  C   -0.301120
    17  C   -0.272770
    18  C   -0.268345
    19  C   -0.127486
    20  C   -0.143909
    21  C   -0.340930
    22  C   -0.362018
    23  C   -0.147592
    24  C   -0.107238
    25  C    0.134641
    26  C    0.059018
    27  C   -0.354283
    28  C   -0.361829
    29  C   -0.114691
    30  C   -0.080206
    31  C   -0.108379
    32  C   -0.116806
    33  C   -0.122982
    34  C   -0.103958
    35  C    0.159596
    36  C    0.130784
    37  C   -0.380946
    38  C   -0.383946
    39  C   -0.132347
    40  C   -0.132567
    41  C   -0.092538
    42  C   -0.073981
    43  H    0.104706
    44  H    0.061613
    45  H    0.080958
    46  H    0.097484
    47  H    0.067871
    48  H    0.086602
    49  H    0.126312
    50  H    0.105053
    51  H    0.114941
    52  H    0.094776
    53  H    0.102160
    54  H    0.113701
    55  H    0.089390
    56  H    0.109864
    57  H    0.087310
    58  H    0.111156
    59  H    0.111865
    60  H    0.104662
    61  H    0.065512
    62  H    0.114831
    63  H    0.091079
    64  H    0.074718
    65  H    0.056613
    66  H    0.079874
    67  H    0.141926
    68  H    0.105261
    69  H    0.109780
    70  H    0.111202
    71  H    0.125042
    72  H    0.096084
    73  H    0.312765
    74  H    0.303263
    75  H    0.062290
    76  H    0.077289
    77  H    0.115908
    78  H    0.102496
    79  H    0.124789
    80  H    0.130334
    81  H    0.131873
    82  H    0.090429
    83  H    0.064917
    84  H    0.056194
    85  H    0.081367
    86  H    0.082987
    87  H    0.083497
    88  H    0.084980
    89  H    0.099384
    90  H    0.105630
    91  H    0.124377
    92  H    0.130841
    93  H    0.141913
    94  H    0.090921
    95  H    0.079418
    96  H    0.073231
    97  H    0.084929
    98  H    0.077943
 Sum of Mulliken charges =  -0.00000

 Dipole moment (field-independent basis, Debye):
    X=             -0.2255    Y=             -1.5967    Z=              0.8486  Tot=              1.8222
 Quadrupole moment (field-independent basis, Debye-Ang):
   XX=           -277.9882   YY=           -244.7469   ZZ=           -259.4560
   XY=              4.9484   XZ=            -21.2908   YZ=              3.4156

 Normal termination of Gaussian 16 at Fri Jul 12 15:25:08 2019.
