 Gaussian 16, Revision A.03,
 Gaussian 16:  ES64L-G16RevA.03 25-Dec-2016

 -------------------------------------
 # td=(NStates=1) CAM-B3LYP/6-31G(d,p)
 -------------------------------------

 --
 TD
 --
 Symbolic Z-matrix:
 Charge =  0 Multiplicity = 1

                         Standard orientation:
 ---------------------------------------------------------------------
 Center     Atomic      Atomic             Coordinates (Angstroms)
 Number     Number       Type             X           Y           Z
 ---------------------------------------------------------------------
      1          8           0       14.695329   -2.205836    0.049890
      2          8           0      -14.760966    1.860187    0.988492
      3          6           0       11.169170   -1.441292    1.030889
      4          6           0      -12.210334   -1.055135    0.557497
      5          6           0       12.642243   -1.810776    1.170154
      6          6           0      -13.650482   -0.306065    0.709012
      7          6           0       13.283705   -1.953780   -0.230996
      8          6           0      -13.524062    1.214926    0.866007
      9          6           0       10.966322   -0.389235   -0.128987
     10          6           0      -11.281737   -0.308562   -0.199212
     11          6           0       13.251083   -0.693357   -0.977089
     12          6           0      -12.760336    1.754723   -0.339996
     13          6           0       11.879554   -0.035573   -1.053665
     14          6           0      -11.501773    0.911807   -0.687076
     15          6           0       10.678053   -0.989723    2.408198
     16          6           0       10.325473   -2.712746    0.557298
     17          6           0      -11.863946   -1.254145    2.077802
     18          6           0      -12.573232   -2.481995    0.064244
     19          6           0        9.624225    0.369968   -0.005185
     20          6           0      -10.026189   -0.989952   -0.414656
     21          6           0       11.730119    0.959142   -2.066991
     22          6           0      -10.604068    1.675703   -1.586827
     23          6           0        9.372234    1.728619    0.013907
     24          6           0       -8.765341   -0.455291   -0.293748
     25          6           0        8.087127    2.349389    0.136598
     26          6           0       -7.519301   -1.202492   -0.463869
     27          6           0        7.952839    3.848204    0.599152
     28          6           0       -7.686472   -2.786191   -0.788782
     29          6           0        6.921047    1.666209   -0.010263
     30          6           0       -6.403864   -0.589088   -0.180832
     31          6           0        5.608795    2.203400    0.074017
     32          6           0       -5.036185   -1.081771   -0.541145
     33          6           0        4.465284    1.417407    0.012285
     34          6           0       -3.924219   -0.270802   -0.271334
     35          6           0        3.123822    1.741322    0.231138
     36          6           0       -2.554187   -0.632888   -0.626716
     37          6           0        2.721864    3.122794    0.828766
     38          6           0       -2.258289   -2.021929   -1.160281
     39          6           0        2.116181    0.827458   -0.291156
     40          6           0       -1.503597    0.227933   -0.419736
     41          6           0        0.763229    1.049349   -0.166959
     42          6           0       -0.159673   -0.015503   -0.488605
     43          1           0       13.172548   -1.088196    1.725830
     44          1           0       12.729264   -2.622136    1.635749
     45          1           0      -14.367809   -0.731519    1.451247
     46          1           0      -14.336702   -0.598633   -0.193047
     47          1           0       12.824331   -2.788300   -0.824424
     48          1           0      -12.921902    1.853835    1.846463
     49          1           0       13.823555    0.114994   -0.593769
     50          1           0       13.836624   -0.991601   -1.957565
     51          1           0      -13.453173    1.611346   -1.156012
     52          1           0      -12.604441    2.640556   -0.280729
     53          1           0       10.961851   -1.726818    3.147750
     54          1           0        9.523179   -0.943559    2.617358
     55          1           0       11.395305   -0.094819    2.564757
     56          1           0       10.470287   -2.842238   -0.491745
     57          1           0       10.336415   -3.541575    1.322612
     58          1           0        9.453836   -2.497680    0.784626
     59          1           0      -11.725559   -0.157471    2.442391
     60          1           0      -10.889260   -1.586178    2.139009
     61          1           0      -12.571640   -1.798319    2.727177
     62          1           0      -13.605943   -2.767724    0.431556
     63          1           0      -11.806722   -3.324067    0.002782
     64          1           0      -12.854307   -2.252290   -0.959943
     65          1           0        8.949179   -0.403774    0.291836
     66          1           0      -10.086340   -2.070663   -0.667034
     67          1           0       10.618304    0.945978   -2.303656
     68          1           0       12.259819    1.872983   -1.727927
     69          1           0       12.184575    0.750929   -3.185639
     70          1           0      -11.165464    2.337218   -2.231696
     71          1           0       -9.934788    1.067193   -2.036961
     72          1           0      -10.000299    2.318047   -0.916553
     73          1           0       14.801391   -3.157822    0.285097
     74          1           0      -15.161514    1.457791    1.735397
     75          1           0       10.079234    2.506653   -0.121198
     76          1           0       -8.668259    0.699219   -0.175180
     77          1           0        8.842543    4.170273    0.900608
     78          1           0        7.336593    4.385951   -0.080289
     79          1           0        7.223333    3.822159    1.586322
     80          1           0       -8.188780   -3.188129   -0.103053
     81          1           0       -7.952992   -3.089740   -1.778421
     82          1           0       -6.661497   -3.196409   -0.668111
     83          1           0        7.040318    0.592685   -0.322747
     84          1           0       -6.480952    0.591837    0.061646
     85          1           0        5.578869    3.066752    0.645507
     86          1           0       -5.100402   -2.134591   -0.794779
     87          1           0        4.841460    0.282334   -0.183491
     88          1           0       -3.986468    0.818409   -0.250670
     89          1           0        3.355248    3.225611    1.673511
     90          1           0        1.629017    3.306292    1.110026
     91          1           0        2.672959    3.853095   -0.143358
     92          1           0       -2.626622   -2.710298   -0.387914
     93          1           0       -2.957408   -2.294755   -2.074967
     94          1           0       -1.225157   -2.354522   -1.333134
     95          1           0        2.193997   -0.276591   -0.821159
     96          1           0       -1.865574    1.268661   -0.210475
     97          1           0        0.326923    2.011800    0.322821
     98          1           0        0.013623   -1.117374   -0.440623
 ---------------------------------------------------------------------

 SCF Done:  E(RCAM-B3LYP) =  -1706.88599366     A.U. after   15 cycles

 Excitation energies and oscillator strengths:

 Excited State   1:      Singlet-A      2.0426 eV  606.99 nm  f=3.3215  <S**2>=0.000
     155 ->158         0.12697
     156 ->157         0.69961
     156 <-157        -0.11047
 This state for optimization and/or second-order correction.
 Total Energy, E(TD-HF/TD-DFT) =  -1706.81092978
 Copying the excited state density for this state as the 1-particle RhoCI density.

 The electronic state is 1-A.
 Alpha  occ. eigenvalues --  -19.20773 -19.20492 -10.32106 -10.30099 -10.28717
 Alpha  occ. eigenvalues --  -10.27884 -10.27842 -10.27685 -10.27553 -10.27513
 Alpha  occ. eigenvalues --  -10.27503 -10.27369 -10.27365 -10.27211 -10.27119
 Alpha  occ. eigenvalues --  -10.26907 -10.26905 -10.26791 -10.26696 -10.26585
 Alpha  occ. eigenvalues --  -10.26349 -10.26258 -10.26236 -10.26084 -10.26075
 Alpha  occ. eigenvalues --  -10.25963 -10.25880 -10.25859 -10.25686 -10.25559
 Alpha  occ. eigenvalues --  -10.25471 -10.25425 -10.25204 -10.25046 -10.24859
 Alpha  occ. eigenvalues --  -10.24778 -10.24646 -10.24060 -10.23781 -10.23158
 Alpha  occ. eigenvalues --  -10.23020 -10.22268  -1.10764  -1.07532  -0.94370
 Alpha  occ. eigenvalues --   -0.93089  -0.91805  -0.91032  -0.90417  -0.89336
 Alpha  occ. eigenvalues --   -0.87621  -0.87334  -0.86644  -0.85274  -0.84278
 Alpha  occ. eigenvalues --   -0.82936  -0.81632  -0.80092  -0.79663  -0.78512
 Alpha  occ. eigenvalues --   -0.77785  -0.77770  -0.76539  -0.75929  -0.75904
 Alpha  occ. eigenvalues --   -0.75607  -0.75512  -0.75252  -0.73282  -0.70843
 Alpha  occ. eigenvalues --   -0.68639  -0.67449  -0.65749  -0.65226  -0.65139
 Alpha  occ. eigenvalues --   -0.63599  -0.62782  -0.61420  -0.60122  -0.59443
 Alpha  occ. eigenvalues --   -0.58734  -0.58390  -0.57418  -0.56453  -0.55538
 Alpha  occ. eigenvalues --   -0.55391  -0.55179  -0.54123  -0.53948  -0.53520
 Alpha  occ. eigenvalues --   -0.52904  -0.52692  -0.52462  -0.52052  -0.51304
 Alpha  occ. eigenvalues --   -0.50978  -0.50391  -0.50334  -0.50120  -0.49636
 Alpha  occ. eigenvalues --   -0.49521  -0.49369  -0.48773  -0.48246  -0.48137
 Alpha  occ. eigenvalues --   -0.47997  -0.47656  -0.47204  -0.46857  -0.46730
 Alpha  occ. eigenvalues --   -0.46268  -0.46204  -0.45892  -0.45175  -0.45023
 Alpha  occ. eigenvalues --   -0.44599  -0.44355  -0.44116  -0.43948  -0.43647
 Alpha  occ. eigenvalues --   -0.43355  -0.42807  -0.42575  -0.42400  -0.41712
 Alpha  occ. eigenvalues --   -0.41495  -0.41400  -0.41259  -0.40963  -0.40857
 Alpha  occ. eigenvalues --   -0.40219  -0.39930  -0.39769  -0.39526  -0.39313
 Alpha  occ. eigenvalues --   -0.39187  -0.38531  -0.38403  -0.38344  -0.37629
 Alpha  occ. eigenvalues --   -0.37051  -0.36861  -0.36737  -0.36575  -0.35426
 Alpha  occ. eigenvalues --   -0.34630  -0.34087  -0.33480  -0.32021  -0.31212
 Alpha  occ. eigenvalues --   -0.30926  -0.29739  -0.28357  -0.25938  -0.23893
 Alpha  occ. eigenvalues --   -0.18946
 Alpha virt. eigenvalues --   -0.06499  -0.00483   0.02207   0.05805   0.07910
 Alpha virt. eigenvalues --    0.09875   0.10641   0.11045   0.11615   0.12308
 Alpha virt. eigenvalues --    0.12327   0.12480   0.13021   0.13195   0.13244

 Mulliken charges:
               1
     1  O   -0.571313
     2  O   -0.548670
     3  C   -0.035213
     4  C   -0.033933
     5  C   -0.129394
     6  C   -0.221222
     7  C    0.125741
     8  C    0.180718
     9  C    0.023223
    10  C    0.113667
    11  C   -0.193647
    12  C   -0.171652
    13  C    0.059481
    14  C    0.027998
    15  C   -0.307601
    16  C   -0.296902
    17  C   -0.284572
    18  C   -0.318043
    19  C   -0.124214
    20  C   -0.155983
    21  C   -0.366819
    22  C   -0.366323
    23  C   -0.078026
    24  C   -0.096076
    25  C    0.061441
    26  C    0.102127
    27  C   -0.356077
    28  C   -0.361639
    29  C   -0.112385
    30  C   -0.131808
    31  C   -0.084656
    32  C   -0.093564
    33  C   -0.100260
    34  C   -0.123031
    35  C    0.036835
    36  C    0.102493
    37  C   -0.352039
    38  C   -0.381962
    39  C   -0.102535
    40  C   -0.105503
    41  C   -0.074887
    42  C   -0.107977
    43  H    0.100785
    44  H    0.078098
    45  H    0.080705
    46  H    0.088862
    47  H    0.086600
    48  H    0.030715
    49  H    0.124163
    50  H    0.089232
    51  H    0.115113
    52  H    0.097955
    53  H    0.103584
    54  H    0.094394
    55  H    0.104077
    56  H    0.112293
    57  H    0.081328
    58  H    0.110728
    59  H    0.082810
    60  H    0.103907
    61  H    0.102213
    62  H    0.101460
    63  H    0.102003
    64  H    0.103820
    65  H    0.085371
    66  H    0.085693
    67  H    0.125428
    68  H    0.120759
    69  H    0.084499
    70  H    0.111362
    71  H    0.129812
    72  H    0.116593
    73  H    0.301759
    74  H    0.302998
    75  H    0.082784
    76  H    0.077999
    77  H    0.109726
    78  H    0.139034
    79  H    0.093366
    80  H    0.140120
    81  H    0.128995
    82  H    0.094154
    83  H    0.070003
    84  H    0.071396
    85  H    0.074970
    86  H    0.092562
    87  H    0.077055
    88  H    0.095089
    89  H    0.134649
    90  H    0.111852
    91  H    0.120774
    92  H    0.120591
    93  H    0.107414
    94  H    0.110831
    95  H    0.090310
    96  H    0.064170
    97  H    0.088411
    98  H    0.098832
 Sum of Mulliken charges =  -0.00000

 Dipole moment (field-independent basis, Debye):
    X=             -1.0342    Y=             -2.1887    Z=              0.9920  Tot=              2.6161
 Quadrupole moment (field-independent basis, Debye-Ang):
   XX=           -284.6275   YY=           -239.9073   ZZ=           -262.1233
   XY=              6.5800   XZ=              1.1679   YZ=              2.3771

 Normal termination of Gaussian 16 at Tue Jul 16 15:14:07 2019.
