 Gaussian 16, Revision A.03,
 Gaussian 16:  ES64L-G16RevA.03 25-Dec-2016

 -------------------------------------
 # td=(NStates=1) CAM-B3LYP/6-31G(d,p)
 -------------------------------------

 --
 TD
 --
 Symbolic Z-matrix:
 Charge =  0 Multiplicity = 1

                         Standard orientation:
 ---------------------------------------------------------------------
 Center     Atomic      Atomic             Coordinates (Angstroms)
 Number     Number       Type             X           Y           Z
 ---------------------------------------------------------------------
      1          8           0       14.497295   -2.409937   -0.289737
      2          8           0      -14.710276    1.746462    1.434599
      3          6           0       11.139197   -1.439980    1.201782
      4          6           0      -12.279350   -1.066374    0.711538
      5          6           0       12.682812   -1.898850    1.149415
      6          6           0      -13.578652   -0.445814    0.838344
      7          6           0       13.179209   -1.986981   -0.223172
      8          6           0      -13.438076    1.055125    1.194936
      9          6           0       10.929900   -0.249364    0.120848
     10          6           0      -11.233800   -0.290206   -0.224402
     11          6           0       13.231634   -0.595288   -0.812826
     12          6           0      -12.803103    1.750217    0.139680
     13          6           0       11.828713    0.100425   -0.679921
     14          6           0      -11.520715    1.009990   -0.458705
     15          6           0       10.723045   -1.008562    2.586638
     16          6           0       10.253721   -2.617816    0.749126
     17          6           0      -11.698111   -1.389965    2.038329
     18          6           0      -12.455042   -2.421890   -0.013636
     19          6           0        9.595766    0.367782    0.203409
     20          6           0       -9.990511   -0.910494   -0.508936
     21          6           0       11.658403    1.128832   -1.754623
     22          6           0      -10.711795    1.866212   -1.316964
     23          6           0        9.371252    1.754794    0.112968
     24          6           0       -8.727917   -0.474890   -0.463750
     25          6           0        7.986247    2.366031    0.091618
     26          6           0       -7.462207   -1.096019   -0.785446
     27          6           0        7.996118    3.695830    0.592459
     28          6           0       -7.668838   -2.455310   -1.311949
     29          6           0        6.952670    1.618422    0.005759
     30          6           0       -6.374057   -0.496800   -0.599981
     31          6           0        5.651803    2.073828    0.034592
     32          6           0       -5.057997   -0.964066   -0.920613
     33          6           0        4.490754    1.304336   -0.137084
     34          6           0       -3.960339   -0.219393   -0.653170
     35          6           0        3.153718    1.655301    0.004150
     36          6           0       -2.566146   -0.624231   -0.757351
     37          6           0        2.704969    3.094771    0.257585
     38          6           0       -2.323972   -2.161704   -0.950322
     39          6           0        2.144718    0.726637   -0.352177
     40          6           0       -1.550178    0.148748   -0.521596
     41          6           0        0.756730    0.981482   -0.342991
     42          6           0       -0.168146   -0.099806   -0.375566
     43          1           0       13.261980   -1.105672    1.595445
     44          1           0       12.718561   -2.816257    1.585346
     45          1           0      -14.392465   -1.055164    1.724386
     46          1           0      -14.012431   -0.479567   -0.226299
     47          1           0       12.747026   -2.676854   -0.874643
     48          1           0      -12.918749    1.014304    2.067097
     49          1           0       14.055034   -0.113288   -0.324588
     50          1           0       13.575146   -0.439226   -1.669781
     51          1           0      -13.433482    1.790514   -0.753696
     52          1           0      -12.603021    2.856951    0.406132
     53          1           0       10.822366   -1.993587    3.238289
     54          1           0        9.681099   -0.532712    2.514260
     55          1           0       11.359190   -0.059581    2.898265
     56          1           0       10.618000   -3.265885   -0.452997
     57          1           0       10.479281   -3.376593    1.574759
     58          1           0        9.152341   -2.421537    0.996152
     59          1           0      -11.705577   -0.226436    2.450301
     60          1           0      -10.703439   -1.955958    2.147081
     61          1           0      -12.378511   -2.054307    2.699916
     62          1           0      -13.497786   -2.877683    0.280323
     63          1           0      -11.493806   -2.993469    0.162948
     64          1           0      -12.656489   -2.351113   -1.194856
     65          1           0        8.759877   -0.167404    0.180069
     66          1           0      -10.195712   -1.830710   -0.834293
     67          1           0       10.634511    1.207794   -2.212952
     68          1           0       12.066154    2.132385   -1.653801
     69          1           0       12.293078    0.786619   -2.595801
     70          1           0      -11.302179    2.562691   -1.935137
     71          1           0      -10.027238    1.281712   -2.038169
     72          1           0      -10.124303    2.466463   -0.679362
     73          1           0       14.432626   -3.351014    0.267800
     74          1           0      -15.153373    1.623226    2.308985
     75          1           0       10.122362    2.435244    0.011580
     76          1           0       -8.722985    0.465268   -0.003726
     77          1           0        8.896178    4.270506    0.810800
     78          1           0        7.590777    4.567150   -0.150168
     79          1           0        7.182901    3.703364    1.525322
     80          1           0       -7.758950   -3.209590   -0.419971
     81          1           0       -8.510642   -2.656549   -1.892607
     82          1           0       -6.684153   -2.774631   -1.728896
     83          1           0        6.878227    0.680947   -0.166002
     84          1           0       -6.337076    0.340815   -0.297990
     85          1           0        5.353985    3.183873    0.163760
     86          1           0       -5.033698   -1.947893   -1.178644
     87          1           0        4.784645    0.302462   -0.906838
     88          1           0       -3.927394    0.968430   -0.508267
     89          1           0        3.050736    3.348832    1.437577
     90          1           0        1.583273    3.206407    0.356749
     91          1           0        3.185133    3.923700   -0.298804
     92          1           0       -2.412585   -2.834588    0.012968
     93          1           0       -2.909068   -2.491918   -1.875386
     94          1           0       -1.234808   -2.232458   -1.393330
     95          1           0        2.527192   -0.197936   -0.890177
     96          1           0       -1.862639    1.132313   -0.095274
     97          1           0        0.483477    2.017709    0.001882
     98          1           0        0.226694   -1.182073   -0.532605
 ---------------------------------------------------------------------

 SCF Done:  E(RCAM-B3LYP) =  -1706.80061445     A.U. after   15 cycles

 Excitation energies and oscillator strengths:

 Excited State   1:      Singlet-A      2.3887 eV  519.04 nm  f=3.3252  <S**2>=0.000
     155 ->158        -0.13895
     156 ->157         0.69125
 This state for optimization and/or second-order correction.
 Total Energy, E(TD-HF/TD-DFT) =  -1706.71283117
 Copying the excited state density for this state as the 1-particle RhoCI density.

 The electronic state is 1-A.
 Alpha  occ. eigenvalues --  -19.21402 -19.20299 -10.29349 -10.28470 -10.28456
 Alpha  occ. eigenvalues --  -10.28235 -10.28085 -10.28079 -10.27931 -10.27924
 Alpha  occ. eigenvalues --  -10.27560 -10.27467 -10.27402 -10.27281 -10.27052
 Alpha  occ. eigenvalues --  -10.27035 -10.26953 -10.26757 -10.26708 -10.26643
 Alpha  occ. eigenvalues --  -10.26545 -10.26504 -10.26420 -10.26078 -10.25993
 Alpha  occ. eigenvalues --  -10.25731 -10.25679 -10.25597 -10.25556 -10.25500
 Alpha  occ. eigenvalues --  -10.25462 -10.25402 -10.25328 -10.24891 -10.24827
 Alpha  occ. eigenvalues --  -10.24506 -10.24448 -10.24288 -10.24244 -10.23319
 Alpha  occ. eigenvalues --  -10.22917 -10.22667  -1.09281  -1.06791  -0.94509
 Alpha  occ. eigenvalues --   -0.93716  -0.93316  -0.92810  -0.91598  -0.90428
 Alpha  occ. eigenvalues --   -0.88012  -0.87329  -0.87037  -0.86201  -0.85199
 Alpha  occ. eigenvalues --   -0.84007  -0.82472  -0.80840  -0.80118  -0.78227
 Alpha  occ. eigenvalues --   -0.76947  -0.76663  -0.76292  -0.76017  -0.75587
 Alpha  occ. eigenvalues --   -0.74656  -0.74408  -0.74102  -0.73877  -0.71219
 Alpha  occ. eigenvalues --   -0.69377  -0.68192  -0.66440  -0.66178  -0.64620
 Alpha  occ. eigenvalues --   -0.63047  -0.62813  -0.62283  -0.61464  -0.60987
 Alpha  occ. eigenvalues --   -0.59759  -0.59461  -0.58925  -0.57848  -0.56572
 Alpha  occ. eigenvalues --   -0.56417  -0.55479  -0.55095  -0.54636  -0.53963
 Alpha  occ. eigenvalues --   -0.53132  -0.52852  -0.52202  -0.51342  -0.50920
 Alpha  occ. eigenvalues --   -0.50286  -0.49860  -0.49758  -0.49296  -0.49125
 Alpha  occ. eigenvalues --   -0.48900  -0.48851  -0.48604  -0.48274  -0.47904
 Alpha  occ. eigenvalues --   -0.47766  -0.47392  -0.47029  -0.46552  -0.46343
 Alpha  occ. eigenvalues --   -0.46070  -0.45825  -0.45663  -0.45553  -0.45221
 Alpha  occ. eigenvalues --   -0.44793  -0.44670  -0.44402  -0.44170  -0.43554
 Alpha  occ. eigenvalues --   -0.43471  -0.43177  -0.42192  -0.42025  -0.41662
 Alpha  occ. eigenvalues --   -0.41490  -0.40966  -0.40862  -0.40808  -0.40588
 Alpha  occ. eigenvalues --   -0.40424  -0.39892  -0.39427  -0.39177  -0.38987
 Alpha  occ. eigenvalues --   -0.38905  -0.38623  -0.38613  -0.38043  -0.37256
 Alpha  occ. eigenvalues --   -0.36698  -0.36637  -0.36387  -0.36087  -0.35890
 Alpha  occ. eigenvalues --   -0.34873  -0.34575  -0.33265  -0.32258  -0.31815
 Alpha  occ. eigenvalues --   -0.31174  -0.30507  -0.28840  -0.26883  -0.24333
 Alpha  occ. eigenvalues --   -0.20358
 Alpha virt. eigenvalues --   -0.05751  -0.00680   0.02497   0.05826   0.07955
 Alpha virt. eigenvalues --    0.09302   0.10132   0.10390   0.10737   0.10959
 Alpha virt. eigenvalues --    0.11588   0.12110   0.12296   0.12807   0.13221

 Mulliken charges:
               1
     1  O   -0.564757
     2  O   -0.597265
     3  C   -0.027609
     4  C    0.008755
     5  C   -0.170073
     6  C   -0.188867
     7  C    0.188169
     8  C    0.205916
     9  C    0.082069
    10  C    0.067150
    11  C   -0.199990
    12  C   -0.214743
    13  C    0.049042
    14  C    0.020045
    15  C   -0.290426
    16  C   -0.275297
    17  C   -0.269143
    18  C   -0.302295
    19  C   -0.122365
    20  C   -0.111103
    21  C   -0.386793
    22  C   -0.371446
    23  C   -0.102111
    24  C   -0.103773
    25  C    0.129948
    26  C    0.159806
    27  C   -0.383303
    28  C   -0.383448
    29  C   -0.051881
    30  C   -0.045739
    31  C   -0.108015
    32  C   -0.094858
    33  C   -0.140961
    34  C   -0.113198
    35  C    0.124856
    36  C    0.115619
    37  C   -0.365062
    38  C   -0.365404
    39  C   -0.119003
    40  C   -0.114622
    41  C   -0.083420
    42  C   -0.102670
    43  H    0.109939
    44  H    0.074217
    45  H    0.048800
    46  H    0.094998
    47  H    0.077635
    48  H    0.087430
    49  H    0.110348
    50  H    0.093974
    51  H    0.129352
    52  H    0.105312
    53  H    0.090400
    54  H    0.108767
    55  H    0.101215
    56  H    0.064188
    57  H    0.085637
    58  H    0.107042
    59  H    0.068553
    60  H    0.104432
    61  H    0.090912
    62  H    0.090475
    63  H    0.100572
    64  H    0.081062
    65  H    0.088915
    66  H    0.063499
    67  H    0.118366
    68  H    0.115255
    69  H    0.095177
    70  H    0.102773
    71  H    0.113752
    72  H    0.125802
    73  H    0.288577
    74  H    0.305025
    75  H    0.080403
    76  H    0.068030
    77  H    0.123083
    78  H    0.089236
    79  H    0.110719
    80  H    0.107385
    81  H    0.133135
    82  H    0.098859
    83  H    0.059214
    84  H    0.027490
    85  H    0.076489
    86  H    0.080223
    87  H    0.058355
    88  H    0.072513
    89  H    0.083428
    90  H    0.111815
    91  H    0.135074
    92  H    0.121538
    93  H    0.109026
    94  H    0.090407
    95  H    0.088483
    96  H    0.073121
    97  H    0.085566
    98  H    0.092271
 Sum of Mulliken charges =  -0.00000

 Dipole moment (field-independent basis, Debye):
    X=              0.6348    Y=             -0.4568    Z=              1.5373  Tot=              1.7248
 Quadrupole moment (field-independent basis, Debye-Ang):
   XX=           -293.5871   YY=           -242.1413   ZZ=           -260.4111
   XY=              8.6278   XZ=             -5.8443   YZ=             -0.4918

 Normal termination of Gaussian 16 at Tue Jul 16 17:24:47 2019.
