 Gaussian 16, Revision A.03,
 Gaussian 16:  ES64L-G16RevA.03 25-Dec-2016

 -------------------------------------
 # td=(NStates=1) CAM-B3LYP/6-31G(d,p)
 -------------------------------------

 --
 TD
 --
 Symbolic Z-matrix:
 Charge =  0 Multiplicity = 1

                         Standard orientation:
 ---------------------------------------------------------------------
 Center     Atomic      Atomic             Coordinates (Angstroms)
 Number     Number       Type             X           Y           Z
 ---------------------------------------------------------------------
      1          8           0       14.457566   -2.477974   -0.343496
      2          8           0      -14.671445    1.963405    0.880207
      3          6           0       10.989337   -1.490938    1.008270
      4          6           0      -12.331180   -0.974536    0.637620
      5          6           0       12.551142   -1.852750    1.098902
      6          6           0      -13.638033   -0.235783    0.642840
      7          6           0       13.029124   -2.109045   -0.262935
      8          6           0      -13.483176    1.220290    0.918340
      9          6           0       10.786442   -0.368368   -0.038140
     10          6           0      -11.246227   -0.304526   -0.132476
     11          6           0       13.117777   -0.740243   -0.953222
     12          6           0      -12.516116    1.831809   -0.127374
     13          6           0       11.762543   -0.039547   -0.903626
     14          6           0      -11.397430    1.035458   -0.603054
     15          6           0       10.649102   -0.972402    2.471555
     16          6           0       10.106293   -2.722711    0.626823
     17          6           0      -11.773980   -1.197837    2.038973
     18          6           0      -12.572314   -2.421809    0.109590
     19          6           0        9.566359    0.451124    0.183084
     20          6           0      -10.039142   -1.051476   -0.468924
     21          6           0       11.718985    1.048872   -1.886094
     22          6           0      -10.491277    1.712779   -1.589108
     23          6           0        9.296308    1.813875   -0.089464
     24          6           0       -8.749615   -0.537098   -0.449129
     25          6           0        8.080836    2.431297    0.074883
     26          6           0       -7.536064   -1.344612   -0.608264
     27          6           0        8.054070    3.838070    0.441227
     28          6           0       -7.580923   -2.806909   -1.110841
     29          6           0        6.957242    1.719644    0.061447
     30          6           0       -6.321157   -0.675076   -0.494272
     31          6           0        5.547725    2.263547    0.268376
     32          6           0       -4.965982   -1.153030   -0.501418
     33          6           0        4.411848    1.449085    0.211563
     34          6           0       -3.871147   -0.364550   -0.336750
     35          6           0        3.063927    1.869643    0.072914
     36          6           0       -2.518556   -0.734312   -0.492751
     37          6           0        2.779207    3.304570    0.428968
     38          6           0       -2.113297   -2.232633   -0.897372
     39          6           0        2.150878    0.847186   -0.077207
     40          6           0       -1.450318    0.189656   -0.194154
     41          6           0        0.747626    1.046685   -0.083411
     42          6           0       -0.183153    0.102566   -0.403546
     43          1           0       13.150805   -1.012935    1.693975
     44          1           0       12.620792   -2.645684    1.931896
     45          1           0      -14.346912   -1.085043    1.189986
     46          1           0      -14.289733   -0.261005   -0.248265
     47          1           0       12.679618   -2.831168   -1.030114
     48          1           0      -13.048644    1.091042    1.959661
     49          1           0       13.743030   -0.166908   -0.513812
     50          1           0       13.418684   -0.614049   -2.173213
     51          1           0      -13.200452    1.981213   -0.850632
     52          1           0      -12.141178    2.759933    0.281027
     53          1           0       10.822830   -1.965586    3.079159
     54          1           0        9.694245   -0.768894    2.564352
     55          1           0       11.310924   -0.147207    2.731419
     56          1           0       10.617577   -3.068057   -0.215759
     57          1           0       10.176221   -3.425024    1.434397
     58          1           0        9.181649   -2.397046    0.467695
     59          1           0      -11.468424   -0.178838    2.573157
     60          1           0      -10.892485   -2.010333    1.924078
     61          1           0      -12.502884   -1.887769    2.809013
     62          1           0      -13.378784   -2.785836    0.587096
     63          1           0      -11.646436   -3.032273    0.344187
     64          1           0      -12.533648   -2.274230   -1.002776
     65          1           0        8.545176    0.024798    0.689600
     66          1           0      -10.130809   -2.076783   -0.553452
     67          1           0       10.611929    1.437694   -1.937601
     68          1           0       12.389774    1.934843   -1.652243
     69          1           0       11.866484    0.589765   -2.911018
     70          1           0      -11.125826    2.146647   -2.267510
     71          1           0       -9.772967    1.248676   -2.155968
     72          1           0       -9.817164    2.550192   -1.101940
     73          1           0       14.408414   -3.412582    0.220329
     74          1           0      -15.114250    1.681396    1.698804
     75          1           0       10.106938    2.366119   -0.275040
     76          1           0       -8.617017    0.393325   -0.083083
     77          1           0        9.090708    4.469127    0.552462
     78          1           0        7.382575    4.238389   -0.405726
     79          1           0        7.543500    4.044098    1.444117
     80          1           0       -7.603127   -3.676047   -0.211790
     81          1           0       -8.444861   -3.044583   -1.925319
     82          1           0       -6.615362   -3.262629   -1.459474
     83          1           0        6.989700    0.712314   -0.114817
     84          1           0       -6.312604    0.249612   -0.073066
     85          1           0        5.507871    3.469987    0.279100
     86          1           0       -4.652955   -2.356185   -0.889592
     87          1           0        4.829634    0.284609    0.219183
     88          1           0       -4.001896    0.737178   -0.223301
     89          1           0        3.323869    3.358424    1.253311
     90          1           0        1.836251    3.456956    0.563386
     91          1           0        3.125373    3.998779   -0.339769
     92          1           0       -2.847392   -2.901068   -0.341675
     93          1           0       -2.134683   -2.251338   -2.043921
     94          1           0       -1.128610   -2.729296   -0.239750
     95          1           0        2.426887   -0.149222   -0.312708
     96          1           0       -1.992976    1.134902   -0.028498
     97          1           0        0.249221    1.982500    0.220461
     98          1           0        0.296355   -0.884137   -0.974762
 ---------------------------------------------------------------------

 SCF Done:  E(RCAM-B3LYP) =  -1706.84448428     A.U. after   15 cycles

 Excitation energies and oscillator strengths:

 Excited State   1:      Singlet-A      2.0954 eV  591.70 nm  f=3.7391  <S**2>=0.000
     155 ->158         0.15969
     156 ->157         0.68764
 This state for optimization and/or second-order correction.
 Total Energy, E(TD-HF/TD-DFT) =  -1706.76748018
 Copying the excited state density for this state as the 1-particle RhoCI density.

 The electronic state is 1-A.
 Alpha  occ. eigenvalues --  -19.22304 -19.21112 -10.30944 -10.30791 -10.28404
 Alpha  occ. eigenvalues --  -10.28380 -10.28283 -10.28004 -10.27955 -10.27946
 Alpha  occ. eigenvalues --  -10.27916 -10.27797 -10.27752 -10.27636 -10.27591
 Alpha  occ. eigenvalues --  -10.27436 -10.27171 -10.27075 -10.26972 -10.26537
 Alpha  occ. eigenvalues --  -10.26376 -10.26285 -10.26183 -10.26101 -10.26022
 Alpha  occ. eigenvalues --  -10.26021 -10.25815 -10.25718 -10.25682 -10.25545
 Alpha  occ. eigenvalues --  -10.25536 -10.25530 -10.25438 -10.25198 -10.24839
 Alpha  occ. eigenvalues --  -10.24764 -10.24610 -10.24454 -10.24400 -10.24326
 Alpha  occ. eigenvalues --  -10.23584 -10.23326  -1.11066  -1.06156  -0.94265
 Alpha  occ. eigenvalues --   -0.93547  -0.92495  -0.91955  -0.91018  -0.89835
 Alpha  occ. eigenvalues --   -0.87906  -0.87500  -0.87119  -0.85049  -0.84500
 Alpha  occ. eigenvalues --   -0.82885  -0.81787  -0.80390  -0.79936  -0.78726
 Alpha  occ. eigenvalues --   -0.77400  -0.76817  -0.76318  -0.76111  -0.75799
 Alpha  occ. eigenvalues --   -0.75095  -0.74953  -0.74155  -0.73267  -0.70745
 Alpha  occ. eigenvalues --   -0.68699  -0.67690  -0.65913  -0.65283  -0.64166
 Alpha  occ. eigenvalues --   -0.63359  -0.62934  -0.61089  -0.60456  -0.60080
 Alpha  occ. eigenvalues --   -0.59143  -0.58748  -0.58022  -0.57558  -0.55901
 Alpha  occ. eigenvalues --   -0.55718  -0.55562  -0.55106  -0.54039  -0.53846
 Alpha  occ. eigenvalues --   -0.53353  -0.52498  -0.52168  -0.51556  -0.51224
 Alpha  occ. eigenvalues --   -0.50785  -0.50432  -0.49935  -0.49795  -0.49710
 Alpha  occ. eigenvalues --   -0.49343  -0.49011  -0.48791  -0.48625  -0.48436
 Alpha  occ. eigenvalues --   -0.48235  -0.47650  -0.47464  -0.47297  -0.46245
 Alpha  occ. eigenvalues --   -0.46117  -0.45883  -0.45633  -0.45341  -0.44884
 Alpha  occ. eigenvalues --   -0.44720  -0.44552  -0.44129  -0.43409  -0.43015
 Alpha  occ. eigenvalues --   -0.42983  -0.42722  -0.42602  -0.42241  -0.41900
 Alpha  occ. eigenvalues --   -0.41823  -0.41515  -0.41302  -0.40856  -0.40537
 Alpha  occ. eigenvalues --   -0.40266  -0.39900  -0.39656  -0.38964  -0.38924
 Alpha  occ. eigenvalues --   -0.38765  -0.38416  -0.38123  -0.37818  -0.37398
 Alpha  occ. eigenvalues --   -0.37342  -0.37270  -0.36824  -0.36277  -0.35807
 Alpha  occ. eigenvalues --   -0.35433  -0.34746  -0.34130  -0.32375  -0.31904
 Alpha  occ. eigenvalues --   -0.31491  -0.30107  -0.28359  -0.25296  -0.23079
 Alpha  occ. eigenvalues --   -0.19050
 Alpha virt. eigenvalues --   -0.06134  -0.01383   0.01592   0.05207   0.07687
 Alpha virt. eigenvalues --    0.09786   0.10594   0.10800   0.11318   0.11484
 Alpha virt. eigenvalues --    0.11868   0.12643   0.12736   0.12951   0.13211

 Mulliken charges:
               1
     1  O   -0.577745
     2  O   -0.543581
     3  C   -0.059508
     4  C   -0.043453
     5  C   -0.200802
     6  C   -0.175284
     7  C    0.153815
     8  C    0.130680
     9  C    0.090751
    10  C    0.073812
    11  C   -0.177393
    12  C   -0.219110
    13  C    0.032807
    14  C    0.041787
    15  C   -0.280371
    16  C   -0.283995
    17  C   -0.263475
    18  C   -0.292301
    19  C   -0.123769
    20  C   -0.123373
    21  C   -0.375717
    22  C   -0.354498
    23  C   -0.118276
    24  C   -0.092874
    25  C    0.135436
    26  C    0.122775
    27  C   -0.374723
    28  C   -0.366092
    29  C   -0.132938
    30  C   -0.135242
    31  C   -0.107416
    32  C   -0.090047
    33  C   -0.120500
    34  C   -0.097017
    35  C    0.073408
    36  C    0.068510
    37  C   -0.341160
    38  C   -0.359194
    39  C   -0.105284
    40  C   -0.112607
    41  C   -0.092221
    42  C   -0.063697
    43  H    0.106589
    44  H    0.081630
    45  H    0.057165
    46  H    0.095267
    47  H    0.113331
    48  H    0.068226
    49  H    0.135297
    50  H    0.072700
    51  H    0.134254
    52  H    0.121112
    53  H    0.073335
    54  H    0.112233
    55  H    0.108367
    56  H    0.107888
    57  H    0.096910
    58  H    0.116779
    59  H    0.095315
    60  H    0.096338
    61  H    0.059664
    62  H    0.108217
    63  H    0.092592
    64  H    0.109350
    65  H    0.070517
    66  H    0.079097
    67  H    0.106474
    68  H    0.116693
    69  H    0.109271
    70  H    0.117145
    71  H    0.132988
    72  H    0.090787
    73  H    0.285030
    74  H    0.314394
    75  H    0.083427
    76  H    0.084884
    77  H    0.093451
    78  H    0.119389
    79  H    0.126278
    80  H    0.086466
    81  H    0.107852
    82  H    0.120085
    83  H    0.075730
    84  H    0.080885
    85  H    0.073545
    86  H    0.060571
    87  H    0.074591
    88  H    0.082719
    89  H    0.138875
    90  H    0.114202
    91  H    0.122188
    92  H    0.116143
    93  H    0.131307
    94  H    0.089583
    95  H    0.088846
    96  H    0.070842
    97  H    0.079919
    98  H    0.073154
 Sum of Mulliken charges =  -0.00000

 Dipole moment (field-independent basis, Debye):
    X=             -0.6429    Y=             -0.6176    Z=              1.6336  Tot=              1.8610
 Quadrupole moment (field-independent basis, Debye-Ang):
   XX=           -281.5930   YY=           -243.3508   ZZ=           -262.0729
   XY=             10.4648   XZ=             -0.5231   YZ=              0.0190

 Normal termination of Gaussian 16 at Thu Jul 11 07:41:57 2019.
