 Gaussian 16, Revision A.03,
 Gaussian 16:  ES64L-G16RevA.03 25-Dec-2016

 -------------------------------------
 # td=(NStates=1) CAM-B3LYP/6-31G(d,p)
 -------------------------------------

 --
 TD
 --
 Symbolic Z-matrix:
 Charge =  0 Multiplicity = 1

                         Standard orientation:
 ---------------------------------------------------------------------
 Center     Atomic      Atomic             Coordinates (Angstroms)
 Number     Number       Type             X           Y           Z
 ---------------------------------------------------------------------
      1          8           0       14.676134   -2.287658   -0.244785
      2          8           0      -14.678557    1.913755    1.099157
      3          6           0       11.240642   -1.446967    0.965131
      4          6           0      -12.353022   -0.989615    0.660556
      5          6           0       12.721507   -1.744670    1.063235
      6          6           0      -13.644460   -0.143919    0.741184
      7          6           0       13.372133   -1.790952   -0.319034
      8          6           0      -13.428120    1.384835    1.024130
      9          6           0       11.028406   -0.224271    0.027925
     10          6           0      -11.327417   -0.158258   -0.166593
     11          6           0       13.277398   -0.326488   -0.936580
     12          6           0      -12.728951    1.899501   -0.207830
     13          6           0       11.931861    0.212582   -0.895512
     14          6           0      -11.591300    1.069740   -0.624493
     15          6           0       10.654809   -1.013567    2.344242
     16          6           0       10.338744   -2.686931    0.417433
     17          6           0      -11.779153   -1.348446    2.044446
     18          6           0      -12.722152   -2.340241    0.033577
     19          6           0        9.698369    0.345198    0.269036
     20          6           0      -10.082494   -0.935924   -0.439025
     21          6           0       11.784304    1.391454   -1.765837
     22          6           0      -10.604288    1.718729   -1.511212
     23          6           0        9.425493    1.629274    0.197544
     24          6           0       -8.809802   -0.494160   -0.480815
     25          6           0        8.020243    2.216399    0.273667
     26          6           0       -7.661153   -1.239322   -0.741756
     27          6           0        7.854387    3.704421    0.583943
     28          6           0       -7.655018   -2.769346   -0.949817
     29          6           0        6.888403    1.481432    0.066152
     30          6           0       -6.411988   -0.486337   -0.605554
     31          6           0        5.559692    1.933580    0.242738
     32          6           0       -5.125051   -1.033538   -0.690003
     33          6           0        4.447660    1.177867    0.074083
     34          6           0       -3.895413   -0.316591   -0.449421
     35          6           0        3.125482    1.571984    0.009094
     36          6           0       -2.623771   -0.819020   -0.570302
     37          6           0        2.901887    3.060887    0.397539
     38          6           0       -2.384329   -2.372583   -0.889809
     39          6           0        2.143376    0.643612   -0.216851
     40          6           0       -1.610616    0.043409   -0.306862
     41          6           0        0.786413    0.865829   -0.183192
     42          6           0       -0.198303   -0.098594   -0.336221
     43          1           0       13.421510   -0.943934    1.542917
     44          1           0       12.889694   -2.650902    1.534885
     45          1           0      -14.472946   -0.544602    1.531645
     46          1           0      -14.060321   -0.336575   -0.215372
     47          1           0       12.741475   -2.514518   -0.929264
     48          1           0      -12.809153    1.475511    2.120963
     49          1           0       14.023992    0.264860   -0.494694
     50          1           0       13.520894   -0.489548   -1.860260
     51          1           0      -13.291051    1.895468   -1.147096
     52          1           0      -12.303832    2.928504    0.112349
     53          1           0       10.671454   -2.002387    3.089221
     54          1           0        9.587537   -1.230856    2.198341
     55          1           0       10.835760   -0.070831    2.683200
     56          1           0       10.633987   -2.969229   -0.625354
     57          1           0       10.422531   -3.374485    1.208260
     58          1           0        9.294498   -2.442017    0.384053
     59          1           0      -11.545850   -0.489146    2.670947
     60          1           0      -10.823175   -1.909644    1.843850
     61          1           0      -12.484122   -2.023482    2.582700
     62          1           0      -13.561228   -2.478060    0.622211
     63          1           0      -11.957246   -3.059554    0.337756
     64          1           0      -12.776044   -1.994439   -0.902826
     65          1           0        8.771879   -0.304016    0.595176
     66          1           0      -10.244649   -1.994863   -0.533714
     67          1           0       10.637632    1.433783   -2.182324
     68          1           0       11.959786    2.308256   -1.367122
     69          1           0       12.074283    1.600606   -2.889889
     70          1           0      -11.253641    2.103312   -2.380263
     71          1           0       -9.840127    1.088854   -2.033195
     72          1           0      -10.244896    2.518403   -1.211143
     73          1           0       14.775299   -3.117210    0.506320
     74          1           0      -15.055932    1.600820    1.879075
     75          1           0       10.212082    2.465355    0.186945
     76          1           0       -8.549360    0.634591   -0.058839
     77          1           0        8.759539    4.186217    0.554011
     78          1           0        7.298128    4.112501   -0.281448
     79          1           0        7.269025    3.751909    1.570711
     80          1           0       -7.902065   -3.414571    0.131200
     81          1           0       -8.348686   -3.007829   -1.743012
     82          1           0       -6.756124   -3.226290   -1.089119
     83          1           0        7.016225    0.440784   -0.182032
     84          1           0       -6.421354    0.640397   -0.288006
     85          1           0        5.579025    2.786121    0.787211
     86          1           0       -4.874908   -1.982581   -1.037650
     87          1           0        4.688913    0.075117   -0.551720
     88          1           0       -3.934015    0.721427   -0.025499
     89          1           0        3.494024    3.143707    1.190559
     90          1           0        1.908997    3.015808    0.339717
     91          1           0        3.266026    3.919844   -0.222518
     92          1           0       -2.626993   -2.944218    0.104391
     93          1           0       -2.858976   -2.796533   -1.769104
     94          1           0       -1.338960   -2.672918   -1.107181
     95          1           0        2.483747   -0.312337   -0.337968
     96          1           0       -1.855951    1.089029   -0.080468
     97          1           0        0.375670    1.819713    0.145874
     98          1           0        0.210919   -1.158067   -0.636011
 ---------------------------------------------------------------------

 SCF Done:  E(RCAM-B3LYP) =  -1706.91412145     A.U. after   15 cycles

 Excitation energies and oscillator strengths:

 Excited State   1:      Singlet-A      2.1017 eV  589.91 nm  f=3.9083  <S**2>=0.000
     155 ->158        -0.15155
     156 ->157         0.69208
 This state for optimization and/or second-order correction.
 Total Energy, E(TD-HF/TD-DFT) =  -1706.83688415
 Copying the excited state density for this state as the 1-particle RhoCI density.

 The electronic state is 1-A.
 Alpha  occ. eigenvalues --  -19.21756 -19.21245 -10.32136 -10.29930 -10.28257
 Alpha  occ. eigenvalues --  -10.28017 -10.27783 -10.27649 -10.27278 -10.27156
 Alpha  occ. eigenvalues --  -10.27124 -10.27090 -10.27028 -10.26957 -10.26800
 Alpha  occ. eigenvalues --  -10.26534 -10.26477 -10.26456 -10.26428 -10.26307
 Alpha  occ. eigenvalues --  -10.26300 -10.26157 -10.26131 -10.26077 -10.26040
 Alpha  occ. eigenvalues --  -10.25791 -10.25659 -10.25574 -10.25476 -10.25341
 Alpha  occ. eigenvalues --  -10.25325 -10.25188 -10.25173 -10.25143 -10.25074
 Alpha  occ. eigenvalues --  -10.24671 -10.24512 -10.24154 -10.23950 -10.23242
 Alpha  occ. eigenvalues --  -10.23163 -10.22686  -1.12893  -1.07372  -0.93804
 Alpha  occ. eigenvalues --   -0.93609  -0.92756  -0.91609  -0.90294  -0.89791
 Alpha  occ. eigenvalues --   -0.88323  -0.87513  -0.87231  -0.85490  -0.84549
 Alpha  occ. eigenvalues --   -0.82833  -0.81841  -0.80145  -0.79943  -0.78812
 Alpha  occ. eigenvalues --   -0.76826  -0.76737  -0.76670  -0.76328  -0.76090
 Alpha  occ. eigenvalues --   -0.75764  -0.75625  -0.75427  -0.73803  -0.71447
 Alpha  occ. eigenvalues --   -0.68933  -0.67497  -0.66276  -0.64898  -0.64295
 Alpha  occ. eigenvalues --   -0.63489  -0.62673  -0.61551  -0.60571  -0.60042
 Alpha  occ. eigenvalues --   -0.59145  -0.58981  -0.58044  -0.57800  -0.56169
 Alpha  occ. eigenvalues --   -0.55781  -0.55412  -0.55056  -0.54644  -0.53732
 Alpha  occ. eigenvalues --   -0.53229  -0.53000  -0.52563  -0.52392  -0.52281
 Alpha  occ. eigenvalues --   -0.51521  -0.50862  -0.50536  -0.50084  -0.49488
 Alpha  occ. eigenvalues --   -0.49076  -0.48996  -0.48509  -0.48270  -0.48198
 Alpha  occ. eigenvalues --   -0.47797  -0.47619  -0.47221  -0.46834  -0.46784
 Alpha  occ. eigenvalues --   -0.46711  -0.46218  -0.45818  -0.45359  -0.45010
 Alpha  occ. eigenvalues --   -0.44868  -0.44583  -0.44043  -0.43961  -0.43716
 Alpha  occ. eigenvalues --   -0.43232  -0.43113  -0.42869  -0.42805  -0.42514
 Alpha  occ. eigenvalues --   -0.42075  -0.41802  -0.41239  -0.41060  -0.40819
 Alpha  occ. eigenvalues --   -0.40417  -0.40042  -0.39725  -0.39637  -0.39085
 Alpha  occ. eigenvalues --   -0.39040  -0.38841  -0.38565  -0.37778  -0.37531
 Alpha  occ. eigenvalues --   -0.37144  -0.36797  -0.36405  -0.35993  -0.35759
 Alpha  occ. eigenvalues --   -0.34963  -0.34458  -0.33475  -0.32567  -0.31074
 Alpha  occ. eigenvalues --   -0.30943  -0.29931  -0.28275  -0.26477  -0.23253
 Alpha  occ. eigenvalues --   -0.18998
 Alpha virt. eigenvalues --   -0.06245  -0.01344   0.02604   0.05843   0.08100
 Alpha virt. eigenvalues --    0.08974   0.10309   0.11331   0.12194   0.12372
 Alpha virt. eigenvalues --    0.12458   0.13123   0.13214   0.13654   0.13913

 Mulliken charges:
               1
     1  O   -0.582347
     2  O   -0.518870
     3  C   -0.016531
     4  C   -0.055573
     5  C   -0.179455
     6  C   -0.192191
     7  C    0.179310
     8  C    0.178281
     9  C    0.078494
    10  C    0.072666
    11  C   -0.204828
    12  C   -0.212461
    13  C    0.056084
    14  C    0.034428
    15  C   -0.293980
    16  C   -0.319532
    17  C   -0.289413
    18  C   -0.283409
    19  C   -0.126886
    20  C   -0.160028
    21  C   -0.392466
    22  C   -0.346675
    23  C   -0.084968
    24  C   -0.082250
    25  C    0.036643
    26  C    0.096429
    27  C   -0.368883
    28  C   -0.347591
    29  C   -0.104791
    30  C   -0.129837
    31  C   -0.068202
    32  C   -0.087011
    33  C   -0.125406
    34  C   -0.132480
    35  C    0.078027
    36  C    0.144319
    37  C   -0.333616
    38  C   -0.379017
    39  C   -0.087682
    40  C   -0.142316
    41  C   -0.090262
    42  C   -0.096190
    43  H    0.090894
    44  H    0.068145
    45  H    0.041498
    46  H    0.104272
    47  H    0.058232
    48  H    0.051776
    49  H    0.121529
    50  H    0.121008
    51  H    0.132919
    52  H    0.104326
    53  H    0.062743
    54  H    0.102219
    55  H    0.126696
    56  H    0.115770
    57  H    0.110902
    58  H    0.109844
    59  H    0.095595
    60  H    0.096444
    61  H    0.086711
    62  H    0.113315
    63  H    0.097944
    64  H    0.111676
    65  H    0.096180
    66  H    0.086012
    67  H    0.097095
    68  H    0.135003
    69  H    0.101361
    70  H    0.074593
    71  H    0.126551
    72  H    0.121255
    73  H    0.307860
    74  H    0.300920
    75  H    0.079570
    76  H    0.081846
    77  H    0.109920
    78  H    0.128151
    79  H    0.122209
    80  H    0.082623
    81  H    0.126278
    82  H    0.127950
    83  H    0.068091
    84  H    0.084474
    85  H    0.072678
    86  H    0.079787
    87  H    0.046662
    88  H    0.079469
    89  H    0.130722
    90  H    0.107451
    91  H    0.112307
    92  H    0.119809
    93  H    0.126589
    94  H    0.113127
    95  H    0.080884
    96  H    0.077356
    97  H    0.086910
    98  H    0.064317
 Sum of Mulliken charges =  -0.00000

 Dipole moment (field-independent basis, Debye):
    X=              0.0084    Y=             -0.8089    Z=              1.8267  Tot=              1.9978
 Quadrupole moment (field-independent basis, Debye-Ang):
   XX=           -285.3421   YY=           -242.2223   ZZ=           -260.6246
   XY=             11.5410   XZ=             -0.0950   YZ=              0.2292

 Normal termination of Gaussian 16 at Sat Jul 13 22:16:47 2019.
