 Gaussian 16, Revision A.03,
 Gaussian 16:  ES64L-G16RevA.03 25-Dec-2016

 -------------------------------------
 # td=(NStates=1) CAM-B3LYP/6-31G(d,p)
 -------------------------------------

 --
 TD
 --
 Symbolic Z-matrix:
 Charge =  0 Multiplicity = 1

                         Standard orientation:
 ---------------------------------------------------------------------
 Center     Atomic      Atomic             Coordinates (Angstroms)
 Number     Number       Type             X           Y           Z
 ---------------------------------------------------------------------
      1          8           0       14.722582   -2.182762   -0.177629
      2          8           0      -14.739734    1.929815    0.831849
      3          6           0       11.118683   -1.360245    0.970696
      4          6           0      -12.388368   -0.995006    0.504240
      5          6           0       12.631040   -1.901333    1.015303
      6          6           0      -13.658308   -0.176044    0.688301
      7          6           0       13.280504   -1.978335   -0.386494
      8          6           0      -13.523763    1.313500    0.944376
      9          6           0       10.924207   -0.236593    0.097800
     10          6           0      -11.283296   -0.219814   -0.164551
     11          6           0       13.206145   -0.494979   -0.997823
     12          6           0      -12.740438    1.827220   -0.317577
     13          6           0       11.920993    0.209094   -0.868863
     14          6           0      -11.544547    0.999172   -0.632828
     15          6           0       10.732842   -1.097716    2.393411
     16          6           0       10.272775   -2.444999    0.354401
     17          6           0      -11.815499   -1.203794    2.051635
     18          6           0      -12.669161   -2.295518   -0.183038
     19          6           0        9.695381    0.328121    0.200939
     20          6           0      -10.022244   -0.916640   -0.399618
     21          6           0       11.705167    1.325388   -1.832669
     22          6           0      -10.554061    1.815403   -1.420540
     23          6           0        9.334345    1.733048    0.029760
     24          6           0       -8.714390   -0.414911   -0.337988
     25          6           0        8.031334    2.352427    0.172472
     26          6           0       -7.553566   -1.216401   -0.527829
     27          6           0        7.952494    3.789929    0.380010
     28          6           0       -7.679223   -2.601808   -0.895886
     29          6           0        6.856997    1.636832    0.062741
     30          6           0       -6.317991   -0.568410   -0.433704
     31          6           0        5.611930    2.170856    0.128782
     32          6           0       -5.023680   -1.165964   -0.489162
     33          6           0        4.502376    1.104358    0.126725
     34          6           0       -3.938132   -0.529217   -0.228207
     35          6           0        3.088327    1.491690    0.195750
     36          6           0       -2.505810   -0.893443   -0.424379
     37          6           0        2.801670    2.978657    0.512920
     38          6           0       -2.230655   -2.304740   -0.895394
     39          6           0        2.138370    0.546247   -0.230470
     40          6           0       -1.542431    0.009448   -0.126156
     41          6           0        0.723065    0.797934   -0.038229
     42          6           0       -0.179319   -0.298566   -0.188730
     43          1           0       13.391813   -1.203934    1.576611
     44          1           0       12.780404   -2.862205    1.609266
     45          1           0      -14.241441   -0.731274    1.397847
     46          1           0      -14.202284   -0.413009   -0.217721
     47          1           0       12.770636   -2.585907   -1.039088
     48          1           0      -13.004855    1.543063    1.730465
     49          1           0       13.989406    0.197998   -0.772699
     50          1           0       13.468104   -0.392576   -1.969904
     51          1           0      -13.459152    1.854355   -1.182650
     52          1           0      -12.169035    2.824177    0.097335
     53          1           0       10.903761   -1.790573    3.080387
     54          1           0        9.555016   -0.904235    2.456382
     55          1           0       11.394979   -0.340946    2.737149
     56          1           0       10.470612   -2.694044   -0.679344
     57          1           0       10.456088   -3.338525    0.931706
     58          1           0        9.166558   -2.077738    0.440538
     59          1           0      -11.566857   -0.218432    2.380608
     60          1           0      -10.963545   -1.722308    2.130749
     61          1           0      -12.591561   -1.502818    2.579875
     62          1           0      -13.628902   -2.636224    0.107211
     63          1           0      -12.036105   -3.157382    0.089324
     64          1           0      -12.765413   -2.149723   -1.337622
     65          1           0        8.831357   -0.375818    0.694095
     66          1           0      -10.202038   -2.020745   -0.457308
     67          1           0       10.616254    1.711877   -2.050918
     68          1           0       12.063067    2.349486   -1.655591
     69          1           0       12.052662    1.015011   -2.829572
     70          1           0      -11.071840    2.440409   -2.197645
     71          1           0       -9.725249    1.138270   -1.863364
     72          1           0      -10.132027    2.543618   -0.734505
     73          1           0       14.768281   -3.291564   -0.275115
     74          1           0      -15.653756    1.366038    1.275580
     75          1           0       10.390787    2.437976    0.082693
     76          1           0       -8.527882    0.713630   -0.156966
     77          1           0        8.968581    4.110047    0.524870
     78          1           0        7.352454    4.293014   -0.463405
     79          1           0        7.525144    4.060746    1.354430
     80          1           0       -8.364441   -3.135142   -0.260619
     81          1           0       -8.133269   -2.621471   -1.889386
     82          1           0       -6.737430   -3.022414   -1.172305
     83          1           0        6.901250    0.479989    0.118814
     84          1           0       -6.285020    0.357494    0.109571
     85          1           0        5.408723    3.216776    0.279133
     86          1           0       -4.916208   -2.296073   -0.707904
     87          1           0        4.933689    0.296347   -0.338055
     88          1           0       -3.875782    0.469729    0.177000
     89          1           0        3.416999    3.477444    1.315398
     90          1           0        1.762232    3.083149    0.791715
     91          1           0        3.053969    3.846028   -0.170862
     92          1           0       -2.821083   -2.998587   -0.283062
     93          1           0       -2.616869   -2.482944   -1.913099
     94          1           0       -1.105240   -2.539080   -0.934557
     95          1           0        2.435463   -0.370526   -0.484438
     96          1           0       -2.012673    0.975390    0.176378
     97          1           0        0.231979    1.797148    0.330466
     98          1           0        0.024326   -1.388504   -0.632406
 ---------------------------------------------------------------------

 SCF Done:  E(RCAM-B3LYP) =  -1706.92355489     A.U. after   16 cycles

 Excitation energies and oscillator strengths:

 Excited State   1:      Singlet-A      1.9185 eV  646.26 nm  f=3.1198  <S**2>=0.000
     155 ->158        -0.14285
     156 ->157         0.69447
     156 <-157        -0.10373
 This state for optimization and/or second-order correction.
 Total Energy, E(TD-HF/TD-DFT) =  -1706.85305199
 Copying the excited state density for this state as the 1-particle RhoCI density.

 The electronic state is 1-A.
 Alpha  occ. eigenvalues --  -19.23222 -19.21933 -10.31374 -10.29000 -10.28213
 Alpha  occ. eigenvalues --  -10.28048 -10.27849 -10.27775 -10.27115 -10.27023
 Alpha  occ. eigenvalues --  -10.26870 -10.26792 -10.26566 -10.26556 -10.26494
 Alpha  occ. eigenvalues --  -10.26493 -10.26420 -10.26329 -10.26269 -10.26263
 Alpha  occ. eigenvalues --  -10.26185 -10.26011 -10.25764 -10.25739 -10.25626
 Alpha  occ. eigenvalues --  -10.25475 -10.25467 -10.25352 -10.25282 -10.25117
 Alpha  occ. eigenvalues --  -10.25097 -10.25046 -10.25007 -10.24841 -10.24766
 Alpha  occ. eigenvalues --  -10.24495 -10.24476 -10.24436 -10.24322 -10.24244
 Alpha  occ. eigenvalues --  -10.23804 -10.22057  -1.08350  -1.06807  -0.94723
 Alpha  occ. eigenvalues --   -0.93543  -0.91900  -0.91100  -0.90590  -0.89000
 Alpha  occ. eigenvalues --   -0.87836  -0.86879  -0.86359  -0.84944  -0.83887
 Alpha  occ. eigenvalues --   -0.83050  -0.81360  -0.79513  -0.79208  -0.77900
 Alpha  occ. eigenvalues --   -0.77430  -0.77375  -0.76780  -0.76000  -0.75697
 Alpha  occ. eigenvalues --   -0.75496  -0.74971  -0.74707  -0.72785  -0.70025
 Alpha  occ. eigenvalues --   -0.69020  -0.67491  -0.66208  -0.65366  -0.64577
 Alpha  occ. eigenvalues --   -0.63799  -0.62781  -0.61333  -0.60637  -0.59591
 Alpha  occ. eigenvalues --   -0.58765  -0.58269  -0.57994  -0.57570  -0.56130
 Alpha  occ. eigenvalues --   -0.55441  -0.55252  -0.54838  -0.53828  -0.53738
 Alpha  occ. eigenvalues --   -0.52840  -0.52064  -0.51349  -0.50891  -0.50560
 Alpha  occ. eigenvalues --   -0.50449  -0.50065  -0.49930  -0.49202  -0.48979
 Alpha  occ. eigenvalues --   -0.48920  -0.48483  -0.48293  -0.47955  -0.47557
 Alpha  occ. eigenvalues --   -0.47462  -0.47366  -0.47180  -0.46764  -0.46547
 Alpha  occ. eigenvalues --   -0.45742  -0.45578  -0.45466  -0.44592  -0.44542
 Alpha  occ. eigenvalues --   -0.44479  -0.44195  -0.43869  -0.43492  -0.43375
 Alpha  occ. eigenvalues --   -0.43005  -0.42629  -0.42541  -0.42296  -0.42057
 Alpha  occ. eigenvalues --   -0.41895  -0.41726  -0.41614  -0.41485  -0.41243
 Alpha  occ. eigenvalues --   -0.40750  -0.40466  -0.40276  -0.39724  -0.39152
 Alpha  occ. eigenvalues --   -0.39081  -0.39003  -0.38587  -0.38193  -0.37491
 Alpha  occ. eigenvalues --   -0.37440  -0.36711  -0.36563  -0.36491  -0.35912
 Alpha  occ. eigenvalues --   -0.34690  -0.33517  -0.33313  -0.32258  -0.32073
 Alpha  occ. eigenvalues --   -0.31906  -0.29238  -0.27413  -0.24787  -0.21891
 Alpha  occ. eigenvalues --   -0.18072
 Alpha virt. eigenvalues --   -0.05847  -0.01502   0.01813   0.05222   0.07834
 Alpha virt. eigenvalues --    0.08497   0.08882   0.10156   0.10938   0.11350
 Alpha virt. eigenvalues --    0.11657   0.12663   0.13078   0.13516   0.13712

 Mulliken charges:
               1
     1  O   -0.547387
     2  O   -0.573254
     3  C   -0.074087
     4  C   -0.025695
     5  C   -0.180076
     6  C   -0.228559
     7  C    0.134090
     8  C    0.246308
     9  C    0.135759
    10  C    0.112354
    11  C   -0.225809
    12  C   -0.227072
    13  C    0.071124
    14  C    0.030701
    15  C   -0.277598
    16  C   -0.281130
    17  C   -0.309887
    18  C   -0.323968
    19  C   -0.122733
    20  C   -0.151936
    21  C   -0.397595
    22  C   -0.363379
    23  C   -0.152398
    24  C   -0.108893
    25  C    0.085332
    26  C    0.129906
    27  C   -0.378946
    28  C   -0.376748
    29  C   -0.097753
    30  C   -0.151354
    31  C   -0.081420
    32  C   -0.087918
    33  C   -0.152052
    34  C   -0.096015
    35  C    0.096565
    36  C    0.105647
    37  C   -0.373160
    38  C   -0.376899
    39  C   -0.097822
    40  C   -0.107151
    41  C   -0.102355
    42  C   -0.100139
    43  H    0.100568
    44  H    0.077851
    45  H    0.079001
    46  H    0.095308
    47  H    0.104802
    48  H    0.082147
    49  H    0.127917
    50  H    0.103220
    51  H    0.124547
    52  H    0.084378
    53  H    0.109915
    54  H    0.079729
    55  H    0.111774
    56  H    0.105226
    57  H    0.095724
    58  H    0.087290
    59  H    0.101924
    60  H    0.108100
    61  H    0.098965
    62  H    0.103321
    63  H    0.106467
    64  H    0.101318
    65  H    0.077098
    66  H    0.077521
    67  H    0.121745
    68  H    0.124616
    69  H    0.102821
    70  H    0.100310
    71  H    0.112243
    72  H    0.112749
    73  H    0.299892
    74  H    0.299356
    75  H    0.074968
    76  H    0.094374
    77  H    0.108729
    78  H    0.117180
    79  H    0.123852
    80  H    0.125718
    81  H    0.124551
    82  H    0.110782
    83  H    0.074949
    84  H    0.084464
    85  H    0.087923
    86  H    0.074103
    87  H    0.095023
    88  H    0.062676
    89  H    0.112054
    90  H    0.107542
    91  H    0.118635
    92  H    0.122148
    93  H    0.123283
    94  H    0.092199
    95  H    0.087111
    96  H    0.078275
    97  H    0.099514
    98  H    0.085504
 Sum of Mulliken charges =  -0.00000

 Dipole moment (field-independent basis, Debye):
    X=              0.0959    Y=             -2.6216    Z=              0.3952  Tot=              2.6529
 Quadrupole moment (field-independent basis, Debye-Ang):
   XX=           -231.4411   YY=           -239.9247   ZZ=           -263.0305
   XY=              7.7801   XZ=            -17.2405   YZ=              4.8045

 Normal termination of Gaussian 16 at Thu Jul 18 00:09:55 2019.
