 Gaussian 16, Revision A.03,
 Gaussian 16:  ES64L-G16RevA.03 25-Dec-2016

 -------------------------------------
 # td=(NStates=1) CAM-B3LYP/6-31G(d,p)
 -------------------------------------

 --
 TD
 --
 Symbolic Z-matrix:
 Charge =  0 Multiplicity = 1

                         Standard orientation:
 ---------------------------------------------------------------------
 Center     Atomic      Atomic             Coordinates (Angstroms)
 Number     Number       Type             X           Y           Z
 ---------------------------------------------------------------------
      1          8           0       14.686257   -2.244446   -0.190633
      2          8           0      -14.564610    2.016095    1.037604
      3          6           0       11.072811   -1.345277    1.054351
      4          6           0      -12.353796   -1.083687    0.581609
      5          6           0       12.582475   -1.735881    1.067756
      6          6           0      -13.608251   -0.192368    0.684004
      7          6           0       13.259669   -1.931795   -0.245241
      8          6           0      -13.389343    1.309417    0.996861
      9          6           0       10.895788   -0.210748    0.069012
     10          6           0      -11.240060   -0.201414   -0.175251
     11          6           0       13.149285   -0.532428   -1.012088
     12          6           0      -12.671432    1.894921   -0.128979
     13          6           0       11.861423    0.153528   -0.843603
     14          6           0      -11.435852    1.129795   -0.531356
     15          6           0       10.672674   -0.979861    2.519955
     16          6           0       10.299918   -2.531511    0.438287
     17          6           0      -11.820713   -1.423922    2.012313
     18          6           0      -12.643521   -2.431273   -0.122232
     19          6           0        9.609622    0.443985    0.172061
     20          6           0      -10.032629   -1.050206   -0.484311
     21          6           0       11.663346    1.240649   -1.931208
     22          6           0      -10.428919    1.873096   -1.407877
     23          6           0        9.326449    1.769578    0.032361
     24          6           0       -8.843428   -0.493848   -0.405771
     25          6           0        8.013567    2.317294    0.085624
     26          6           0       -7.585681   -1.265372   -0.591438
     27          6           0        7.810400    3.778114    0.305511
     28          6           0       -7.571974   -2.728489   -0.840519
     29          6           0        6.845465    1.490607    0.123727
     30          6           0       -6.320900   -0.576825   -0.555571
     31          6           0        5.539370    1.996359    0.184555
     32          6           0       -5.022929   -1.019074   -0.691860
     33          6           0        4.499511    1.155942    0.163398
     34          6           0       -3.892510   -0.300620   -0.569308
     35          6           0        3.137031    1.558333    0.247063
     36          6           0       -2.581788   -0.849817   -0.620520
     37          6           0        2.852869    3.043582    0.496429
     38          6           0       -2.327078   -2.316505   -1.018020
     39          6           0        2.049004    0.601689    0.012449
     40          6           0       -1.551286    0.001988   -0.331500
     41          6           0        0.790860    0.892188    0.047177
     42          6           0       -0.141138   -0.153018   -0.402667
     43          1           0       13.042818   -0.917316    1.657964
     44          1           0       12.777967   -2.725314    1.723194
     45          1           0      -14.132398   -0.667007    1.710256
     46          1           0      -14.420360   -0.324229   -0.070185
     47          1           0       12.743125   -2.759647   -0.635731
     48          1           0      -12.884170    1.344102    1.954500
     49          1           0       14.024076   -0.082702   -0.626336
     50          1           0       13.235835   -0.886658   -2.063351
     51          1           0      -13.337705    2.041633   -1.046097
     52          1           0      -12.263324    2.982145   -0.031534
     53          1           0       10.929992   -1.797230    2.993827
     54          1           0        9.584118   -1.052400    2.560259
     55          1           0       11.356958   -0.115725    2.859799
     56          1           0       10.967209   -2.894321   -0.481850
     57          1           0        9.956903   -3.433339    1.216235
     58          1           0        9.201764   -2.454389    0.088083
     59          1           0      -11.552605   -0.464336    2.523934
     60          1           0      -10.777823   -1.768071    2.130636
     61          1           0      -12.530363   -2.134411    2.460199
     62          1           0      -13.661234   -2.733795    0.189273
     63          1           0      -11.902404   -3.076415    0.293581
     64          1           0      -12.635932   -2.202591   -1.177202
     65          1           0        8.878111   -0.349495    0.664262
     66          1           0      -10.124336   -1.971624   -0.828074
     67          1           0       10.651748    1.216788   -2.195287
     68          1           0       12.096692    2.203719   -1.997468
     69          1           0       12.137073    0.658524   -2.949616
     70          1           0      -10.862937    2.656738   -1.929378
     71          1           0       -9.650954    1.239150   -1.760907
     72          1           0       -9.818095    2.530092   -0.564045
     73          1           0       14.705586   -2.834841    0.625078
     74          1           0      -15.169674    1.610748    1.647096
     75          1           0       10.026449    2.518869   -0.042182
     76          1           0       -8.765885    0.525002   -0.136468
     77          1           0        8.901820    4.064621    0.572116
     78          1           0        7.302676    4.068705   -0.681383
     79          1           0        7.095271    4.019545    1.100437
     80          1           0       -8.377192   -3.253288   -0.108215
     81          1           0       -8.070660   -2.680784   -1.794164
     82          1           0       -6.574243   -3.067295   -0.924653
     83          1           0        6.912875    0.489900   -0.039626
     84          1           0       -6.288908    0.691856   -0.663684
     85          1           0        5.365981    3.167205    0.348693
     86          1           0       -5.021498   -2.157332   -0.929731
     87          1           0        4.751271    0.062739    0.157738
     88          1           0       -4.087174    0.724261   -0.477378
     89          1           0        3.125642    3.399104    1.418655
     90          1           0        1.840017    3.389679    0.479764
     91          1           0        3.178809    3.707885   -0.276877
     92          1           0       -2.582338   -2.814106   -0.300551
     93          1           0       -3.018263   -2.710651   -1.863038
     94          1           0       -1.366277   -2.549329   -1.216439
     95          1           0        2.452965   -0.331496   -0.081357
     96          1           0       -1.823247    1.096703   -0.086594
     97          1           0        0.390854    1.909427    0.257950
     98          1           0        0.282395   -1.064956   -0.740989
 ---------------------------------------------------------------------

 SCF Done:  E(RCAM-B3LYP) =  -1706.94861864     A.U. after   16 cycles

 Excitation energies and oscillator strengths:

 Excited State   1:      Singlet-A      1.8691 eV  663.33 nm  f=3.6258  <S**2>=0.000
     155 ->158         0.13731
     156 ->157         0.69826
     156 <-157        -0.11506
 This state for optimization and/or second-order correction.
 Total Energy, E(TD-HF/TD-DFT) =  -1706.87993030
 Copying the excited state density for this state as the 1-particle RhoCI density.

 The electronic state is 1-A.
 Alpha  occ. eigenvalues --  -19.21802 -19.21002 -10.30002 -10.29928 -10.28461
 Alpha  occ. eigenvalues --  -10.28115 -10.28049 -10.27830 -10.27660 -10.27330
 Alpha  occ. eigenvalues --  -10.27204 -10.27163 -10.26968 -10.26886 -10.26591
 Alpha  occ. eigenvalues --  -10.26573 -10.26423 -10.26383 -10.26315 -10.26297
 Alpha  occ. eigenvalues --  -10.26290 -10.26202 -10.26170 -10.26085 -10.26018
 Alpha  occ. eigenvalues --  -10.25855 -10.25815 -10.25782 -10.25643 -10.25602
 Alpha  occ. eigenvalues --  -10.25543 -10.25340 -10.25209 -10.25058 -10.24999
 Alpha  occ. eigenvalues --  -10.24944 -10.24820 -10.24662 -10.24582 -10.24455
 Alpha  occ. eigenvalues --  -10.24286 -10.23708  -1.11476  -1.08082  -0.94163
 Alpha  occ. eigenvalues --   -0.92692  -0.92043  -0.91565  -0.90531  -0.89808
 Alpha  occ. eigenvalues --   -0.87716  -0.86936  -0.86854  -0.86031  -0.84753
 Alpha  occ. eigenvalues --   -0.83489  -0.82276  -0.80634  -0.80138  -0.79650
 Alpha  occ. eigenvalues --   -0.77466  -0.77011  -0.76130  -0.76060  -0.75667
 Alpha  occ. eigenvalues --   -0.75366  -0.75067  -0.75029  -0.72654  -0.70389
 Alpha  occ. eigenvalues --   -0.69375  -0.67785  -0.66064  -0.65527  -0.64255
 Alpha  occ. eigenvalues --   -0.63458  -0.62649  -0.61814  -0.60933  -0.60251
 Alpha  occ. eigenvalues --   -0.59737  -0.58965  -0.58523  -0.57649  -0.56744
 Alpha  occ. eigenvalues --   -0.56189  -0.55556  -0.54219  -0.53935  -0.53439
 Alpha  occ. eigenvalues --   -0.52720  -0.52488  -0.52336  -0.52187  -0.51681
 Alpha  occ. eigenvalues --   -0.51282  -0.50438  -0.50128  -0.49688  -0.49612
 Alpha  occ. eigenvalues --   -0.49490  -0.48967  -0.48522  -0.48399  -0.48231
 Alpha  occ. eigenvalues --   -0.48185  -0.47806  -0.47748  -0.47668  -0.47381
 Alpha  occ. eigenvalues --   -0.46097  -0.46005  -0.45681  -0.45533  -0.45281
 Alpha  occ. eigenvalues --   -0.44968  -0.44694  -0.44289  -0.44008  -0.43323
 Alpha  occ. eigenvalues --   -0.43088  -0.42887  -0.42372  -0.42340  -0.41825
 Alpha  occ. eigenvalues --   -0.41547  -0.41464  -0.40965  -0.40819  -0.40549
 Alpha  occ. eigenvalues --   -0.40257  -0.39999  -0.39880  -0.39756  -0.39638
 Alpha  occ. eigenvalues --   -0.39465  -0.39288  -0.38701  -0.38385  -0.38231
 Alpha  occ. eigenvalues --   -0.38098  -0.37537  -0.37256  -0.36519  -0.35566
 Alpha  occ. eigenvalues --   -0.35226  -0.34189  -0.33677  -0.32716  -0.32489
 Alpha  occ. eigenvalues --   -0.32078  -0.29620  -0.27757  -0.25567  -0.22925
 Alpha  occ. eigenvalues --   -0.17907
 Alpha virt. eigenvalues --   -0.06494  -0.01058   0.01960   0.06428   0.07820
 Alpha virt. eigenvalues --    0.10161   0.10963   0.11648   0.11930   0.12095
 Alpha virt. eigenvalues --    0.12540   0.12649   0.13384   0.13577   0.14162

 Mulliken charges:
               1
     1  O   -0.566743
     2  O   -0.545932
     3  C   -0.046508
     4  C    0.009944
     5  C   -0.206687
     6  C   -0.210671
     7  C    0.154367
     8  C    0.194874
     9  C    0.098425
    10  C   -0.000949
    11  C   -0.225261
    12  C   -0.212360
    13  C    0.038671
    14  C    0.062937
    15  C   -0.289468
    16  C   -0.298011
    17  C   -0.315746
    18  C   -0.311754
    19  C   -0.112822
    20  C   -0.104626
    21  C   -0.358990
    22  C   -0.357136
    23  C   -0.087784
    24  C   -0.074758
    25  C    0.046616
    26  C    0.050175
    27  C   -0.359347
    28  C   -0.355163
    29  C   -0.096669
    30  C   -0.126554
    31  C   -0.065020
    32  C   -0.067129
    33  C   -0.127881
    34  C   -0.107470
    35  C    0.065927
    36  C    0.095169
    37  C   -0.391778
    38  C   -0.347654
    39  C   -0.074986
    40  C   -0.130435
    41  C   -0.077917
    42  C   -0.108529
    43  H    0.095803
    44  H    0.052315
    45  H    0.035220
    46  H    0.100498
    47  H    0.091280
    48  H    0.085579
    49  H    0.138790
    50  H    0.115855
    51  H    0.119604
    52  H    0.092074
    53  H    0.120660
    54  H    0.105483
    55  H    0.111264
    56  H    0.103207
    57  H    0.068984
    58  H    0.103173
    59  H    0.098934
    60  H    0.106556
    61  H    0.102400
    62  H    0.102224
    63  H    0.112763
    64  H    0.116209
    65  H    0.081179
    66  H    0.082248
    67  H    0.135090
    68  H    0.129872
    69  H    0.057641
    70  H    0.119337
    71  H    0.137172
    72  H    0.080684
    73  H    0.304833
    74  H    0.298608
    75  H    0.083824
    76  H    0.095644
    77  H    0.093827
    78  H    0.127760
    79  H    0.131333
    80  H    0.103551
    81  H    0.137867
    82  H    0.115308
    83  H    0.069485
    84  H    0.042790
    85  H    0.081094
    86  H    0.058114
    87  H    0.080373
    88  H    0.083028
    89  H    0.131085
    90  H    0.101845
    91  H    0.124218
    92  H    0.143072
    93  H    0.101941
    94  H    0.112328
    95  H    0.076236
    96  H    0.070299
    97  H    0.094104
    98  H    0.080968
 Sum of Mulliken charges =  -0.00000

 Dipole moment (field-independent basis, Debye):
    X=             -0.9190    Y=             -1.3575    Z=              1.6782  Tot=              2.3460
 Quadrupole moment (field-independent basis, Debye-Ang):
   XX=           -276.2547   YY=           -245.5876   ZZ=           -262.2091
   XY=             15.3030   XZ=             11.0531   YZ=             -1.8371

 Normal termination of Gaussian 16 at Thu Jul 11 02:44:46 2019.
