 Gaussian 16, Revision A.03,
 Gaussian 16:  ES64L-G16RevA.03 25-Dec-2016

 -------------------------------------
 # td=(NStates=1) CAM-B3LYP/6-31G(d,p)
 -------------------------------------

 --
 TD
 --
 Symbolic Z-matrix:
 Charge =  0 Multiplicity = 1

                         Standard orientation:
 ---------------------------------------------------------------------
 Center     Atomic      Atomic             Coordinates (Angstroms)
 Number     Number       Type             X           Y           Z
 ---------------------------------------------------------------------
      1          8           0       14.711800   -2.423391   -0.238121
      2          8           0      -14.945857    1.722311    0.777933
      3          6           0       11.090335   -1.534799    0.980776
      4          6           0      -12.408621   -1.176610    0.520192
      5          6           0       12.609765   -1.935538    1.043875
      6          6           0      -13.662327   -0.367618    0.408571
      7          6           0       13.235548   -2.068023   -0.319890
      8          6           0      -13.724726    1.131452    0.890831
      9          6           0       10.889991   -0.313691    0.031957
     10          6           0      -11.316540   -0.295793   -0.222572
     11          6           0       13.175673   -0.712369   -1.043718
     12          6           0      -12.763849    1.798651   -0.167476
     13          6           0       11.830223    0.037176   -0.902201
     14          6           0      -11.492897    1.043737   -0.548186
     15          6           0       10.712414   -1.214261    2.369992
     16          6           0       10.294429   -2.695912    0.384297
     17          6           0      -11.869564   -1.413168    1.988164
     18          6           0      -12.508887   -2.524893   -0.199811
     19          6           0        9.673353    0.404007    0.183058
     20          6           0      -10.054724   -0.996830   -0.417795
     21          6           0       11.663063    1.098829   -2.011726
     22          6           0      -10.523865    1.815274   -1.372172
     23          6           0        9.431094    1.706811    0.059571
     24          6           0       -8.823631   -0.469305   -0.295228
     25          6           0        8.199813    2.374624    0.174470
     26          6           0       -7.495854   -1.146032   -0.429536
     27          6           0        8.190927    3.841673    0.598051
     28          6           0       -7.480718   -2.683658   -0.963355
     29          6           0        6.944033    1.737913    0.016389
     30          6           0       -6.366351   -0.496690   -0.261412
     31          6           0        5.666931    2.205542    0.186681
     32          6           0       -5.054800   -1.003594   -0.492903
     33          6           0        4.507613    1.425276   -0.024129
     34          6           0       -3.921934   -0.203350   -0.229241
     35          6           0        3.192845    1.838430    0.121610
     36          6           0       -2.554942   -0.603730   -0.417401
     37          6           0        2.877066    3.207854    0.478836
     38          6           0       -2.360957   -2.102699   -0.898568
     39          6           0        2.203768    0.906228   -0.125346
     40          6           0       -1.619948    0.328523   -0.229609
     41          6           0        0.727471    1.014554    0.151545
     42          6           0       -0.159105    0.050521   -0.210117
     43          1           0       13.088807   -0.904864    1.613149
     44          1           0       12.576019   -2.936761    1.634366
     45          1           0      -14.187594   -0.997032    1.223051
     46          1           0      -14.133086   -0.345435   -0.496990
     47          1           0       12.721416   -2.836234   -0.795635
     48          1           0      -13.318851    1.205948    1.822721
     49          1           0       13.940382   -0.042584   -0.540179
     50          1           0       13.385082   -0.584660   -2.068664
     51          1           0      -13.353396    2.107700   -1.137449
     52          1           0      -12.577506    2.905166    0.289681
     53          1           0       10.751496   -2.105279    3.043906
     54          1           0        9.607046   -1.147884    2.518923
     55          1           0       11.326841   -0.262568    2.687341
     56          1           0       10.547607   -2.937019   -0.736863
     57          1           0       10.410495   -3.767925    1.002134
     58          1           0        9.368220   -2.499041    0.442085
     59          1           0      -11.833245   -0.601471    2.709351
     60          1           0      -10.979255   -1.877913    1.934586
     61          1           0      -12.603052   -2.264546    2.586116
     62          1           0      -13.380851   -2.938052    0.349939
     63          1           0      -11.563222   -3.059347    0.133022
     64          1           0      -12.771254   -2.481149   -1.206799
     65          1           0        8.889700   -0.316919    0.421364
     66          1           0      -10.179412   -1.978847   -1.000231
     67          1           0       10.647876    1.472645   -2.228999
     68          1           0       12.258494    1.985240   -1.756535
     69          1           0       12.156897    0.631869   -2.839061
     70          1           0      -11.163170    2.279672   -2.104001
     71          1           0       -9.738357    1.256471   -1.846988
     72          1           0      -10.075263    2.589982   -0.658379
     73          1           0       14.515736   -3.297074    0.160940
     74          1           0      -15.706866    1.451861    1.418963
     75          1           0       10.271634    2.309969    0.023273
     76          1           0       -8.882120    0.517845    0.223794
     77          1           0        9.296956    4.022185    1.009343
     78          1           0        7.656287    4.495411   -0.293161
     79          1           0        7.606987    4.004406    1.539994
     80          1           0       -8.463272   -3.287127   -0.605300
     81          1           0       -7.673413   -2.742588   -2.186648
     82          1           0       -6.473935   -3.213293   -0.629201
     83          1           0        6.942078    0.634277   -0.340698
     84          1           0       -6.447488    0.545125    0.166764
     85          1           0        5.463236    3.293884    0.488973
     86          1           0       -4.729892   -1.963022   -1.049657
     87          1           0        4.502956    0.389372   -0.625583
     88          1           0       -4.107778    0.888403    0.128520
     89          1           0        2.686644    3.335837    1.715985
     90          1           0        1.806347    3.487922   -0.090516
     91          1           0        3.838774    3.938922    0.190095
     92          1           0       -2.327526   -2.779975    0.007041
     93          1           0       -3.277397   -2.393747   -1.677888
     94          1           0       -1.283338   -2.141724   -1.396383
     95          1           0        2.641763   -0.160309   -0.516650
     96          1           0       -1.997179    1.428616    0.065090
     97          1           0        0.225397    2.095830    0.535124
     98          1           0        0.256315   -0.852612   -0.414530
 ---------------------------------------------------------------------

 SCF Done:  E(RCAM-B3LYP) =  -1706.94157638     A.U. after   15 cycles

 Excitation energies and oscillator strengths:

 Excited State   1:      Singlet-A      2.3356 eV  530.85 nm  f=3.3175  <S**2>=0.000
     155 ->158         0.16037
     156 ->157         0.68544
 This state for optimization and/or second-order correction.
 Total Energy, E(TD-HF/TD-DFT) =  -1706.85574623
 Copying the excited state density for this state as the 1-particle RhoCI density.

 The electronic state is 1-A.
 Alpha  occ. eigenvalues --  -19.21982 -19.21187 -10.30825 -10.30063 -10.29276
 Alpha  occ. eigenvalues --  -10.29200 -10.29043 -10.28654 -10.28130 -10.27872
 Alpha  occ. eigenvalues --  -10.27756 -10.27708 -10.27652 -10.27632 -10.27590
 Alpha  occ. eigenvalues --  -10.27489 -10.27391 -10.27206 -10.27205 -10.27173
 Alpha  occ. eigenvalues --  -10.27114 -10.26932 -10.26835 -10.26795 -10.26635
 Alpha  occ. eigenvalues --  -10.26581 -10.26144 -10.26000 -10.25993 -10.25946
 Alpha  occ. eigenvalues --  -10.25872 -10.25793 -10.25665 -10.25613 -10.25522
 Alpha  occ. eigenvalues --  -10.25420 -10.25394 -10.25272 -10.24855 -10.24733
 Alpha  occ. eigenvalues --  -10.24468 -10.23714  -1.10001  -1.07126  -0.94067
 Alpha  occ. eigenvalues --   -0.92706  -0.92126  -0.91395  -0.90356  -0.89541
 Alpha  occ. eigenvalues --   -0.87447  -0.86947  -0.86447  -0.85546  -0.84495
 Alpha  occ. eigenvalues --   -0.82799  -0.81303  -0.80238  -0.79151  -0.77132
 Alpha  occ. eigenvalues --   -0.76493  -0.76219  -0.76069  -0.75151  -0.74945
 Alpha  occ. eigenvalues --   -0.74710  -0.74623  -0.74075  -0.73267  -0.70022
 Alpha  occ. eigenvalues --   -0.69136  -0.67688  -0.65877  -0.65374  -0.63505
 Alpha  occ. eigenvalues --   -0.63016  -0.62073  -0.61295  -0.59734  -0.59197
 Alpha  occ. eigenvalues --   -0.59040  -0.58486  -0.58127  -0.56857  -0.55716
 Alpha  occ. eigenvalues --   -0.55417  -0.54880  -0.54731  -0.53530  -0.53185
 Alpha  occ. eigenvalues --   -0.52743  -0.52179  -0.51615  -0.51380  -0.51163
 Alpha  occ. eigenvalues --   -0.50777  -0.49995  -0.49430  -0.48934  -0.48774
 Alpha  occ. eigenvalues --   -0.48524  -0.48429  -0.47933  -0.47737  -0.47395
 Alpha  occ. eigenvalues --   -0.46905  -0.46789  -0.45985  -0.45909  -0.45627
 Alpha  occ. eigenvalues --   -0.45501  -0.45198  -0.45083  -0.44493  -0.44441
 Alpha  occ. eigenvalues --   -0.44242  -0.43905  -0.43730  -0.43408  -0.43080
 Alpha  occ. eigenvalues --   -0.42757  -0.42624  -0.42286  -0.41875  -0.41802
 Alpha  occ. eigenvalues --   -0.41679  -0.41431  -0.41304  -0.40994  -0.40874
 Alpha  occ. eigenvalues --   -0.40185  -0.40055  -0.39983  -0.39798  -0.39187
 Alpha  occ. eigenvalues --   -0.39155  -0.39118  -0.38581  -0.38375  -0.37990
 Alpha  occ. eigenvalues --   -0.37578  -0.37408  -0.37358  -0.36433  -0.36138
 Alpha  occ. eigenvalues --   -0.35425  -0.34789  -0.33235  -0.32650  -0.32451
 Alpha  occ. eigenvalues --   -0.31014  -0.30010  -0.27958  -0.26372  -0.23151
 Alpha  occ. eigenvalues --   -0.19905
 Alpha virt. eigenvalues --   -0.05406  -0.01406   0.02653   0.05345   0.07662
 Alpha virt. eigenvalues --    0.09674   0.10510   0.10769   0.11135   0.11274
 Alpha virt. eigenvalues --    0.11452   0.12329   0.12436   0.12657   0.12892

 Mulliken charges:
               1
     1  O   -0.552998
     2  O   -0.562817
     3  C   -0.025678
     4  C   -0.012130
     5  C   -0.167881
     6  C   -0.193256
     7  C    0.138075
     8  C    0.209083
     9  C    0.049872
    10  C    0.041740
    11  C   -0.213319
    12  C   -0.241542
    13  C    0.017165
    14  C    0.053963
    15  C   -0.290129
    16  C   -0.285637
    17  C   -0.295309
    18  C   -0.292727
    19  C   -0.076368
    20  C   -0.133972
    21  C   -0.361428
    22  C   -0.348804
    23  C   -0.115914
    24  C   -0.120343
    25  C    0.078750
    26  C    0.099710
    27  C   -0.364958
    28  C   -0.347555
    29  C   -0.108881
    30  C   -0.112866
    31  C   -0.097376
    32  C   -0.092215
    33  C   -0.123443
    34  C   -0.115627
    35  C    0.191114
    36  C    0.133553
    37  C   -0.354817
    38  C   -0.356988
    39  C   -0.162643
    40  C   -0.148544
    41  C   -0.095436
    42  C   -0.062328
    43  H    0.074340
    44  H    0.080697
    45  H    0.052426
    46  H    0.103983
    47  H    0.100571
    48  H    0.080382
    49  H    0.125776
    50  H    0.105619
    51  H    0.105332
    52  H    0.081021
    53  H    0.096891
    54  H    0.096866
    55  H    0.105943
    56  H    0.099182
    57  H    0.063467
    58  H    0.117761
    59  H    0.113236
    60  H    0.128115
    61  H    0.049277
    62  H    0.096587
    63  H    0.104235
    64  H    0.117721
    65  H    0.078437
    66  H    0.086232
    67  H    0.129128
    68  H    0.120263
    69  H    0.109382
    70  H    0.108729
    71  H    0.128793
    72  H    0.104765
    73  H    0.301328
    74  H    0.317525
    75  H    0.081530
    76  H    0.087960
    77  H    0.096478
    78  H    0.111911
    79  H    0.127494
    80  H    0.097671
    81  H    0.097918
    82  H    0.109550
    83  H    0.071450
    84  H    0.085539
    85  H    0.077954
    86  H    0.076038
    87  H    0.075617
    88  H    0.075319
    89  H    0.100855
    90  H    0.102937
    91  H    0.093334
    92  H    0.135517
    93  H    0.108337
    94  H    0.104738
    95  H    0.071184
    96  H    0.085835
    97  H    0.075065
    98  H    0.086666
 Sum of Mulliken charges =  -0.00000

 Dipole moment (field-independent basis, Debye):
    X=             -1.6306    Y=             -1.3763    Z=              1.1731  Tot=              2.4350
 Quadrupole moment (field-independent basis, Debye-Ang):
   XX=           -286.5694   YY=           -247.6253   ZZ=           -261.4196
   XY=              4.0297   XZ=            -10.3105   YZ=              3.6569

 Normal termination of Gaussian 16 at Sun Jul 14 10:25:59 2019.
