 Gaussian 16, Revision A.03,
 Gaussian 16:  ES64L-G16RevA.03 25-Dec-2016

 -------------------------------------
 # td=(NStates=1) CAM-B3LYP/6-31G(d,p)
 -------------------------------------

 --
 TD
 --
 Symbolic Z-matrix:
 Charge =  0 Multiplicity = 1

                         Standard orientation:
 ---------------------------------------------------------------------
 Center     Atomic      Atomic             Coordinates (Angstroms)
 Number     Number       Type             X           Y           Z
 ---------------------------------------------------------------------
      1          8           0       14.726993   -2.012174   -0.371358
      2          8           0      -14.716183    2.087083    0.952803
      3          6           0       11.262879   -1.390179    1.066357
      4          6           0      -12.360802   -0.950835    0.621528
      5          6           0       12.711125   -1.601505    1.116431
      6          6           0      -13.758495   -0.134458    0.664512
      7          6           0       13.430905   -1.697322   -0.354386
      8          6           0      -13.393983    1.333663    0.854390
      9          6           0       10.947578   -0.180400    0.006847
     10          6           0      -11.280786   -0.179823   -0.243318
     11          6           0       13.267426   -0.400027   -0.990872
     12          6           0      -12.710051    1.996474   -0.276690
     13          6           0       11.900237    0.223231   -0.934149
     14          6           0      -11.500942    1.131780   -0.725435
     15          6           0       10.781386   -1.090190    2.406067
     16          6           0       10.503299   -2.722293    0.520945
     17          6           0      -11.810665   -1.224437    2.041240
     18          6           0      -12.647614   -2.351639    0.105011
     19          6           0        9.564020    0.322534    0.026705
     20          6           0      -10.073947   -0.949882   -0.492175
     21          6           0       11.659331    1.164062   -2.011770
     22          6           0      -10.580415    1.706856   -1.618248
     23          6           0        9.322255    1.714472   -0.001338
     24          6           0       -8.818672   -0.490889   -0.406718
     25          6           0        8.098412    2.299228    0.243079
     26          6           0       -7.631150   -1.341183   -0.515197
     27          6           0        8.000665    3.735277    0.644042
     28          6           0       -7.764197   -2.770413   -0.956159
     29          6           0        6.906796    1.499912    0.059919
     30          6           0       -6.391093   -0.636657   -0.452011
     31          6           0        5.635608    1.996346    0.138510
     32          6           0       -5.061182   -1.181458   -0.520529
     33          6           0        4.429440    1.244839   -0.141363
     34          6           0       -3.909728   -0.371865   -0.342702
     35          6           0        3.097324    1.581812    0.098577
     36          6           0       -2.645840   -0.920627   -0.411609
     37          6           0        2.600816    2.916379    0.466494
     38          6           0       -2.403816   -2.344767   -0.932073
     39          6           0        2.102062    0.537288    0.008297
     40          6           0       -1.512436   -0.004258   -0.189017
     41          6           0        0.739800    0.688125    0.140936
     42          6           0       -0.250802   -0.188421   -0.320422
     43          1           0       13.040579   -0.862540    1.811900
     44          1           0       12.984732   -2.378354    1.783924
     45          1           0      -14.133176   -0.447342    1.570714
     46          1           0      -14.396949   -0.410193   -0.174293
     47          1           0       12.772900   -2.400571   -0.901631
     48          1           0      -12.757661    1.382733    1.803549
     49          1           0       14.084924    0.141295   -0.321412
     50          1           0       13.742263   -0.389307   -2.005629
     51          1           0      -13.309427    2.227042   -1.217266
     52          1           0      -12.315841    2.997345    0.073078
     53          1           0       11.210540   -1.947391    2.923136
     54          1           0        9.689164   -0.920860    2.462429
     55          1           0       11.301472   -0.304472    3.025987
     56          1           0       10.880050   -3.000723   -0.298775
     57          1           0       10.710933   -3.663705    1.449909
     58          1           0        9.448261   -2.525539    0.596048
     59          1           0      -11.400920   -0.241493    2.644140
     60          1           0      -10.837275   -1.844407    2.074002
     61          1           0      -12.581008   -1.678027    2.701147
     62          1           0      -13.451423   -2.757316    0.648986
     63          1           0      -11.833280   -3.168774    0.404898
     64          1           0      -12.936151   -2.451898   -0.909941
     65          1           0        8.810574   -0.483368    0.067911
     66          1           0      -10.140298   -1.981614   -0.693314
     67          1           0       10.614139    1.367027   -2.301133
     68          1           0       12.233012    2.181850   -1.688994
     69          1           0       12.108307    0.633719   -3.004012
     70          1           0      -10.937229    2.553748   -2.377250
     71          1           0       -9.997941    0.926839   -2.206615
     72          1           0       -9.716437    2.128347   -0.998669
     73          1           0       14.884406   -2.696820    0.249732
     74          1           0      -14.975137    2.278031    1.980325
     75          1           0       10.227253    2.401338    0.083882
     76          1           0       -8.704143    0.589019   -0.069730
     77          1           0        9.003299    4.113217    0.624459
     78          1           0        7.399825    4.506659    0.023347
     79          1           0        7.462900    3.837927    1.536701
     80          1           0       -8.351315   -3.422679   -0.425020
     81          1           0       -8.308791   -2.848222   -1.912153
     82          1           0       -6.836434   -3.275740   -0.877109
     83          1           0        6.848849    0.609553   -0.221935
     84          1           0       -6.658395    0.526868   -0.233070
     85          1           0        5.361960    3.015227    0.726390
     86          1           0       -4.882202   -2.205057   -0.697737
     87          1           0        4.417515    0.176227   -0.525165
     88          1           0       -4.048405    0.757023   -0.266896
     89          1           0        2.774306    3.046122    1.543240
     90          1           0        1.472449    3.094157    0.182265
     91          1           0        3.354170    3.647324   -0.029888
     92          1           0       -2.523119   -3.228549   -0.180364
     93          1           0       -3.208274   -2.660162   -1.767500
     94          1           0       -1.431226   -2.324861   -1.217006
     95          1           0        2.200998   -0.578949   -0.267833
     96          1           0       -1.775053    1.011435    0.070457
     97          1           0        0.624336    1.724770    0.474511
     98          1           0       -0.031561   -1.187690   -0.760513
 ---------------------------------------------------------------------

 SCF Done:  E(RCAM-B3LYP) =  -1706.93468143     A.U. after   18 cycles

 Excitation energies and oscillator strengths:

 Excited State   1:      Singlet-A      1.5053 eV  823.64 nm  f=3.5755  <S**2>=0.000
     155 ->158        -0.12036
     156 ->157         0.71482
     156 <-157        -0.17488
 This state for optimization and/or second-order correction.
 Total Energy, E(TD-HF/TD-DFT) =  -1706.87936165
 Copying the excited state density for this state as the 1-particle RhoCI density.

 The electronic state is 1-A.
 Alpha  occ. eigenvalues --  -19.22374 -19.20682 -10.30837 -10.30763 -10.27894
 Alpha  occ. eigenvalues --  -10.27871 -10.27734 -10.27727 -10.27709 -10.27626
 Alpha  occ. eigenvalues --  -10.27597 -10.27546 -10.27499 -10.27017 -10.26983
 Alpha  occ. eigenvalues --  -10.26973 -10.26924 -10.26838 -10.26787 -10.26705
 Alpha  occ. eigenvalues --  -10.26429 -10.26401 -10.26334 -10.26325 -10.26242
 Alpha  occ. eigenvalues --  -10.25943 -10.25934 -10.25889 -10.25842 -10.25739
 Alpha  occ. eigenvalues --  -10.25712 -10.25695 -10.25367 -10.25320 -10.25308
 Alpha  occ. eigenvalues --  -10.24677 -10.24630 -10.24576 -10.24524 -10.24427
 Alpha  occ. eigenvalues --  -10.24341 -10.24314  -1.13956  -1.03905  -0.93545
 Alpha  occ. eigenvalues --   -0.92475  -0.92384  -0.91661  -0.90644  -0.89659
 Alpha  occ. eigenvalues --   -0.88276  -0.87522  -0.86945  -0.85545  -0.84439
 Alpha  occ. eigenvalues --   -0.83485  -0.81917  -0.80452  -0.80267  -0.79205
 Alpha  occ. eigenvalues --   -0.77214  -0.76843  -0.76733  -0.76002  -0.75815
 Alpha  occ. eigenvalues --   -0.75534  -0.75098  -0.74442  -0.72001  -0.70494
 Alpha  occ. eigenvalues --   -0.68840  -0.66408  -0.65849  -0.64528  -0.63189
 Alpha  occ. eigenvalues --   -0.62942  -0.62024  -0.61635  -0.60880  -0.60505
 Alpha  occ. eigenvalues --   -0.59942  -0.59472  -0.57997  -0.57135  -0.56783
 Alpha  occ. eigenvalues --   -0.56286  -0.55282  -0.54725  -0.54326  -0.54013
 Alpha  occ. eigenvalues --   -0.53630  -0.53080  -0.52268  -0.51801  -0.51660
 Alpha  occ. eigenvalues --   -0.50619  -0.50155  -0.49630  -0.49320  -0.49000
 Alpha  occ. eigenvalues --   -0.48623  -0.48613  -0.48536  -0.48043  -0.47624
 Alpha  occ. eigenvalues --   -0.47506  -0.47304  -0.47035  -0.46809  -0.46179
 Alpha  occ. eigenvalues --   -0.45691  -0.45653  -0.45478  -0.45192  -0.45039
 Alpha  occ. eigenvalues --   -0.44991  -0.44438  -0.44298  -0.44203  -0.43780
 Alpha  occ. eigenvalues --   -0.42795  -0.42620  -0.42146  -0.41927  -0.41871
 Alpha  occ. eigenvalues --   -0.41592  -0.40990  -0.40855  -0.40805  -0.40575
 Alpha  occ. eigenvalues --   -0.40255  -0.40153  -0.40048  -0.39549  -0.39127
 Alpha  occ. eigenvalues --   -0.38895  -0.38599  -0.38274  -0.38178  -0.38017
 Alpha  occ. eigenvalues --   -0.37730  -0.37549  -0.37262  -0.37063  -0.36143
 Alpha  occ. eigenvalues --   -0.35410  -0.34516  -0.33958  -0.32444  -0.31871
 Alpha  occ. eigenvalues --   -0.31154  -0.29197  -0.27656  -0.25301  -0.22582
 Alpha  occ. eigenvalues --   -0.16912
 Alpha virt. eigenvalues --   -0.08142  -0.01729   0.02223   0.05582   0.07279
 Alpha virt. eigenvalues --    0.08933   0.10266   0.11199   0.11607   0.12145
 Alpha virt. eigenvalues --    0.12536   0.13017   0.13125   0.13225   0.13362

 Mulliken charges:
               1
     1  O   -0.525175
     2  O   -0.584292
     3  C    0.005038
     4  C   -0.025937
     5  C   -0.233807
     6  C   -0.150405
     7  C    0.187780
     8  C    0.130593
     9  C    0.020086
    10  C    0.054301
    11  C   -0.209549
    12  C   -0.190359
    13  C    0.085224
    14  C    0.070579
    15  C   -0.303134
    16  C   -0.260216
    17  C   -0.300790
    18  C   -0.307101
    19  C   -0.117816
    20  C   -0.137976
    21  C   -0.351945
    22  C   -0.389544
    23  C   -0.122119
    24  C   -0.093197
    25  C    0.093018
    26  C    0.095549
    27  C   -0.372488
    28  C   -0.381138
    29  C   -0.051030
    30  C   -0.120309
    31  C   -0.107015
    32  C   -0.110282
    33  C   -0.123190
    34  C   -0.098177
    35  C    0.106153
    36  C    0.083851
    37  C   -0.385823
    38  C   -0.357369
    39  C   -0.121046
    40  C   -0.091710
    41  C   -0.082528
    42  C   -0.087053
    43  H    0.097084
    44  H    0.072893
    45  H    0.095865
    46  H    0.110086
    47  H    0.064595
    48  H    0.093782
    49  H    0.099433
    50  H    0.103508
    51  H    0.120330
    52  H    0.107052
    53  H    0.098218
    54  H    0.104437
    55  H    0.098979
    56  H    0.117749
    57  H    0.039270
    58  H    0.107020
    59  H    0.069563
    60  H    0.108335
    61  H    0.100292
    62  H    0.106167
    63  H    0.078622
    64  H    0.109507
    65  H    0.103610
    66  H    0.079275
    67  H    0.125311
    68  H    0.101392
    69  H    0.088421
    70  H    0.091209
    71  H    0.126175
    72  H    0.108280
    73  H    0.308367
    74  H    0.297159
    75  H    0.090687
    76  H    0.079049
    77  H    0.110277
    78  H    0.111718
    79  H    0.137224
    80  H    0.125608
    81  H    0.127542
    82  H    0.110597
    83  H    0.055593
    84  H    0.073716
    85  H    0.065301
    86  H    0.086960
    87  H    0.082322
    88  H    0.089496
    89  H    0.135124
    90  H    0.119238
    91  H    0.111797
    92  H    0.111650
    93  H    0.107455
    94  H    0.116676
    95  H    0.071590
    96  H    0.074418
    97  H    0.059859
    98  H    0.074464
 Sum of Mulliken charges =  -0.00000

 Dipole moment (field-independent basis, Debye):
    X=              2.3393    Y=             -1.2628    Z=              2.3020  Tot=              3.5165
 Quadrupole moment (field-independent basis, Debye-Ang):
   XX=           -273.3371   YY=           -242.0173   ZZ=           -260.3152
   XY=              5.0446   XZ=             -0.8792   YZ=              4.9774

 Normal termination of Gaussian 16 at Mon Jul 15 01:27:25 2019.
