 Gaussian 16, Revision A.03,
 Gaussian 16:  ES64L-G16RevA.03 25-Dec-2016

 -------------------------------------
 # td=(NStates=1) CAM-B3LYP/6-31G(d,p)
 -------------------------------------

 --
 TD
 --
 Symbolic Z-matrix:
 Charge =  0 Multiplicity = 1

                         Standard orientation:
 ---------------------------------------------------------------------
 Center     Atomic      Atomic             Coordinates (Angstroms)
 Number     Number       Type             X           Y           Z
 ---------------------------------------------------------------------
      1          8           0       14.798752   -2.208630   -0.363668
      2          8           0      -14.820650    2.066973    0.883800
      3          6           0       11.310715   -1.433562    1.052053
      4          6           0      -12.449948   -0.982366    0.626957
      5          6           0       12.724237   -1.764285    1.008141
      6          6           0      -13.744233   -0.238194    0.573577
      7          6           0       13.342239   -1.988296   -0.367348
      8          6           0      -13.526882    1.257875    0.858809
      9          6           0       11.015121   -0.219832    0.126239
     10          6           0      -11.292304   -0.261720   -0.184263
     11          6           0       13.187273   -0.699112   -1.212491
     12          6           0      -12.747262    1.836331   -0.325703
     13          6           0       11.820498    0.074078   -0.962447
     14          6           0      -11.474909    1.026396   -0.591312
     15          6           0       10.749840   -1.040049    2.449871
     16          6           0       10.402680   -2.567228    0.673998
     17          6           0      -12.023231   -1.202484    2.063142
     18          6           0      -12.706637   -2.303082   -0.161336
     19          6           0        9.678783    0.445260    0.261531
     20          6           0      -10.058310   -1.012280   -0.357466
     21          6           0       11.522945    1.018850   -2.048159
     22          6           0      -10.596871    1.612194   -1.620936
     23          6           0        9.421242    1.883403    0.054571
     24          6           0       -8.888248   -0.449966   -0.209519
     25          6           0        8.103255    2.410840    0.078876
     26          6           0       -7.571784   -1.235156   -0.508487
     27          6           0        8.097027    3.929105    0.408976
     28          6           0       -7.681866   -2.624561   -1.000800
     29          6           0        6.986899    1.693802    0.057102
     30          6           0       -6.403779   -0.622878   -0.142695
     31          6           0        5.604724    2.084836    0.185064
     32          6           0       -5.055039   -1.117908   -0.390979
     33          6           0        4.504792    1.259262    0.049898
     34          6           0       -3.896199   -0.413426   -0.195984
     35          6           0        3.192526    1.689452    0.218022
     36          6           0       -2.587426   -0.924268   -0.470942
     37          6           0        2.860169    3.108742    0.421281
     38          6           0       -2.413594   -2.333925   -0.911318
     39          6           0        2.232000    0.696203   -0.051719
     40          6           0       -1.569646   -0.027570   -0.171463
     41          6           0        0.761148    0.796465   -0.085068
     42          6           0       -0.175944   -0.296184   -0.152768
     43          1           0       13.264775   -0.992681    1.751750
     44          1           0       13.034936   -2.647051    1.569896
     45          1           0      -14.362631   -0.681856    1.164279
     46          1           0      -14.305745   -0.235503   -0.491149
     47          1           0       12.837209   -2.864580   -0.945237
     48          1           0      -13.141415    1.596718    1.799119
     49          1           0       13.890114   -0.050406   -0.754350
     50          1           0       13.167328   -0.936988   -2.284711
     51          1           0      -13.399875    1.721133   -1.266939
     52          1           0      -12.420434    2.902985   -0.357680
     53          1           0       10.859892   -1.982176    3.107499
     54          1           0        9.723051   -0.898980    2.237046
     55          1           0       11.383526   -0.035811    2.846361
     56          1           0       10.645951   -3.052542   -0.384458
     57          1           0       10.627295   -3.247176    1.379028
     58          1           0        9.188006   -2.619182    0.691307
     59          1           0      -11.957072   -0.211444    2.493555
     60          1           0      -10.961712   -1.646597    2.048716
     61          1           0      -12.780980   -1.955330    2.424392
     62          1           0      -13.672816   -2.772629    0.021410
     63          1           0      -11.777480   -2.979173   -0.072651
     64          1           0      -12.581167   -2.174876   -1.369664
     65          1           0        8.790029   -0.076444    0.595000
     66          1           0      -10.109395   -2.020384   -0.525747
     67          1           0       10.486905    1.501252   -2.103181
     68          1           0       12.390196    2.030578   -2.052171
     69          1           0       11.447897    0.543362   -3.092737
     70          1           0      -11.155286    2.246724   -2.436339
     71          1           0       -9.827755    0.987880   -1.923641
     72          1           0       -9.773853    2.392253   -1.090692
     73          1           0       14.997836   -2.822335    0.411333
     74          1           0      -15.386652    1.696348    1.531950
     75          1           0       10.414835    2.436519   -0.048014
     76          1           0       -8.585325    0.500059    0.041744
     77          1           0        9.088101    4.418663    0.522332
     78          1           0        7.363821    4.432580   -0.197702
     79          1           0        7.649066    4.184188    1.426544
     80          1           0       -8.544621   -3.110762   -0.305745
     81          1           0       -8.257140   -2.661831   -1.975322
     82          1           0       -6.835498   -3.040857   -1.064504
     83          1           0        7.093135    0.715622   -0.349223
     84          1           0       -6.517370    0.614381    0.016931
     85          1           0        5.501995    3.150104    0.319822
     86          1           0       -4.778050   -2.240206   -0.597016
     87          1           0        4.653884    0.193081   -0.053792
     88          1           0       -4.182419    0.596731    0.367218
     89          1           0        3.773247    3.477342    1.216850
     90          1           0        1.812224    3.234674    1.019365
     91          1           0        2.904786    3.805068   -0.590318
     92          1           0       -2.680497   -3.124341   -0.217176
     93          1           0       -2.798743   -2.377253   -1.880704
     94          1           0       -1.358259   -2.539385   -0.970448
     95          1           0        2.671833   -0.341198   -0.090809
     96          1           0       -1.668050    1.018503   -0.062260
     97          1           0        0.303538    1.953738    0.184609
     98          1           0        0.106004   -1.265816   -0.064157
 ---------------------------------------------------------------------

 SCF Done:  E(RCAM-B3LYP) =  -1706.92672820     A.U. after   15 cycles

 Excitation energies and oscillator strengths:

 Excited State   1:      Singlet-A      2.2558 eV  549.62 nm  f=3.4115  <S**2>=0.000
     155 ->158        -0.16504
     156 ->157         0.68506
 This state for optimization and/or second-order correction.
 Total Energy, E(TD-HF/TD-DFT) =  -1706.84382780
 Copying the excited state density for this state as the 1-particle RhoCI density.

 The electronic state is 1-A.
 Alpha  occ. eigenvalues --  -19.21870 -19.19448 -10.31845 -10.30784 -10.29375
 Alpha  occ. eigenvalues --  -10.29218 -10.27839 -10.27727 -10.27653 -10.27588
 Alpha  occ. eigenvalues --  -10.27552 -10.27449 -10.27390 -10.27324 -10.27260
 Alpha  occ. eigenvalues --  -10.27191 -10.27042 -10.26992 -10.26895 -10.26800
 Alpha  occ. eigenvalues --  -10.26794 -10.26606 -10.26583 -10.26544 -10.26531
 Alpha  occ. eigenvalues --  -10.26214 -10.26186 -10.26043 -10.26008 -10.25921
 Alpha  occ. eigenvalues --  -10.25805 -10.25775 -10.25684 -10.25605 -10.25601
 Alpha  occ. eigenvalues --  -10.25547 -10.25489 -10.25476 -10.25444 -10.25119
 Alpha  occ. eigenvalues --  -10.25057 -10.24726  -1.07584  -1.06274  -0.94166
 Alpha  occ. eigenvalues --   -0.93928  -0.92088  -0.91701  -0.90467  -0.90087
 Alpha  occ. eigenvalues --   -0.87538  -0.87295  -0.86458  -0.85333  -0.84374
 Alpha  occ. eigenvalues --   -0.82802  -0.81856  -0.80406  -0.79270  -0.78187
 Alpha  occ. eigenvalues --   -0.76980  -0.76359  -0.76195  -0.75772  -0.75749
 Alpha  occ. eigenvalues --   -0.75398  -0.74828  -0.74600  -0.73334  -0.70483
 Alpha  occ. eigenvalues --   -0.68685  -0.67661  -0.66102  -0.64850  -0.63761
 Alpha  occ. eigenvalues --   -0.63339  -0.62438  -0.62075  -0.60168  -0.59668
 Alpha  occ. eigenvalues --   -0.58617  -0.58267  -0.57403  -0.57122  -0.56233
 Alpha  occ. eigenvalues --   -0.55681  -0.55348  -0.54638  -0.54326  -0.53899
 Alpha  occ. eigenvalues --   -0.53348  -0.52511  -0.52387  -0.51971  -0.51299
 Alpha  occ. eigenvalues --   -0.51156  -0.50447  -0.50170  -0.49913  -0.48949
 Alpha  occ. eigenvalues --   -0.48759  -0.48113  -0.47989  -0.47734  -0.47584
 Alpha  occ. eigenvalues --   -0.47337  -0.47128  -0.46898  -0.46748  -0.46383
 Alpha  occ. eigenvalues --   -0.46007  -0.45856  -0.45660  -0.45211  -0.44666
 Alpha  occ. eigenvalues --   -0.44517  -0.43890  -0.43581  -0.43453  -0.43373
 Alpha  occ. eigenvalues --   -0.43107  -0.42921  -0.42682  -0.41867  -0.41813
 Alpha  occ. eigenvalues --   -0.41640  -0.41449  -0.41008  -0.40590  -0.40545
 Alpha  occ. eigenvalues --   -0.40168  -0.40009  -0.39606  -0.39155  -0.39083
 Alpha  occ. eigenvalues --   -0.38999  -0.38455  -0.38355  -0.38149  -0.37743
 Alpha  occ. eigenvalues --   -0.37487  -0.37211  -0.36746  -0.36335  -0.35909
 Alpha  occ. eigenvalues --   -0.35685  -0.34648  -0.33813  -0.32897  -0.32094
 Alpha  occ. eigenvalues --   -0.31851  -0.29985  -0.27851  -0.25918  -0.23300
 Alpha  occ. eigenvalues --   -0.19670
 Alpha virt. eigenvalues --   -0.05588  -0.01031   0.01852   0.05367   0.07420
 Alpha virt. eigenvalues --    0.09024   0.10726   0.11337   0.11695   0.11746
 Alpha virt. eigenvalues --    0.11899   0.12234   0.12794   0.12837   0.13338

 Mulliken charges:
               1
     1  O   -0.567634
     2  O   -0.589288
     3  C   -0.020472
     4  C   -0.009726
     5  C   -0.205668
     6  C   -0.170013
     7  C    0.164267
     8  C    0.144442
     9  C    0.077687
    10  C    0.053867
    11  C   -0.190728
    12  C   -0.209317
    13  C    0.035275
    14  C    0.054575
    15  C   -0.272191
    16  C   -0.293297
    17  C   -0.282946
    18  C   -0.314847
    19  C   -0.136582
    20  C   -0.120338
    21  C   -0.351349
    22  C   -0.355161
    23  C   -0.145919
    24  C   -0.053420
    25  C    0.118096
    26  C    0.098925
    27  C   -0.385281
    28  C   -0.339965
    29  C   -0.134917
    30  C   -0.153932
    31  C   -0.104023
    32  C   -0.110236
    33  C   -0.094871
    34  C   -0.088917
    35  C    0.144883
    36  C    0.069244
    37  C   -0.352839
    38  C   -0.380911
    39  C   -0.133536
    40  C   -0.097375
    41  C   -0.115492
    42  C   -0.075696
    43  H    0.092745
    44  H    0.079403
    45  H    0.086897
    46  H    0.095744
    47  H    0.082787
    48  H    0.102695
    49  H    0.139066
    50  H    0.112740
    51  H    0.116476
    52  H    0.111612
    53  H    0.085434
    54  H    0.120715
    55  H    0.083344
    56  H    0.085745
    57  H    0.114358
    58  H    0.091122
    59  H    0.111568
    60  H    0.102776
    61  H    0.095960
    62  H    0.105466
    63  H    0.089496
    64  H    0.090392
    65  H    0.096361
    66  H    0.071884
    67  H    0.125387
    68  H    0.068690
    69  H    0.104587
    70  H    0.103685
    71  H    0.130378
    72  H    0.063749
    73  H    0.303859
    74  H    0.293659
    75  H    0.104403
    76  H    0.079884
    77  H    0.114370
    78  H    0.121745
    79  H    0.111491
    80  H    0.097905
    81  H    0.120776
    82  H    0.108647
    83  H    0.077949
    84  H    0.066242
    85  H    0.077800
    86  H    0.079412
    87  H    0.083502
    88  H    0.080189
    89  H    0.090494
    90  H    0.102774
    91  H    0.117382
    92  H    0.130652
    93  H    0.143900
    94  H    0.110449
    95  H    0.078955
    96  H    0.084534
    97  H    0.068903
    98  H    0.084490
 Sum of Mulliken charges =  -0.00000

 Dipole moment (field-independent basis, Debye):
    X=              0.3185    Y=             -3.0391    Z=              1.6300  Tot=              3.4633
 Quadrupole moment (field-independent basis, Debye-Ang):
   XX=           -281.5682   YY=           -247.6276   ZZ=           -263.0153
   XY=             15.3088   XZ=              7.4712   YZ=             -0.2869

 Normal termination of Gaussian 16 at Fri Jul 12 00:40:40 2019.
