 Gaussian 16, Revision A.03,
 Gaussian 16:  ES64L-G16RevA.03 25-Dec-2016

 -------------------------------------
 # td=(NStates=1) CAM-B3LYP/6-31G(d,p)
 -------------------------------------

 --
 TD
 --
 Symbolic Z-matrix:
 Charge =  0 Multiplicity = 1

                         Standard orientation:
 ---------------------------------------------------------------------
 Center     Atomic      Atomic             Coordinates (Angstroms)
 Number     Number       Type             X           Y           Z
 ---------------------------------------------------------------------
      1          8           0       14.761360   -2.216418   -0.470665
      2          8           0      -14.742599    1.896767    0.704513
      3          6           0       11.216520   -1.544293    0.909335
      4          6           0      -12.405260   -1.047914    0.511534
      5          6           0       12.701934   -1.916484    0.939800
      6          6           0      -13.761988   -0.221447    0.482985
      7          6           0       13.318729   -1.877521   -0.467232
      8          6           0      -13.485238    1.214980    0.848815
      9          6           0       10.977347   -0.278998   -0.069017
     10          6           0      -11.274008   -0.300568   -0.170409
     11          6           0       13.251088   -0.451779   -1.053883
     12          6           0      -12.647167    1.836485   -0.338331
     13          6           0       11.923448    0.097308   -0.949255
     14          6           0      -11.461077    1.025947   -0.653818
     15          6           0       10.869676   -1.004529    2.328731
     16          6           0       10.430745   -2.806453    0.455718
     17          6           0      -12.018225   -1.421212    1.988903
     18          6           0      -12.673590   -2.447073   -0.250289
     19          6           0        9.645623    0.296118    0.049704
     20          6           0      -10.067462   -1.062198   -0.356436
     21          6           0       11.708626    1.229629   -1.927687
     22          6           0      -10.513479    1.743599   -1.555259
     23          6           0        9.345907    1.553814    0.124477
     24          6           0       -8.771896   -0.452085   -0.312379
     25          6           0        8.070293    2.260371    0.237718
     26          6           0       -7.611642   -1.231292   -0.520607
     27          6           0        7.984474    3.723517    0.525585
     28          6           0       -7.658103   -2.679551   -0.785434
     29          6           0        6.850585    1.472758    0.116890
     30          6           0       -6.373739   -0.634152   -0.284731
     31          6           0        5.583703    2.042385    0.261048
     32          6           0       -5.066386   -1.130984   -0.404541
     33          6           0        4.441786    1.271141    0.077740
     34          6           0       -3.929308   -0.433807   -0.215918
     35          6           0        3.064626    1.763169    0.271185
     36          6           0       -2.550436   -0.768900   -0.227269
     37          6           0        2.745260    3.211114    0.595201
     38          6           0       -2.178925   -2.067059   -0.722299
     39          6           0        2.085982    0.818503    0.001973
     40          6           0       -1.593684    0.359427   -0.048922
     41          6           0        0.647248    1.124201    0.073784
     42          6           0       -0.252565    0.157110   -0.200136
     43          1           0       13.225110   -1.287807    1.557975
     44          1           0       12.583869   -2.881604    1.398104
     45          1           0      -14.329578   -0.700343    1.218126
     46          1           0      -14.343025   -0.138447   -0.411879
     47          1           0       12.909218   -2.511713   -0.994716
     48          1           0      -13.124913    1.503447    1.836226
     49          1           0       13.969041    0.256020   -0.547932
     50          1           0       13.740553   -0.250767   -1.991725
     51          1           0      -13.270537    2.146386   -1.247201
     52          1           0      -12.434360    2.779640   -0.077112
     53          1           0       11.096180   -1.966802    2.988436
     54          1           0        9.879626   -0.852653    2.352375
     55          1           0       11.453920   -0.142583    2.662610
     56          1           0       10.759728   -3.165123   -0.513025
     57          1           0       10.808022   -3.579124    1.304279
     58          1           0        9.283734   -2.775551    0.432136
     59          1           0      -11.830175   -0.593181    2.584866
     60          1           0      -10.967834   -2.017870    2.270060
     61          1           0      -12.888685   -1.917647    2.406000
     62          1           0      -13.373347   -2.892143    0.337447
     63          1           0      -11.853370   -3.130047   -0.191590
     64          1           0      -12.790130   -2.368469   -1.197379
     65          1           0        8.959208   -0.473306    0.407906
     66          1           0      -10.221073   -2.151446   -0.744023
     67          1           0       10.723894    1.543012   -2.027817
     68          1           0       12.120730    2.078357   -1.496815
     69          1           0       12.099592    1.340434   -3.056048
     70          1           0      -11.140366    2.264017   -2.486744
     71          1           0       -9.606490    1.061787   -2.143561
     72          1           0      -10.216971    2.655452   -1.160999
     73          1           0       14.923302   -3.190135   -0.144044
     74          1           0      -15.663062    1.513390    1.120479
     75          1           0       10.133917    2.320121   -0.027662
     76          1           0       -8.542427    0.587069   -0.160107
     77          1           0        8.931119    4.177462    0.778636
     78          1           0        7.627847    4.403301   -0.173497
     79          1           0        7.464214    3.798025    1.546037
     80          1           0       -8.243437   -3.173777   -0.026766
     81          1           0       -8.213994   -3.021383   -1.815660
     82          1           0       -6.790733   -3.314250   -0.959712
     83          1           0        6.912378    0.412180   -0.163426
     84          1           0       -6.481187    0.365087   -0.095412
     85          1           0        5.423793    3.081238    0.542401
     86          1           0       -4.938794   -2.190166   -0.824924
     87          1           0        4.376760    0.203287   -0.348546
     88          1           0       -4.141016    0.647334    0.125736
     89          1           0        2.972865    3.459674    1.607493
     90          1           0        1.691568    3.370100    0.648934
     91          1           0        3.439270    3.873026    0.112764
     92          1           0       -2.711738   -2.833345   -0.069973
     93          1           0       -2.425330   -2.066458   -1.888673
     94          1           0       -0.990598   -2.575770   -0.661687
     95          1           0        2.421783   -0.175123   -0.235623
     96          1           0       -2.022143    1.254044    0.296450
     97          1           0        0.147089    2.011197    0.453227
     98          1           0       -0.089645   -0.750512   -0.698870
 ---------------------------------------------------------------------

 SCF Done:  E(RCAM-B3LYP) =  -1706.95797451     A.U. after   15 cycles

 Excitation energies and oscillator strengths:

 Excited State   1:      Singlet-A      2.1070 eV  588.45 nm  f=3.8254  <S**2>=0.000
     155 ->158        -0.17055
     156 ->157         0.68466
 This state for optimization and/or second-order correction.
 Total Energy, E(TD-HF/TD-DFT) =  -1706.88054443
 Copying the excited state density for this state as the 1-particle RhoCI density.

 The electronic state is 1-A.
 Alpha  occ. eigenvalues --  -19.20441 -19.20092 -10.30383 -10.28964 -10.28429
 Alpha  occ. eigenvalues --  -10.27946 -10.27817 -10.27649 -10.27648 -10.27401
 Alpha  occ. eigenvalues --  -10.27018 -10.26979 -10.26841 -10.26781 -10.26694
 Alpha  occ. eigenvalues --  -10.26631 -10.26506 -10.26431 -10.26165 -10.26158
 Alpha  occ. eigenvalues --  -10.26115 -10.26088 -10.26056 -10.25969 -10.25922
 Alpha  occ. eigenvalues --  -10.25831 -10.25599 -10.25459 -10.25316 -10.25229
 Alpha  occ. eigenvalues --  -10.25217 -10.25104 -10.24917 -10.24912 -10.24752
 Alpha  occ. eigenvalues --  -10.24627 -10.24466 -10.24447 -10.24412 -10.23907
 Alpha  occ. eigenvalues --  -10.23748 -10.22331  -1.05999  -1.05496  -0.93369
 Alpha  occ. eigenvalues --   -0.92501  -0.92042  -0.91094  -0.90425  -0.89494
 Alpha  occ. eigenvalues --   -0.87674  -0.87343  -0.86493  -0.85603  -0.84276
 Alpha  occ. eigenvalues --   -0.82886  -0.82001  -0.80411  -0.79243  -0.78654
 Alpha  occ. eigenvalues --   -0.76895  -0.76627  -0.76411  -0.76300  -0.76016
 Alpha  occ. eigenvalues --   -0.75388  -0.75338  -0.74893  -0.72776  -0.70467
 Alpha  occ. eigenvalues --   -0.69505  -0.67747  -0.66845  -0.65204  -0.64185
 Alpha  occ. eigenvalues --   -0.63569  -0.62570  -0.62180  -0.60240  -0.59916
 Alpha  occ. eigenvalues --   -0.59166  -0.58689  -0.58143  -0.57346  -0.56258
 Alpha  occ. eigenvalues --   -0.55832  -0.55450  -0.55038  -0.54293  -0.53728
 Alpha  occ. eigenvalues --   -0.53000  -0.52315  -0.51819  -0.51233  -0.50894
 Alpha  occ. eigenvalues --   -0.50581  -0.50117  -0.49743  -0.49483  -0.49275
 Alpha  occ. eigenvalues --   -0.49006  -0.48477  -0.48358  -0.48105  -0.47513
 Alpha  occ. eigenvalues --   -0.47382  -0.47194  -0.46891  -0.46519  -0.46256
 Alpha  occ. eigenvalues --   -0.46009  -0.45705  -0.45598  -0.45236  -0.44836
 Alpha  occ. eigenvalues --   -0.44588  -0.44249  -0.43846  -0.43504  -0.43484
 Alpha  occ. eigenvalues --   -0.42961  -0.42654  -0.42585  -0.42285  -0.41962
 Alpha  occ. eigenvalues --   -0.41818  -0.41655  -0.41182  -0.41120  -0.40474
 Alpha  occ. eigenvalues --   -0.40366  -0.39968  -0.39905  -0.39569  -0.39211
 Alpha  occ. eigenvalues --   -0.38945  -0.38660  -0.38249  -0.38108  -0.37990
 Alpha  occ. eigenvalues --   -0.37674  -0.37517  -0.36642  -0.36536  -0.36089
 Alpha  occ. eigenvalues --   -0.34552  -0.33980  -0.33574  -0.31904  -0.31693
 Alpha  occ. eigenvalues --   -0.31416  -0.29136  -0.27641  -0.25186  -0.22198
 Alpha  occ. eigenvalues --   -0.18807
 Alpha virt. eigenvalues --   -0.05664  -0.01450   0.02172   0.06138   0.07900
 Alpha virt. eigenvalues --    0.09759   0.10607   0.11594   0.11765   0.12101
 Alpha virt. eigenvalues --    0.12338   0.13185   0.13236   0.13655   0.14257

 Mulliken charges:
               1
     1  O   -0.595844
     2  O   -0.605756
     3  C   -0.049185
     4  C   -0.050876
     5  C   -0.181940
     6  C   -0.178558
     7  C    0.208958
     8  C    0.173941
     9  C    0.037779
    10  C    0.071660
    11  C   -0.238352
    12  C   -0.224696
    13  C    0.075246
    14  C    0.079762
    15  C   -0.278906
    16  C   -0.299021
    17  C   -0.304846
    18  C   -0.299022
    19  C   -0.110288
    20  C   -0.155051
    21  C   -0.390351
    22  C   -0.364017
    23  C   -0.082959
    24  C   -0.115051
    25  C    0.058942
    26  C    0.152003
    27  C   -0.386173
    28  C   -0.386131
    29  C   -0.106858
    30  C   -0.132898
    31  C   -0.091063
    32  C   -0.081181
    33  C   -0.120850
    34  C   -0.106962
    35  C    0.124115
    36  C    0.093560
    37  C   -0.379828
    38  C   -0.374917
    39  C   -0.143415
    40  C   -0.118899
    41  C   -0.106509
    42  C   -0.035071
    43  H    0.109143
    44  H    0.077213
    45  H    0.080949
    46  H    0.117912
    47  H    0.082755
    48  H    0.095160
    49  H    0.116613
    50  H    0.117852
    51  H    0.114767
    52  H    0.118702
    53  H    0.065689
    54  H    0.113726
    55  H    0.116676
    56  H    0.119924
    57  H    0.079939
    58  H    0.102236
    59  H    0.114044
    60  H    0.088860
    61  H    0.096543
    62  H    0.100924
    63  H    0.096689
    64  H    0.114209
    65  H    0.078156
    66  H    0.101154
    67  H    0.123340
    68  H    0.124926
    69  H    0.089734
    70  H    0.070748
    71  H    0.103630
    72  H    0.126757
    73  H    0.297975
    74  H    0.302759
    75  H    0.071526
    76  H    0.101071
    77  H    0.110341
    78  H    0.134614
    79  H    0.120769
    80  H    0.126480
    81  H    0.082219
    82  H    0.115600
    83  H    0.088710
    84  H    0.064025
    85  H    0.086816
    86  H    0.073321
    87  H    0.080427
    88  H    0.067370
    89  H    0.125369
    90  H    0.117744
    91  H    0.125414
    92  H    0.124096
    93  H    0.125328
    94  H    0.081862
    95  H    0.088775
    96  H    0.078146
    97  H    0.089979
    98  H    0.079802
 Sum of Mulliken charges =  -0.00000

 Dipole moment (field-independent basis, Debye):
    X=             -1.2021    Y=             -1.0289    Z=              1.1981  Tot=              1.9847
 Quadrupole moment (field-independent basis, Debye-Ang):
   XX=           -267.0017   YY=           -237.7968   ZZ=           -263.2819
   XY=             10.3017   XZ=             -4.1155   YZ=              3.5000

 Normal termination of Gaussian 16 at Wed Jul 10 00:23:59 2019.
