 Gaussian 16, Revision A.03,
 Gaussian 16:  ES64L-G16RevA.03 25-Dec-2016

 -------------------------------------
 # td=(NStates=1) CAM-B3LYP/6-31G(d,p)
 -------------------------------------

 --
 TD
 --
 Symbolic Z-matrix:
 Charge =  0 Multiplicity = 1

                         Standard orientation:
 ---------------------------------------------------------------------
 Center     Atomic      Atomic             Coordinates (Angstroms)
 Number     Number       Type             X           Y           Z
 ---------------------------------------------------------------------
      1          8           0       14.397341   -2.604206   -0.429946
      2          8           0      -14.797865    1.713912    1.016462
      3          6           0       11.152914   -1.473385    1.032201
      4          6           0      -12.264350   -1.147416    0.595866
      5          6           0       12.528034   -1.998086    1.094606
      6          6           0      -13.595677   -0.371544    0.734156
      7          6           0       13.094768   -2.033129   -0.349649
      8          6           0      -13.519835    1.086021    0.970785
      9          6           0       10.872548   -0.408189    0.061512
     10          6           0      -11.214624   -0.257563   -0.105526
     11          6           0       13.113478   -0.695163   -1.003334
     12          6           0      -12.808069    1.804259   -0.274125
     13          6           0       11.782509    0.048514   -0.910353
     14          6           0      -11.592217    1.020677   -0.609619
     15          6           0       10.829084   -0.963333    2.523714
     16          6           0       10.071991   -2.664782    0.680278
     17          6           0      -11.757188   -1.383787    1.938717
     18          6           0      -12.543996   -2.516943   -0.225678
     19          6           0        9.604089    0.268634    0.248648
     20          6           0       -9.926118   -0.971702   -0.413262
     21          6           0       11.598754    1.029522   -1.984993
     22          6           0      -10.693008    1.791992   -1.473447
     23          6           0        9.337874    1.663675    0.082963
     24          6           0       -8.741142   -0.478274   -0.389075
     25          6           0        8.168743    2.375986    0.256652
     26          6           0       -7.512025   -1.248416   -0.608752
     27          6           0        8.132240    3.889779    0.513329
     28          6           0       -7.583345   -2.625604   -0.887345
     29          6           0        6.963732    1.706304    0.087405
     30          6           0       -6.282060   -0.600811   -0.392015
     31          6           0        5.666183    2.168245    0.225267
     32          6           0       -5.046280   -1.171730   -0.532927
     33          6           0        4.488941    1.362051    0.054068
     34          6           0       -3.934069   -0.246653   -0.439937
     35          6           0        3.150137    1.831015    0.156970
     36          6           0       -2.497277   -0.649302   -0.517890
     37          6           0        2.981480    3.279908    0.521888
     38          6           0       -2.125557   -2.067436   -0.857132
     39          6           0        2.091667    0.950832   -0.179833
     40          6           0       -1.561883    0.373472   -0.337135
     41          6           0        0.789321    1.238503   -0.174218
     42          6           0       -0.197275    0.221376   -0.355539
     43          1           0       13.319596   -1.266743    1.633098
     44          1           0       12.466182   -3.118463    1.331745
     45          1           0      -14.002793   -0.911107    1.846999
     46          1           0      -14.425973   -0.454330    0.124459
     47          1           0       12.486221   -2.711996   -0.902489
     48          1           0      -13.050687    1.394988    1.770274
     49          1           0       14.062621    0.021897   -0.627263
     50          1           0       13.157115   -0.721086   -2.114473
     51          1           0      -13.529292    1.758797   -1.088180
     52          1           0      -12.496510    2.751240   -0.033147
     53          1           0       10.895994   -1.933663    2.944848
     54          1           0        9.876955   -0.496773    2.455232
     55          1           0       11.605438   -0.161509    2.946688
     56          1           0        9.981139   -2.911160   -0.471853
     57          1           0       10.411537   -3.512048    1.491746
     58          1           0        9.113965   -2.233230    0.722807
     59          1           0      -11.659369   -0.410213    2.604196
     60          1           0      -10.942270   -2.015887    1.961976
     61          1           0      -12.410942   -1.792547    2.505828
     62          1           0      -13.259462   -2.981587    0.186598
     63          1           0      -11.680046   -3.157987    0.044954
     64          1           0      -12.789070   -2.331135   -1.352213
     65          1           0        8.862887   -0.412116    0.519875
     66          1           0       -9.950986   -2.162556   -0.565727
     67          1           0       10.591311    1.322134   -2.201158
     68          1           0       12.221957    2.035649   -1.702636
     69          1           0       11.844830    0.688352   -2.983826
     70          1           0      -11.419908    2.408911   -2.143432
     71          1           0       -9.885458    1.254133   -1.891837
     72          1           0      -10.105711    2.516791   -0.869268
     73          1           0       14.248625   -3.523607   -0.120786
     74          1           0      -15.031027    1.522240    1.967646
     75          1           0       10.346002    2.064351    0.155545
     76          1           0       -8.758437    0.523973    0.048969
     77          1           0        9.206706    4.173055    0.120327
     78          1           0        7.502327    4.523464   -0.258764
     79          1           0        7.775601    3.946343    1.675785
     80          1           0       -8.161619   -3.088694   -0.136073
     81          1           0       -8.292951   -2.625085   -1.765686
     82          1           0       -6.659763   -2.992369   -1.305017
     83          1           0        7.002126    0.568508    0.016752
     84          1           0       -6.391770    0.681450   -0.364584
     85          1           0        5.378940    3.216370    0.374361
     86          1           0       -4.878794   -2.200152   -0.913480
     87          1           0        4.599117    0.358571   -0.329965
     88          1           0       -4.094264    0.641133   -0.157024
     89          1           0        3.371832    3.726971    1.476317
     90          1           0        2.076027    3.378178    0.242108
     91          1           0        3.526547    3.820443   -0.286441
     92          1           0       -2.347780   -2.827467    0.113611
     93          1           0       -2.648949   -2.393098   -1.780315
     94          1           0       -1.090920   -2.407418   -1.114299
     95          1           0        2.545303    0.040130   -0.478358
     96          1           0       -1.720052    1.380720   -0.105533
     97          1           0        0.164522    2.225988    0.164926
     98          1           0        0.112635   -0.893508   -0.619419
 ---------------------------------------------------------------------

 SCF Done:  E(RCAM-B3LYP) =  -1706.85289713     A.U. after   16 cycles

 Excitation energies and oscillator strengths:

 Excited State   1:      Singlet-A      1.7830 eV  695.38 nm  f=3.6829  <S**2>=0.000
     155 ->158        -0.14221
     156 ->157         0.69822
     156 <-157        -0.11682
 This state for optimization and/or second-order correction.
 Total Energy, E(TD-HF/TD-DFT) =  -1706.78737398
 Copying the excited state density for this state as the 1-particle RhoCI density.

 The electronic state is 1-A.
 Alpha  occ. eigenvalues --  -19.21363 -19.20544 -10.29364 -10.29024 -10.28718
 Alpha  occ. eigenvalues --  -10.28348 -10.27945 -10.27763 -10.27527 -10.27508
 Alpha  occ. eigenvalues --  -10.27451 -10.27227 -10.27133 -10.27080 -10.27033
 Alpha  occ. eigenvalues --  -10.26867 -10.26809 -10.26700 -10.26646 -10.26413
 Alpha  occ. eigenvalues --  -10.26300 -10.26128 -10.26109 -10.26062 -10.26038
 Alpha  occ. eigenvalues --  -10.25988 -10.25957 -10.25931 -10.25750 -10.25734
 Alpha  occ. eigenvalues --  -10.25713 -10.25651 -10.25607 -10.25524 -10.25095
 Alpha  occ. eigenvalues --  -10.24933 -10.24890 -10.24791 -10.24688 -10.24662
 Alpha  occ. eigenvalues --  -10.24144 -10.22927  -1.09463  -1.08819  -0.93868
 Alpha  occ. eigenvalues --   -0.93570  -0.92322  -0.92029  -0.90810  -0.90068
 Alpha  occ. eigenvalues --   -0.88002  -0.87275  -0.86863  -0.85694  -0.84666
 Alpha  occ. eigenvalues --   -0.83439  -0.82010  -0.81152  -0.79531  -0.79261
 Alpha  occ. eigenvalues --   -0.77808  -0.76497  -0.76325  -0.76039  -0.75872
 Alpha  occ. eigenvalues --   -0.75432  -0.75324  -0.74758  -0.72580  -0.70524
 Alpha  occ. eigenvalues --   -0.69031  -0.67564  -0.66009  -0.64342  -0.64263
 Alpha  occ. eigenvalues --   -0.63659  -0.62556  -0.61852  -0.60936  -0.59913
 Alpha  occ. eigenvalues --   -0.59389  -0.58916  -0.58389  -0.58156  -0.57134
 Alpha  occ. eigenvalues --   -0.56088  -0.54883  -0.54772  -0.54185  -0.53662
 Alpha  occ. eigenvalues --   -0.53259  -0.52883  -0.52365  -0.51758  -0.51101
 Alpha  occ. eigenvalues --   -0.50794  -0.50265  -0.49998  -0.49752  -0.49696
 Alpha  occ. eigenvalues --   -0.49462  -0.49255  -0.49012  -0.48840  -0.47969
 Alpha  occ. eigenvalues --   -0.47671  -0.47472  -0.47004  -0.46773  -0.46125
 Alpha  occ. eigenvalues --   -0.46042  -0.45910  -0.45429  -0.45179  -0.44923
 Alpha  occ. eigenvalues --   -0.44760  -0.44532  -0.44031  -0.43586  -0.43474
 Alpha  occ. eigenvalues --   -0.42734  -0.42526  -0.42212  -0.41972  -0.41774
 Alpha  occ. eigenvalues --   -0.41676  -0.41531  -0.41413  -0.40945  -0.40800
 Alpha  occ. eigenvalues --   -0.40332  -0.40135  -0.39949  -0.39401  -0.39131
 Alpha  occ. eigenvalues --   -0.39055  -0.38897  -0.38636  -0.38315  -0.38131
 Alpha  occ. eigenvalues --   -0.37752  -0.37684  -0.37121  -0.36954  -0.35912
 Alpha  occ. eigenvalues --   -0.35671  -0.34717  -0.33714  -0.32748  -0.32325
 Alpha  occ. eigenvalues --   -0.30790  -0.28996  -0.27438  -0.25463  -0.22557
 Alpha  occ. eigenvalues --   -0.17942
 Alpha virt. eigenvalues --   -0.06998  -0.01576   0.02171   0.05542   0.07303
 Alpha virt. eigenvalues --    0.09560   0.10547   0.10728   0.10899   0.12034
 Alpha virt. eigenvalues --    0.12160   0.12782   0.12935   0.13093   0.13299

 Mulliken charges:
               1
     1  O   -0.559801
     2  O   -0.554837
     3  C   -0.047697
     4  C   -0.019745
     5  C   -0.178977
     6  C   -0.170145
     7  C    0.159481
     8  C    0.146778
     9  C    0.093675
    10  C    0.044373
    11  C   -0.204561
    12  C   -0.224048
    13  C    0.037974
    14  C    0.048236
    15  C   -0.270822
    16  C   -0.312727
    17  C   -0.285706
    18  C   -0.291811
    19  C   -0.136544
    20  C   -0.126820
    21  C   -0.366759
    22  C   -0.365937
    23  C   -0.119178
    24  C   -0.077219
    25  C    0.075033
    26  C    0.085817
    27  C   -0.351466
    28  C   -0.380860
    29  C   -0.097347
    30  C   -0.103429
    31  C   -0.092906
    32  C   -0.099747
    33  C   -0.122112
    34  C   -0.084551
    35  C    0.077655
    36  C    0.092101
    37  C   -0.356239
    38  C   -0.375942
    39  C   -0.094578
    40  C   -0.099786
    41  C   -0.112462
    42  C   -0.074992
    43  H    0.101120
    44  H    0.071147
    45  H    0.018441
    46  H    0.113532
    47  H    0.081730
    48  H    0.084244
    49  H    0.087461
    50  H    0.103649
    51  H    0.126797
    52  H    0.121570
    53  H    0.101164
    54  H    0.110681
    55  H    0.092837
    56  H    0.103219
    57  H    0.091003
    58  H    0.120949
    59  H    0.085496
    60  H    0.104877
    61  H    0.108170
    62  H    0.114646
    63  H    0.089253
    64  H    0.107817
    65  H    0.075257
    66  H    0.062036
    67  H    0.128663
    68  H    0.097222
    69  H    0.111573
    70  H    0.096383
    71  H    0.124548
    72  H    0.109025
    73  H    0.299622
    74  H    0.301179
    75  H    0.091101
    76  H    0.088949
    77  H    0.103991
    78  H    0.114772
    79  H    0.123993
    80  H    0.136668
    81  H    0.122305
    82  H    0.114366
    83  H    0.072282
    84  H    0.065281
    85  H    0.076868
    86  H    0.099270
    87  H    0.069992
    88  H    0.067278
    89  H    0.127184
    90  H    0.107490
    91  H    0.116090
    92  H    0.099555
    93  H    0.123487
    94  H    0.120580
    95  H    0.090177
    96  H    0.070131
    97  H    0.090700
    98  H    0.060803
 Sum of Mulliken charges =  -0.00000

 Dipole moment (field-independent basis, Debye):
    X=             -2.3043    Y=             -1.7259    Z=              1.0365  Tot=              3.0599
 Quadrupole moment (field-independent basis, Debye-Ang):
   XX=           -308.2122   YY=           -240.9771   ZZ=           -260.3780
   XY=              9.2835   XZ=            -13.1611   YZ=              2.7196

 Normal termination of Gaussian 16 at Thu Jul 18 10:09:26 2019.
