 Gaussian 16, Revision A.03,
 Gaussian 16:  ES64L-G16RevA.03 25-Dec-2016

 -------------------------------------
 # td=(NStates=1) CAM-B3LYP/6-31G(d,p)
 -------------------------------------

 --
 TD
 --
 Symbolic Z-matrix:
 Charge =  0 Multiplicity = 1

                         Standard orientation:
 ---------------------------------------------------------------------
 Center     Atomic      Atomic             Coordinates (Angstroms)
 Number     Number       Type             X           Y           Z
 ---------------------------------------------------------------------
      1          8           0       14.833941   -2.083439   -0.198635
      2          8           0      -14.638590    2.102686    1.019387
      3          6           0       11.170855   -1.525722    0.865327
      4          6           0      -12.512896   -0.969136    0.461940
      5          6           0       12.683816   -1.860393    1.066704
      6          6           0      -13.742113   -0.148209    0.450545
      7          6           0       13.397272   -1.781831   -0.354909
      8          6           0      -13.446379    1.319159    0.845071
      9          6           0       11.053629   -0.202337   -0.028725
     10          6           0      -11.271396   -0.190780   -0.315117
     11          6           0       13.369671   -0.320993   -0.914433
     12          6           0      -12.493173    1.915369   -0.228996
     13          6           0       11.996036    0.253810   -0.920122
     14          6           0      -11.366977    1.123109   -0.576362
     15          6           0       10.591660   -1.212054    2.418438
     16          6           0       10.430731   -2.755689    0.165887
     17          6           0      -11.988053   -1.452339    1.832205
     18          6           0      -12.764663   -2.334712   -0.274032
     19          6           0        9.630214    0.380628    0.092109
     20          6           0      -10.037685   -0.933595   -0.450079
     21          6           0       11.621358    1.326751   -1.890992
     22          6           0      -10.398179    2.020700   -1.299663
     23          6           0        9.353923    1.683213    0.105205
     24          6           0       -8.798596   -0.500772   -0.397118
     25          6           0        8.001197    2.215455    0.202183
     26          6           0       -7.576561   -1.339801   -0.539359
     27          6           0        7.952778    3.718732    0.498818
     28          6           0       -7.834632   -2.783916   -1.020218
     29          6           0        6.860358    1.477591   -0.017991
     30          6           0       -6.436997   -0.702722   -0.245292
     31          6           0        5.520209    1.931749    0.126480
     32          6           0       -5.053716   -1.298581   -0.377862
     33          6           0        4.387810    1.198487    0.107766
     34          6           0       -3.982808   -0.545400   -0.216628
     35          6           0        3.099740    1.716757    0.183036
     36          6           0       -2.534437   -1.018211   -0.246526
     37          6           0        2.862200    3.188403    0.420538
     38          6           0       -2.276597   -2.368823   -0.594593
     39          6           0        2.084445    0.780708   -0.018463
     40          6           0       -1.566374   -0.005908   -0.138746
     41          6           0        0.730142    1.007699    0.104090
     42          6           0       -0.172807   -0.141429   -0.155559
     43          1           0       13.134964   -1.068057    1.722699
     44          1           0       12.840401   -2.790557    1.576766
     45          1           0      -14.441667   -0.835685    1.179702
     46          1           0      -14.182627   -0.269376   -0.637030
     47          1           0       12.954942   -2.405240   -0.752589
     48          1           0      -12.703187    1.406030    1.828931
     49          1           0       14.140336    0.219305   -0.514409
     50          1           0       13.539168   -0.486676   -1.935122
     51          1           0      -13.242101    2.103778   -1.017822
     52          1           0      -12.146910    2.931035    0.021502
     53          1           0       10.699782   -2.127756    2.803801
     54          1           0        9.502468   -0.763975    2.579704
     55          1           0       11.297343   -0.347710    2.834493
     56          1           0       10.748134   -2.856347   -0.899214
     57          1           0       10.465853   -3.624313    0.750365
     58          1           0        9.320233   -2.506502    0.230720
     59          1           0      -11.669818   -0.675705    2.372169
     60          1           0      -11.223016   -2.102046    1.904080
     61          1           0      -12.970954   -1.862455    2.285056
     62          1           0      -13.777279   -2.668128   -0.013065
     63          1           0      -12.179814   -3.246638   -0.163289
     64          1           0      -12.969934   -2.282880   -1.338182
     65          1           0        8.824699   -0.418725    0.252260
     66          1           0      -10.240557   -2.068511   -0.509716
     67          1           0       10.580061    1.508019   -2.040611
     68          1           0       12.171637    2.277138   -1.875762
     69          1           0       12.045997    0.989672   -2.979515
     70          1           0      -10.921458    3.103256   -1.876399
     71          1           0       -9.749973    1.498269   -2.072248
     72          1           0       -9.730821    2.526229   -0.490598
     73          1           0       15.006614   -2.973517    0.392612
     74          1           0      -15.320614    1.950598    1.713810
     75          1           0       10.158168    2.352087    0.077997
     76          1           0       -8.568486    0.691511   -0.078795
     77          1           0        8.842570    4.169867    0.126356
     78          1           0        7.243769    3.977969   -0.217126
     79          1           0        7.691015    3.972405    1.665407
     80          1           0       -8.452702   -3.288773   -0.227473
     81          1           0       -8.499075   -2.810627   -2.004618
     82          1           0       -6.764946   -3.121324   -1.206687
     83          1           0        6.994396    0.364081   -0.336132
     84          1           0       -6.351658    0.469392    0.047496
     85          1           0        5.326352    3.170441    0.437248
     86          1           0       -5.106687   -2.147053   -0.648837
     87          1           0        4.432087    0.172299   -0.199958
     88          1           0       -4.158054    0.340982   -0.045277
     89          1           0        3.033801    3.525072    1.539367
     90          1           0        1.744966    3.230220    0.104164
     91          1           0        3.545970    3.705789   -0.442538
     92          1           0       -2.879799   -3.054430   -0.016222
     93          1           0       -2.665046   -2.667700   -1.536372
     94          1           0       -1.162170   -2.478520   -0.680623
     95          1           0        2.525747   -0.240570   -0.518281
     96          1           0       -1.960970    1.155526    0.017548
     97          1           0        0.180167    2.100018    0.392062
     98          1           0        0.227849   -1.064983   -0.495155
 ---------------------------------------------------------------------

 SCF Done:  E(RCAM-B3LYP) =  -1706.82777887     A.U. after   15 cycles

 Excitation energies and oscillator strengths:

 Excited State   1:      Singlet-A      2.3273 eV  532.75 nm  f=3.3715  <S**2>=0.000
     155 ->158        -0.12303
     156 ->157         0.69450
 This state for optimization and/or second-order correction.
 Total Energy, E(TD-HF/TD-DFT) =  -1706.74225326
 Copying the excited state density for this state as the 1-particle RhoCI density.

 The electronic state is 1-A.
 Alpha  occ. eigenvalues --  -19.21242 -19.20838 -10.32574 -10.28995 -10.28955
 Alpha  occ. eigenvalues --  -10.28850 -10.28118 -10.28047 -10.27929 -10.27882
 Alpha  occ. eigenvalues --  -10.27626 -10.27397 -10.27282 -10.27208 -10.27205
 Alpha  occ. eigenvalues --  -10.27173 -10.27095 -10.27092 -10.27073 -10.27063
 Alpha  occ. eigenvalues --  -10.26713 -10.26670 -10.26474 -10.26442 -10.26380
 Alpha  occ. eigenvalues --  -10.26061 -10.25875 -10.25768 -10.25720 -10.25653
 Alpha  occ. eigenvalues --  -10.25561 -10.25343 -10.25158 -10.25083 -10.24915
 Alpha  occ. eigenvalues --  -10.24910 -10.24683 -10.24560 -10.24324 -10.24249
 Alpha  occ. eigenvalues --  -10.23980 -10.23040  -1.07425  -1.05352  -0.93377
 Alpha  occ. eigenvalues --   -0.92309  -0.92004  -0.91639  -0.90124  -0.89779
 Alpha  occ. eigenvalues --   -0.87854  -0.86915  -0.86136  -0.85462  -0.84207
 Alpha  occ. eigenvalues --   -0.83080  -0.81821  -0.79958  -0.79607  -0.78361
 Alpha  occ. eigenvalues --   -0.76801  -0.76245  -0.76105  -0.75890  -0.75618
 Alpha  occ. eigenvalues --   -0.75378  -0.74903  -0.74417  -0.72996  -0.70552
 Alpha  occ. eigenvalues --   -0.69220  -0.67922  -0.66737  -0.65692  -0.64041
 Alpha  occ. eigenvalues --   -0.63374  -0.62137  -0.61451  -0.60119  -0.58966
 Alpha  occ. eigenvalues --   -0.58569  -0.58057  -0.57431  -0.56406  -0.55761
 Alpha  occ. eigenvalues --   -0.55388  -0.54561  -0.54221  -0.53671  -0.53635
 Alpha  occ. eigenvalues --   -0.52889  -0.51984  -0.51610  -0.51218  -0.50966
 Alpha  occ. eigenvalues --   -0.50469  -0.50365  -0.49604  -0.49367  -0.49151
 Alpha  occ. eigenvalues --   -0.48809  -0.48491  -0.48215  -0.48029  -0.47816
 Alpha  occ. eigenvalues --   -0.47456  -0.47339  -0.46953  -0.46594  -0.46156
 Alpha  occ. eigenvalues --   -0.45791  -0.45396  -0.45325  -0.45085  -0.45056
 Alpha  occ. eigenvalues --   -0.44494  -0.44356  -0.43725  -0.43211  -0.43196
 Alpha  occ. eigenvalues --   -0.43012  -0.42529  -0.42197  -0.41872  -0.41719
 Alpha  occ. eigenvalues --   -0.41561  -0.41517  -0.41224  -0.40860  -0.40457
 Alpha  occ. eigenvalues --   -0.40113  -0.39958  -0.39895  -0.39358  -0.39128
 Alpha  occ. eigenvalues --   -0.39023  -0.38486  -0.38388  -0.37777  -0.37609
 Alpha  occ. eigenvalues --   -0.37335  -0.36394  -0.36170  -0.35748  -0.35592
 Alpha  occ. eigenvalues --   -0.35176  -0.34852  -0.33387  -0.32454  -0.32051
 Alpha  occ. eigenvalues --   -0.31127  -0.29869  -0.28365  -0.25757  -0.23865
 Alpha  occ. eigenvalues --   -0.19383
 Alpha virt. eigenvalues --   -0.05342   0.00131   0.02295   0.06200   0.07935
 Alpha virt. eigenvalues --    0.09778   0.09997   0.10588   0.11281   0.11879
 Alpha virt. eigenvalues --    0.12065   0.12372   0.12493   0.12892   0.13401

 Mulliken charges:
               1
     1  O   -0.594786
     2  O   -0.595998
     3  C   -0.036591
     4  C   -0.003923
     5  C   -0.213715
     6  C   -0.188174
     7  C    0.233701
     8  C    0.196714
     9  C    0.026012
    10  C    0.065068
    11  C   -0.214972
    12  C   -0.241215
    13  C    0.064621
    14  C    0.092246
    15  C   -0.303029
    16  C   -0.312734
    17  C   -0.271516
    18  C   -0.331911
    19  C   -0.102541
    20  C   -0.141203
    21  C   -0.373907
    22  C   -0.358916
    23  C   -0.099733
    24  C   -0.084220
    25  C    0.062336
    26  C    0.094236
    27  C   -0.356787
    28  C   -0.352093
    29  C   -0.118715
    30  C   -0.146497
    31  C   -0.108455
    32  C   -0.015799
    33  C   -0.084100
    34  C   -0.051041
    35  C    0.115095
    36  C    0.104633
    37  C   -0.352804
    38  C   -0.384606
    39  C   -0.119318
    40  C   -0.117223
    41  C   -0.109222
    42  C   -0.097876
    43  H    0.096019
    44  H    0.075974
    45  H    0.067576
    46  H    0.101437
    47  H    0.066726
    48  H    0.055113
    49  H    0.136664
    50  H    0.115523
    51  H    0.122458
    52  H    0.112442
    53  H    0.112313
    54  H    0.096265
    55  H    0.098155
    56  H    0.115393
    57  H    0.112646
    58  H    0.096290
    59  H    0.107686
    60  H    0.114159
    61  H    0.076467
    62  H    0.092523
    63  H    0.106695
    64  H    0.102281
    65  H    0.087003
    66  H    0.067254
    67  H    0.137172
    68  H    0.115734
    69  H    0.072856
    70  H    0.066265
    71  H    0.124411
    72  H    0.112633
    73  H    0.300969
    74  H    0.319608
    75  H    0.095576
    76  H    0.067462
    77  H    0.110703
    78  H    0.131709
    79  H    0.110804
    80  H    0.129924
    81  H    0.120898
    82  H    0.105736
    83  H    0.077237
    84  H    0.075307
    85  H    0.065004
    86  H    0.012234
    87  H    0.070787
    88  H    0.037897
    89  H    0.123009
    90  H    0.099670
    91  H    0.113722
    92  H    0.124577
    93  H    0.133962
    94  H    0.104032
    95  H    0.082033
    96  H    0.067588
    97  H    0.095744
    98  H    0.088634
 Sum of Mulliken charges =  -0.00000

 Dipole moment (field-independent basis, Debye):
    X=             -0.2531    Y=             -2.0573    Z=              0.7679  Tot=              2.2105
 Quadrupole moment (field-independent basis, Debye-Ang):
   XX=           -269.4472   YY=           -241.9645   ZZ=           -263.0265
   XY=              6.1837   XZ=             -5.6452   YZ=              1.8799

 Normal termination of Gaussian 16 at Fri Jul 19 03:39:56 2019.
