 Gaussian 16, Revision A.03,
 Gaussian 16:  ES64L-G16RevA.03 25-Dec-2016

 -------------------------------------
 # td=(NStates=1) CAM-B3LYP/6-31G(d,p)
 -------------------------------------

 --
 TD
 --
 Symbolic Z-matrix:
 Charge =  0 Multiplicity = 1

                         Standard orientation:
 ---------------------------------------------------------------------
 Center     Atomic      Atomic             Coordinates (Angstroms)
 Number     Number       Type             X           Y           Z
 ---------------------------------------------------------------------
      1          8           0       14.556252   -2.230205   -0.259972
      2          8           0      -14.756776    1.776353    1.038703
      3          6           0       11.230540   -1.427559    1.003109
      4          6           0      -12.360594   -0.994760    0.566248
      5          6           0       12.639532   -1.822694    1.046829
      6          6           0      -13.696710   -0.302650    0.534151
      7          6           0       13.214529   -1.981040   -0.341880
      8          6           0      -13.523975    1.177970    0.955096
      9          6           0       10.909664   -0.316752    0.079847
     10          6           0      -11.274432   -0.249022   -0.157163
     11          6           0       13.114999   -0.736691   -1.127125
     12          6           0      -12.654853    1.838990   -0.128033
     13          6           0       11.792662    0.016086   -0.908160
     14          6           0      -11.437403    1.051648   -0.598696
     15          6           0       10.792273   -0.970613    2.495251
     16          6           0       10.339287   -2.588163    0.618434
     17          6           0      -11.938537   -1.380169    2.032295
     18          6           0      -12.585898   -2.361276   -0.137853
     19          6           0        9.594215    0.407197    0.277163
     20          6           0       -9.996999   -0.982186   -0.500571
     21          6           0       11.584763    0.993676   -1.969495
     22          6           0      -10.570782    1.803213   -1.490370
     23          6           0        9.363352    1.742524    0.079737
     24          6           0       -8.738597   -0.457535   -0.366646
     25          6           0        8.028049    2.427879    0.122373
     26          6           0       -7.548397   -1.192856   -0.555763
     27          6           0        7.976465    3.866704    0.396712
     28          6           0       -7.873778   -2.604103   -1.025476
     29          6           0        6.931005    1.606164    0.076543
     30          6           0       -6.344255   -0.552142   -0.488305
     31          6           0        5.647580    2.062588    0.149634
     32          6           0       -5.102147   -1.131247   -0.486912
     33          6           0        4.565059    1.215269   -0.008163
     34          6           0       -3.911416   -0.347852   -0.390663
     35          6           0        3.201805    1.685618    0.135895
     36          6           0       -2.515044   -0.731798   -0.551772
     37          6           0        2.975674    3.052688    0.486030
     38          6           0       -2.201816   -2.158027   -0.896152
     39          6           0        2.185187    0.762122   -0.032319
     40          6           0       -1.572833    0.239293   -0.245294
     41          6           0        0.762884    0.994596    0.117135
     42          6           0       -0.162826    0.019521   -0.288778
     43          1           0       13.130922   -1.054288    1.619703
     44          1           0       12.808877   -2.934189    1.492743
     45          1           0      -14.615043   -0.643628    1.092827
     46          1           0      -13.921550   -0.342090   -0.535329
     47          1           0       12.694262   -2.586515   -0.986792
     48          1           0      -12.867160    1.260073    1.750057
     49          1           0       14.027023   -0.082807   -0.843019
     50          1           0       13.336567   -0.752914   -2.166833
     51          1           0      -13.350878    2.336346   -0.953366
     52          1           0      -12.528665    2.978562    0.400299
     53          1           0       11.322616   -1.772068    3.103498
     54          1           0        9.754534   -1.023356    2.666049
     55          1           0       11.189339    0.030519    2.860321
     56          1           0       10.552130   -2.908015   -0.445752
     57          1           0       10.687375   -3.462611    1.352817
     58          1           0        9.307024   -2.533472    0.647197
     59          1           0      -11.911260   -0.609152    2.785378
     60          1           0      -11.000852   -1.903757    2.317646
     61          1           0      -12.669038   -2.219862    2.444753
     62          1           0      -13.539911   -2.902810    0.465342
     63          1           0      -11.758499   -3.037882    0.042901
     64          1           0      -12.645927   -2.422155   -1.176599
     65          1           0        8.827599   -0.204222    0.537867
     66          1           0      -10.151368   -2.031012   -0.776165
     67          1           0       10.440011    1.194044   -2.089770
     68          1           0       12.156738    1.818976   -1.852547
     69          1           0       11.774417    0.525984   -2.967432
     70          1           0      -11.259499    2.468720   -1.932241
     71          1           0      -10.015640    1.105723   -2.341913
     72          1           0       -9.850308    2.358224   -0.939420
     73          1           0       14.923897   -2.937964    0.328134
     74          1           0      -15.290634    1.371631    1.767985
     75          1           0       10.300888    2.367227   -0.352888
     76          1           0       -8.553075    0.533024    0.000428
     77          1           0        8.953717    4.296267    0.436142
     78          1           0        7.219577    4.264886   -0.370434
     79          1           0        7.588607    4.051236    1.321758
     80          1           0       -8.503069   -3.065242   -0.347687
     81          1           0       -8.418302   -2.461973   -1.998654
     82          1           0       -6.879947   -3.076031   -1.140432
     83          1           0        7.197004    0.588633   -0.077600
     84          1           0       -6.405701    0.441295   -0.212716
     85          1           0        5.415321    2.965661    0.678111
     86          1           0       -4.813568   -2.095303   -0.791919
     87          1           0        4.729264    0.348177   -0.503755
     88          1           0       -4.151177    0.731165   -0.005260
     89          1           0        3.295514    3.249893    1.347879
     90          1           0        1.983991    3.291519    0.654317
     91          1           0        3.595499    3.785783   -0.274631
     92          1           0       -2.475557   -2.626719    0.230014
     93          1           0       -2.819633   -2.450222   -1.707553
     94          1           0       -1.188708   -2.371008   -1.144309
     95          1           0        2.585522   -0.274082   -0.319705
     96          1           0       -2.012173    1.076390    0.136864
     97          1           0        0.233978    1.967434    0.219381
     98          1           0        0.139728   -1.038908   -0.536889
 ---------------------------------------------------------------------

 SCF Done:  E(RCAM-B3LYP) =  -1707.01687856     A.U. after   15 cycles

 Excitation energies and oscillator strengths:

 Excited State   1:      Singlet-A      2.3107 eV  536.57 nm  f=3.7553  <S**2>=0.000
     155 ->158         0.17269
     156 ->157         0.68295
 This state for optimization and/or second-order correction.
 Total Energy, E(TD-HF/TD-DFT) =  -1706.93196258
 Copying the excited state density for this state as the 1-particle RhoCI density.

 The electronic state is 1-A.
 Alpha  occ. eigenvalues --  -19.21615 -19.20451 -10.29001 -10.28665 -10.27913
 Alpha  occ. eigenvalues --  -10.27891 -10.27544 -10.27372 -10.27185 -10.27032
 Alpha  occ. eigenvalues --  -10.26988 -10.26951 -10.26857 -10.26682 -10.26671
 Alpha  occ. eigenvalues --  -10.26604 -10.26546 -10.26354 -10.26289 -10.26217
 Alpha  occ. eigenvalues --  -10.26074 -10.25584 -10.25555 -10.25449 -10.25435
 Alpha  occ. eigenvalues --  -10.25398 -10.25365 -10.25363 -10.25291 -10.25183
 Alpha  occ. eigenvalues --  -10.25120 -10.25056 -10.25028 -10.25017 -10.24793
 Alpha  occ. eigenvalues --  -10.24716 -10.24702 -10.24467 -10.24218 -10.23989
 Alpha  occ. eigenvalues --  -10.23943 -10.23842  -1.10496  -1.09913  -0.94028
 Alpha  occ. eigenvalues --   -0.93478  -0.92492  -0.92114  -0.91016  -0.90293
 Alpha  occ. eigenvalues --   -0.87168  -0.87021  -0.86680  -0.85516  -0.84660
 Alpha  occ. eigenvalues --   -0.83241  -0.82528  -0.80582  -0.79541  -0.79071
 Alpha  occ. eigenvalues --   -0.77309  -0.77023  -0.76233  -0.75938  -0.75500
 Alpha  occ. eigenvalues --   -0.75400  -0.75148  -0.74593  -0.73940  -0.70766
 Alpha  occ. eigenvalues --   -0.69005  -0.67329  -0.66083  -0.64879  -0.64072
 Alpha  occ. eigenvalues --   -0.63887  -0.63112  -0.61821  -0.61304  -0.60737
 Alpha  occ. eigenvalues --   -0.59955  -0.59547  -0.58962  -0.57987  -0.56313
 Alpha  occ. eigenvalues --   -0.56039  -0.55719  -0.55374  -0.54514  -0.54203
 Alpha  occ. eigenvalues --   -0.53324  -0.53107  -0.52368  -0.51835  -0.51539
 Alpha  occ. eigenvalues --   -0.50487  -0.50339  -0.50064  -0.49910  -0.49545
 Alpha  occ. eigenvalues --   -0.49470  -0.49258  -0.48843  -0.48707  -0.48643
 Alpha  occ. eigenvalues --   -0.48540  -0.48251  -0.47619  -0.46445  -0.46106
 Alpha  occ. eigenvalues --   -0.45592  -0.45520  -0.45203  -0.45055  -0.44601
 Alpha  occ. eigenvalues --   -0.44500  -0.44228  -0.43811  -0.43764  -0.43399
 Alpha  occ. eigenvalues --   -0.43017  -0.42629  -0.42312  -0.41919  -0.41837
 Alpha  occ. eigenvalues --   -0.41799  -0.41539  -0.41046  -0.40876  -0.40555
 Alpha  occ. eigenvalues --   -0.40436  -0.40187  -0.40012  -0.39654  -0.39636
 Alpha  occ. eigenvalues --   -0.39106  -0.38847  -0.38553  -0.38471  -0.38255
 Alpha  occ. eigenvalues --   -0.37445  -0.37196  -0.37157  -0.36458  -0.35151
 Alpha  occ. eigenvalues --   -0.34758  -0.34396  -0.33683  -0.32283  -0.31809
 Alpha  occ. eigenvalues --   -0.31271  -0.29181  -0.27545  -0.25914  -0.23052
 Alpha  occ. eigenvalues --   -0.19679
 Alpha virt. eigenvalues --   -0.05431  -0.01253   0.02625   0.05741   0.07662
 Alpha virt. eigenvalues --    0.09946   0.11613   0.11796   0.12083   0.12533
 Alpha virt. eigenvalues --    0.12959   0.13069   0.13261   0.13859   0.14114

 Mulliken charges:
               1
     1  O   -0.581514
     2  O   -0.562996
     3  C   -0.028941
     4  C   -0.014369
     5  C   -0.187619
     6  C   -0.177687
     7  C    0.221171
     8  C    0.195319
     9  C    0.076073
    10  C    0.052461
    11  C   -0.231112
    12  C   -0.254071
    13  C    0.042729
    14  C    0.082167
    15  C   -0.310335
    16  C   -0.290445
    17  C   -0.310476
    18  C   -0.304740
    19  C   -0.093730
    20  C   -0.152347
    21  C   -0.382284
    22  C   -0.352727
    23  C   -0.130793
    24  C   -0.074360
    25  C    0.064740
    26  C    0.101537
    27  C   -0.369698
    28  C   -0.368153
    29  C   -0.083910
    30  C   -0.114647
    31  C   -0.103225
    32  C   -0.080818
    33  C   -0.113607
    34  C   -0.139682
    35  C    0.122813
    36  C    0.087004
    37  C   -0.366045
    38  C   -0.355580
    39  C   -0.134839
    40  C   -0.098470
    41  C   -0.108652
    42  C   -0.083408
    43  H    0.111438
    44  H    0.060794
    45  H    0.068743
    46  H    0.107375
    47  H    0.086326
    48  H    0.093106
    49  H    0.100921
    50  H    0.105346
    51  H    0.102282
    52  H    0.068831
    53  H    0.086290
    54  H    0.108674
    55  H    0.103945
    56  H    0.098040
    57  H    0.074570
    58  H    0.111632
    59  H    0.103809
    60  H    0.105543
    61  H    0.074407
    62  H    0.074060
    63  H    0.100607
    64  H    0.112914
    65  H    0.080778
    66  H    0.085602
    67  H    0.110339
    68  H    0.128282
    69  H    0.099943
    70  H    0.114486
    71  H    0.098535
    72  H    0.125919
    73  H    0.304828
    74  H    0.310671
    75  H    0.081904
    76  H    0.077725
    77  H    0.114203
    78  H    0.115913
    79  H    0.138984
    80  H    0.132589
    81  H    0.126663
    82  H    0.097392
    83  H    0.076698
    84  H    0.078248
    85  H    0.087692
    86  H    0.080243
    87  H    0.078750
    88  H    0.069499
    89  H    0.139963
    90  H    0.104097
    91  H    0.098014
    92  H    0.112635
    93  H    0.129571
    94  H    0.118311
    95  H    0.080917
    96  H    0.076899
    97  H    0.098546
    98  H    0.080776
 Sum of Mulliken charges =  -0.00000

 Dipole moment (field-independent basis, Debye):
    X=              0.2983    Y=             -1.6173    Z=              1.6771  Tot=              2.3489
 Quadrupole moment (field-independent basis, Debye-Ang):
   XX=           -274.4372   YY=           -246.4290   ZZ=           -259.8623
   XY=              6.7714   XZ=             -5.2978   YZ=              3.4986

 Normal termination of Gaussian 16 at Thu Jul 18 17:25:13 2019.
