 Gaussian 16, Revision A.03,
 Gaussian 16:  ES64L-G16RevA.03 25-Dec-2016

 -------------------------------------
 # td=(NStates=1) CAM-B3LYP/6-31G(d,p)
 -------------------------------------

 --
 TD
 --
 Symbolic Z-matrix:
 Charge =  0 Multiplicity = 1

                         Standard orientation:
 ---------------------------------------------------------------------
 Center     Atomic      Atomic             Coordinates (Angstroms)
 Number     Number       Type             X           Y           Z
 ---------------------------------------------------------------------
      1          8           0       14.890501   -2.022869   -0.205888
      2          8           0      -14.702493    2.028934    0.862862
      3          6           0       11.207466   -1.487418    0.896152
      4          6           0      -12.396606   -0.977899    0.629067
      5          6           0       12.770077   -1.704220    1.122117
      6          6           0      -13.662070   -0.192322    0.669299
      7          6           0       13.424946   -1.759857   -0.288081
      8          6           0      -13.477687    1.337770    0.772886
      9          6           0       10.934011   -0.282716   -0.007677
     10          6           0      -11.328113   -0.173480   -0.178080
     11          6           0       13.313738   -0.457366   -1.013944
     12          6           0      -12.682118    1.917792   -0.311356
     13          6           0       11.894114    0.064519   -0.906266
     14          6           0      -11.486433    1.090374   -0.615799
     15          6           0       10.747146   -0.961471    2.324745
     16          6           0       10.452729   -2.643873    0.533309
     17          6           0      -11.863355   -1.258264    2.043347
     18          6           0      -12.702762   -2.281825    0.041777
     19          6           0        9.644579    0.296135    0.075956
     20          6           0      -10.034485   -1.014362   -0.480548
     21          6           0       11.696737    1.267498   -1.776613
     22          6           0      -10.533177    1.767689   -1.435755
     23          6           0        9.296697    1.651867    0.012398
     24          6           0       -8.812462   -0.564239   -0.230785
     25          6           0        7.993944    2.227580    0.009755
     26          6           0       -7.617788   -1.239467   -0.539560
     27          6           0        7.931263    3.770212    0.361605
     28          6           0       -7.696525   -2.626361   -1.075221
     29          6           0        6.901162    1.550081   -0.067880
     30          6           0       -6.424539   -0.561025   -0.288764
     31          6           0        5.555380    1.974503    0.255565
     32          6           0       -5.200655   -1.135789   -0.536657
     33          6           0        4.402446    1.251464   -0.011182
     34          6           0       -3.981419   -0.486415   -0.226713
     35          6           0        3.137228    1.503126    0.274400
     36          6           0       -2.647800   -0.877485   -0.549274
     37          6           0        2.862563    2.916404    0.629080
     38          6           0       -2.412468   -2.329062   -0.907826
     39          6           0        2.093853    0.639267   -0.011911
     40          6           0       -1.595337    0.018950   -0.260598
     41          6           0        0.693189    0.843046    0.048043
     42          6           0       -0.181678   -0.130758   -0.367078
     43          1           0       13.197159   -1.151226    1.772620
     44          1           0       12.722576   -2.527470    1.658725
     45          1           0      -14.274805   -0.475894    1.485624
     46          1           0      -14.125550   -0.471895   -0.351793
     47          1           0       13.029297   -2.353083   -0.892844
     48          1           0      -12.999251    1.591154    1.732753
     49          1           0       14.291468    0.170341   -0.554423
     50          1           0       13.591772   -0.420013   -2.054732
     51          1           0      -13.421845    1.921903   -1.058271
     52          1           0      -12.460457    2.901408   -0.052783
     53          1           0       10.920584   -1.675066    3.135334
     54          1           0        9.563255   -0.936510    2.396089
     55          1           0       11.295920   -0.050708    2.680037
     56          1           0       10.879833   -3.013467   -0.409796
     57          1           0       10.471783   -3.474511    1.150508
     58          1           0        9.368790   -2.286262    0.536825
     59          1           0      -11.335043   -0.360070    2.564816
     60          1           0      -10.960210   -1.709763    1.801798
     61          1           0      -12.669047   -1.618688    2.751635
     62          1           0      -13.317952   -3.165357    0.728072
     63          1           0      -11.832060   -2.844915   -0.294505
     64          1           0      -13.123474   -2.168436   -0.787941
     65          1           0        8.924644   -0.461662    0.256345
     66          1           0      -10.195838   -2.057436   -0.867131
     67          1           0       10.684627    1.304578   -2.005831
     68          1           0       12.011153    2.159543   -1.199219
     69          1           0       12.348728    1.330416   -2.671122
     70          1           0      -11.105765    2.392392   -2.122897
     71          1           0       -9.770120    1.172781   -1.833131
     72          1           0      -10.097768    2.448552   -0.821058
     73          1           0       15.039883   -2.843259    0.208375
     74          1           0      -15.089127    1.539439    1.577716
     75          1           0       10.186014    2.224045   -0.020453
     76          1           0       -8.615960    0.336051    0.194236
     77          1           0        8.881621    4.169644    0.302843
     78          1           0        7.292595    4.268233   -0.360861
     79          1           0        7.476121    4.024010    1.304559
     80          1           0       -7.966935   -3.211193   -0.230511
     81          1           0       -8.530224   -2.606197   -2.011822
     82          1           0       -6.797262   -3.368404   -1.503096
     83          1           0        7.036029    0.472756   -0.268255
     84          1           0       -6.553032    0.282423   -0.017990
     85          1           0        5.252517    3.035205    0.510205
     86          1           0       -5.139860   -2.138527   -1.011062
     87          1           0        4.682961    0.246131   -0.523572
     88          1           0       -3.974754    0.400196    0.345073
     89          1           0        3.591912    3.284403    1.352389
     90          1           0        1.828547    2.954276    1.137472
     91          1           0        3.079580    3.752036   -0.460644
     92          1           0       -2.629798   -3.025702   -0.179544
     93          1           0       -2.941574   -2.582698   -2.004574
     94          1           0       -1.284448   -2.476333   -1.290073
     95          1           0        2.261954   -0.327254   -0.441460
     96          1           0       -2.087428    0.954979    0.145542
     97          1           0        0.307875    1.797635    0.350723
     98          1           0        0.281577   -1.036672   -0.706290
 ---------------------------------------------------------------------

 SCF Done:  E(RCAM-B3LYP) =  -1706.91066892     A.U. after   15 cycles

 Excitation energies and oscillator strengths:

 Excited State   1:      Singlet-A      2.1773 eV  569.45 nm  f=3.8784  <S**2>=0.000
     155 ->158        -0.15726
     156 ->157         0.68891
 This state for optimization and/or second-order correction.
 Total Energy, E(TD-HF/TD-DFT) =  -1706.83065564
 Copying the excited state density for this state as the 1-particle RhoCI density.

 The electronic state is 1-A.
 Alpha  occ. eigenvalues --  -19.20706 -19.19855 -10.29294 -10.28956 -10.28165
 Alpha  occ. eigenvalues --  -10.27979 -10.27851 -10.27355 -10.27351 -10.27285
 Alpha  occ. eigenvalues --  -10.27103 -10.27000 -10.26815 -10.26673 -10.26593
 Alpha  occ. eigenvalues --  -10.26544 -10.26450 -10.26397 -10.26394 -10.26335
 Alpha  occ. eigenvalues --  -10.26275 -10.26209 -10.26142 -10.26120 -10.25850
 Alpha  occ. eigenvalues --  -10.25846 -10.25708 -10.25611 -10.25254 -10.25239
 Alpha  occ. eigenvalues --  -10.25144 -10.25017 -10.24758 -10.24490 -10.24455
 Alpha  occ. eigenvalues --  -10.24275 -10.24264 -10.24080 -10.23653 -10.23626
 Alpha  occ. eigenvalues --  -10.23146 -10.23035  -1.10680  -1.07403  -0.94546
 Alpha  occ. eigenvalues --   -0.94352  -0.92960  -0.92787  -0.91067  -0.90458
 Alpha  occ. eigenvalues --   -0.89474  -0.87947  -0.87575  -0.86081  -0.85607
 Alpha  occ. eigenvalues --   -0.83476  -0.82202  -0.80481  -0.79972  -0.78105
 Alpha  occ. eigenvalues --   -0.77923  -0.77284  -0.77104  -0.76750  -0.76631
 Alpha  occ. eigenvalues --   -0.76058  -0.75641  -0.74914  -0.74079  -0.71564
 Alpha  occ. eigenvalues --   -0.69654  -0.68139  -0.66907  -0.66018  -0.64515
 Alpha  occ. eigenvalues --   -0.63847  -0.63493  -0.62898  -0.61441  -0.60259
 Alpha  occ. eigenvalues --   -0.59495  -0.59083  -0.58682  -0.58162  -0.56695
 Alpha  occ. eigenvalues --   -0.56369  -0.56022  -0.55363  -0.54627  -0.54344
 Alpha  occ. eigenvalues --   -0.53596  -0.53286  -0.52584  -0.52297  -0.52246
 Alpha  occ. eigenvalues --   -0.51063  -0.50579  -0.50335  -0.49983  -0.49640
 Alpha  occ. eigenvalues --   -0.49603  -0.49510  -0.49391  -0.49080  -0.48766
 Alpha  occ. eigenvalues --   -0.47941  -0.47491  -0.47374  -0.47132  -0.46851
 Alpha  occ. eigenvalues --   -0.46515  -0.46225  -0.46199  -0.45568  -0.45219
 Alpha  occ. eigenvalues --   -0.44854  -0.44692  -0.43996  -0.43909  -0.43823
 Alpha  occ. eigenvalues --   -0.43471  -0.43294  -0.42900  -0.42431  -0.42329
 Alpha  occ. eigenvalues --   -0.42059  -0.41744  -0.41649  -0.41187  -0.40700
 Alpha  occ. eigenvalues --   -0.40128  -0.40069  -0.39853  -0.39383  -0.39349
 Alpha  occ. eigenvalues --   -0.39028  -0.38828  -0.38782  -0.38614  -0.38242
 Alpha  occ. eigenvalues --   -0.37722  -0.37616  -0.36456  -0.36059  -0.36029
 Alpha  occ. eigenvalues --   -0.35745  -0.35146  -0.34449  -0.32461  -0.31777
 Alpha  occ. eigenvalues --   -0.31715  -0.30249  -0.28500  -0.26438  -0.23397
 Alpha  occ. eigenvalues --   -0.19603
 Alpha virt. eigenvalues --   -0.06235  -0.01486   0.01972   0.05827   0.07905
 Alpha virt. eigenvalues --    0.09144   0.10900   0.11880   0.11984   0.12598
 Alpha virt. eigenvalues --    0.12698   0.13270   0.13914   0.14098   0.14295

 Mulliken charges:
               1
     1  O   -0.584865
     2  O   -0.550999
     3  C   -0.063547
     4  C   -0.002108
     5  C   -0.160945
     6  C   -0.185661
     7  C    0.176908
     8  C    0.143709
     9  C    0.103431
    10  C    0.012863
    11  C   -0.210329
    12  C   -0.220764
    13  C    0.018365
    14  C    0.071241
    15  C   -0.313863
    16  C   -0.282839
    17  C   -0.289972
    18  C   -0.276028
    19  C   -0.108590
    20  C   -0.181022
    21  C   -0.370979
    22  C   -0.366604
    23  C   -0.119481
    24  C   -0.053334
    25  C    0.111819
    26  C    0.105541
    27  C   -0.370628
    28  C   -0.375810
    29  C   -0.127925
    30  C   -0.039171
    31  C   -0.104785
    32  C   -0.090151
    33  C   -0.098723
    34  C   -0.128786
    35  C    0.129511
    36  C    0.121879
    37  C   -0.351809
    38  C   -0.364672
    39  C   -0.119889
    40  C   -0.135599
    41  C   -0.059092
    42  C   -0.089203
    43  H    0.103133
    44  H    0.089337
    45  H    0.075291
    46  H    0.084533
    47  H    0.090826
    48  H    0.071563
    49  H    0.100295
    50  H    0.112443
    51  H    0.128800
    52  H    0.116334
    53  H    0.088848
    54  H    0.080801
    55  H    0.110275
    56  H    0.100490
    57  H    0.110450
    58  H    0.095606
    59  H    0.077049
    60  H    0.112233
    61  H    0.098917
    62  H    0.070159
    63  H    0.092371
    64  H    0.109943
    65  H    0.077360
    66  H    0.096705
    67  H    0.130314
    68  H    0.117850
    69  H    0.091766
    70  H    0.109221
    71  H    0.122276
    72  H    0.125775
    73  H    0.294610
    74  H    0.300799
    75  H    0.086710
    76  H    0.082633
    77  H    0.110127
    78  H    0.118262
    79  H    0.124234
    80  H    0.141900
    81  H    0.096390
    82  H    0.096560
    83  H    0.077948
    84  H    0.031722
    85  H    0.076452
    86  H    0.086456
    87  H    0.062587
    88  H    0.076538
    89  H    0.123760
    90  H    0.099456
    91  H    0.071370
    92  H    0.142689
    93  H    0.089999
    94  H    0.089414
    95  H    0.077389
    96  H    0.077943
    97  H    0.085404
    98  H    0.090594
 Sum of Mulliken charges =  -0.00000

 Dipole moment (field-independent basis, Debye):
    X=             -1.0381    Y=             -2.4474    Z=              1.3705  Tot=              2.9910
 Quadrupole moment (field-independent basis, Debye-Ang):
   XX=           -292.6909   YY=           -244.7023   ZZ=           -260.0293
   XY=              5.1996   XZ=              0.7499   YZ=              2.2670

 Normal termination of Gaussian 16 at Wed Jul 17 10:42:21 2019.
