 Gaussian 16, Revision A.03,
 Gaussian 16:  ES64L-G16RevA.03 25-Dec-2016

 -------------------------------------
 # td=(NStates=1) CAM-B3LYP/6-31G(d,p)
 -------------------------------------

 --
 TD
 --
 Symbolic Z-matrix:
 Charge =  0 Multiplicity = 1

                         Standard orientation:
 ---------------------------------------------------------------------
 Center     Atomic      Atomic             Coordinates (Angstroms)
 Number     Number       Type             X           Y           Z
 ---------------------------------------------------------------------
      1          8           0       14.712226   -2.053613   -0.674265
      2          8           0      -14.644265    2.125928    0.712338
      3          6           0       11.400650   -1.372495    1.012845
      4          6           0      -12.415613   -1.026363    0.641770
      5          6           0       12.844038   -1.823334    0.867322
      6          6           0      -13.723995   -0.146273    0.687344
      7          6           0       13.297513   -1.806432   -0.542296
      8          6           0      -13.459954    1.354981    0.718077
      9          6           0       10.930273   -0.271882   -0.007616
     10          6           0      -11.324977   -0.371354   -0.314201
     11          6           0       13.116278   -0.477438   -1.216085
     12          6           0      -12.806981    1.859901   -0.570684
     13          6           0       11.800805    0.084387   -1.019814
     14          6           0      -11.478449    0.933421   -0.868737
     15          6           0       11.051473   -0.959137    2.498724
     16          6           0       10.538443   -2.607094    0.642622
     17          6           0      -11.812718   -1.038319    1.986132
     18          6           0      -12.692209   -2.296541    0.112823
     19          6           0        9.593322    0.425554    0.164060
     20          6           0      -10.098328   -1.118511   -0.442211
     21          6           0       11.448388    1.175647   -2.086757
     22          6           0      -10.480973    1.661630   -1.773616
     23          6           0        9.282272    1.691086    0.052541
     24          6           0       -8.844447   -0.559278   -0.397755
     25          6           0        7.954971    2.313189    0.223874
     26          6           0       -7.586967   -1.278105   -0.609542
     27          6           0        7.949409    3.711034    0.628136
     28          6           0       -7.573292   -2.810908   -0.746354
     29          6           0        6.834732    1.517754    0.091586
     30          6           0       -6.414811   -0.637423   -0.372802
     31          6           0        5.534592    1.997141    0.312880
     32          6           0       -5.081418   -1.175690   -0.453705
     33          6           0        4.442118    1.247464    0.080551
     34          6           0       -3.927203   -0.408640   -0.238471
     35          6           0        3.032790    1.653110    0.240971
     36          6           0       -2.627873   -0.888854   -0.304315
     37          6           0        2.782050    3.143003    0.692242
     38          6           0       -2.293780   -2.367405   -0.545826
     39          6           0        2.088036    0.746266    0.106473
     40          6           0       -1.590091    0.129917   -0.080910
     41          6           0        0.703488    0.922322    0.058970
     42          6           0       -0.238403   -0.099474   -0.068980
     43          1           0       13.403763   -1.221988    1.477050
     44          1           0       13.045869   -2.917583    1.288748
     45          1           0      -14.417105   -0.399316    1.576443
     46          1           0      -14.332992   -0.442819   -0.312220
     47          1           0       12.835992   -2.658149   -0.958058
     48          1           0      -12.938563    1.637773    1.423373
     49          1           0       13.892667    0.289542   -0.947874
     50          1           0       13.336891   -0.851181   -2.330096
     51          1           0      -13.491436    1.824304   -1.365544
     52          1           0      -12.519149    2.894252   -0.333713
     53          1           0       11.662895   -1.673397    3.067642
     54          1           0       10.082700   -0.860485    2.650911
     55          1           0       11.489597    0.103075    2.551147
     56          1           0       10.813337   -2.919295   -0.473224
     57          1           0       10.732795   -3.386723    1.430806
     58          1           0        9.475813   -2.455101    0.694527
     59          1           0      -11.270562   -0.055254    2.420983
     60          1           0      -10.930990   -1.661751    2.213913
     61          1           0      -12.586939   -1.477072    2.685874
     62          1           0      -13.379915   -2.936775    0.718842
     63          1           0      -11.803642   -2.752570    0.549756
     64          1           0      -13.000830   -2.431128   -1.053206
     65          1           0        8.832132   -0.209404    0.396479
     66          1           0      -10.443555   -2.194120   -0.585510
     67          1           0       10.371246    1.213070   -2.112978
     68          1           0       11.713486    2.317018   -1.860829
     69          1           0       12.196117    0.766452   -2.928345
     70          1           0      -10.751257    2.285509   -2.632900
     71          1           0       -9.804822    0.857028   -2.208770
     72          1           0       -9.750191    2.405671   -1.326680
     73          1           0       14.928940   -2.890901   -0.061603
     74          1           0      -15.217676    1.834399    1.523419
     75          1           0       10.287852    2.432722   -0.046719
     76          1           0       -8.693941    0.465988   -0.202923
     77          1           0        8.948060    4.157886    0.466392
     78          1           0        7.212339    4.184262   -0.135206
     79          1           0        7.572788    3.874937    1.680340
     80          1           0       -7.784601   -3.385588    0.181708
     81          1           0       -8.468154   -3.171919   -1.385277
     82          1           0       -6.608355   -3.163031   -1.094347
     83          1           0        6.981588    0.486924   -0.177910
     84          1           0       -6.578315    0.429144   -0.074919
     85          1           0        5.348158    2.934105    0.628065
     86          1           0       -4.854533   -2.230484   -0.745357
     87          1           0        4.571986    0.086736    0.004051
     88          1           0       -3.984616    0.644534   -0.133990
     89          1           0        3.518650    3.409963    1.781372
     90          1           0        1.743833    3.086920    0.918562
     91          1           0        3.276062    3.688625   -0.200909
     92          1           0       -2.464655   -2.995267    0.647421
     93          1           0       -3.186803   -2.940672   -1.070860
     94          1           0       -1.110435   -2.463154   -0.862841
     95          1           0        2.412279   -0.185308   -0.282139
     96          1           0       -1.867683    1.207906   -0.207229
     97          1           0        0.160817    1.865634    0.212192
     98          1           0       -0.069584   -1.193586   -0.338007
 ---------------------------------------------------------------------

 SCF Done:  E(RCAM-B3LYP) =  -1706.93048305     A.U. after   15 cycles

 Excitation energies and oscillator strengths:

 Excited State   1:      Singlet-A      2.2167 eV  559.31 nm  f=3.6469  <S**2>=0.000
     155 ->158        -0.14381
     156 ->157         0.69262
 This state for optimization and/or second-order correction.
 Total Energy, E(TD-HF/TD-DFT) =  -1706.84901908
 Copying the excited state density for this state as the 1-particle RhoCI density.

 The electronic state is 1-A.
 Alpha  occ. eigenvalues --  -19.21138 -19.20713 -10.30975 -10.29316 -10.28689
 Alpha  occ. eigenvalues --  -10.28631 -10.28129 -10.27649 -10.27614 -10.27564
 Alpha  occ. eigenvalues --  -10.27283 -10.27275 -10.27274 -10.27175 -10.27165
 Alpha  occ. eigenvalues --  -10.27082 -10.26969 -10.26790 -10.26708 -10.26644
 Alpha  occ. eigenvalues --  -10.26619 -10.26522 -10.26471 -10.26461 -10.26450
 Alpha  occ. eigenvalues --  -10.26358 -10.26339 -10.26123 -10.26080 -10.26064
 Alpha  occ. eigenvalues --  -10.25951 -10.25893 -10.25551 -10.25530 -10.25409
 Alpha  occ. eigenvalues --  -10.25389 -10.25388 -10.25291 -10.25061 -10.24956
 Alpha  occ. eigenvalues --  -10.24641 -10.24492  -1.08112  -1.07318  -0.94086
 Alpha  occ. eigenvalues --   -0.93357  -0.92549  -0.91809  -0.91016  -0.89988
 Alpha  occ. eigenvalues --   -0.87698  -0.86889  -0.86402  -0.85643  -0.84521
 Alpha  occ. eigenvalues --   -0.83572  -0.81199  -0.80524  -0.79284  -0.77840
 Alpha  occ. eigenvalues --   -0.76708  -0.76332  -0.76078  -0.75687  -0.75385
 Alpha  occ. eigenvalues --   -0.75180  -0.75039  -0.74551  -0.73394  -0.70971
 Alpha  occ. eigenvalues --   -0.68658  -0.67764  -0.66093  -0.64997  -0.63977
 Alpha  occ. eigenvalues --   -0.63204  -0.62751  -0.61825  -0.60719  -0.59823
 Alpha  occ. eigenvalues --   -0.59746  -0.58808  -0.58208  -0.57505  -0.56289
 Alpha  occ. eigenvalues --   -0.55690  -0.55398  -0.54616  -0.54322  -0.53908
 Alpha  occ. eigenvalues --   -0.53206  -0.52969  -0.52385  -0.51448  -0.51119
 Alpha  occ. eigenvalues --   -0.50618  -0.50254  -0.49706  -0.49089  -0.48933
 Alpha  occ. eigenvalues --   -0.48810  -0.48760  -0.48630  -0.48246  -0.47690
 Alpha  occ. eigenvalues --   -0.46989  -0.46736  -0.46485  -0.46213  -0.46125
 Alpha  occ. eigenvalues --   -0.46116  -0.45839  -0.45200  -0.45114  -0.44565
 Alpha  occ. eigenvalues --   -0.44393  -0.44228  -0.44129  -0.43852  -0.43551
 Alpha  occ. eigenvalues --   -0.43312  -0.43019  -0.42880  -0.42546  -0.41912
 Alpha  occ. eigenvalues --   -0.41748  -0.41501  -0.41087  -0.40868  -0.40568
 Alpha  occ. eigenvalues --   -0.40430  -0.39925  -0.39879  -0.39785  -0.39347
 Alpha  occ. eigenvalues --   -0.39219  -0.38826  -0.38006  -0.37856  -0.37803
 Alpha  occ. eigenvalues --   -0.37785  -0.37137  -0.36942  -0.36018  -0.35541
 Alpha  occ. eigenvalues --   -0.35240  -0.34131  -0.33593  -0.32587  -0.31941
 Alpha  occ. eigenvalues --   -0.31930  -0.29800  -0.27964  -0.26076  -0.23853
 Alpha  occ. eigenvalues --   -0.19592
 Alpha virt. eigenvalues --   -0.06107  -0.00988   0.02027   0.05517   0.07373
 Alpha virt. eigenvalues --    0.08948   0.09864   0.10421   0.11413   0.11440
 Alpha virt. eigenvalues --    0.11750   0.11878   0.12383   0.12632   0.13086

 Mulliken charges:
               1
     1  O   -0.581081
     2  O   -0.574363
     3  C   -0.033890
     4  C    0.017780
     5  C   -0.190386
     6  C   -0.188263
     7  C    0.182215
     8  C    0.215408
     9  C    0.054790
    10  C    0.039777
    11  C   -0.226167
    12  C   -0.213988
    13  C    0.038525
    14  C    0.020160
    15  C   -0.296141
    16  C   -0.288447
    17  C   -0.314104
    18  C   -0.311583
    19  C   -0.103024
    20  C   -0.135020
    21  C   -0.339100
    22  C   -0.381508
    23  C   -0.114259
    24  C   -0.106415
    25  C    0.085823
    26  C    0.114175
    27  C   -0.372245
    28  C   -0.365358
    29  C   -0.102364
    30  C   -0.121699
    31  C   -0.067874
    32  C   -0.104907
    33  C   -0.120481
    34  C   -0.086938
    35  C    0.093380
    36  C    0.112406
    37  C   -0.329441
    38  C   -0.343760
    39  C   -0.114843
    40  C   -0.141072
    41  C   -0.120447
    42  C   -0.048535
    43  H    0.105761
    44  H    0.059163
    45  H    0.065290
    46  H    0.079388
    47  H    0.094236
    48  H    0.080855
    49  H    0.133181
    50  H    0.104383
    51  H    0.125985
    52  H    0.108153
    53  H    0.103730
    54  H    0.116488
    55  H    0.097826
    56  H    0.089383
    57  H    0.086480
    58  H    0.099507
    59  H    0.103418
    60  H    0.112308
    61  H    0.093911
    62  H    0.093793
    63  H    0.107007
    64  H    0.111356
    65  H    0.078594
    66  H    0.100778
    67  H    0.132324
    68  H    0.092102
    69  H    0.088244
    70  H    0.111587
    71  H    0.115028
    72  H    0.103878
    73  H    0.296107
    74  H    0.293261
    75  H    0.071553
    76  H    0.096349
    77  H    0.115427
    78  H    0.114437
    79  H    0.128594
    80  H    0.121656
    81  H    0.100545
    82  H    0.109493
    83  H    0.084066
    84  H    0.078400
    85  H    0.074107
    86  H    0.071260
    87  H    0.070749
    88  H    0.083339
    89  H    0.076978
    90  H    0.121309
    91  H    0.129975
    92  H    0.075443
    93  H    0.124023
    94  H    0.113456
    95  H    0.086648
    96  H    0.084470
    97  H    0.086411
    98  H    0.061068
 Sum of Mulliken charges =  -0.00000

 Dipole moment (field-independent basis, Debye):
    X=             -0.7570    Y=             -1.6761    Z=              2.5485  Tot=              3.1428
 Quadrupole moment (field-independent basis, Debye-Ang):
   XX=           -287.6513   YY=           -246.1798   ZZ=           -264.6989
   XY=             12.8700   XZ=             -0.9850   YZ=              0.1855

 Normal termination of Gaussian 16 at Mon Jul 15 19:05:53 2019.
