 Gaussian 16, Revision A.03,
 Gaussian 16:  ES64L-G16RevA.03 25-Dec-2016

 -------------------------------------
 # td=(NStates=1) CAM-B3LYP/6-31G(d,p)
 -------------------------------------

 --
 TD
 --
 Symbolic Z-matrix:
 Charge =  0 Multiplicity = 1

                         Standard orientation:
 ---------------------------------------------------------------------
 Center     Atomic      Atomic             Coordinates (Angstroms)
 Number     Number       Type             X           Y           Z
 ---------------------------------------------------------------------
      1          8           0       14.773515   -2.186932   -0.244406
      2          8           0      -14.688890    2.052623    0.929014
      3          6           0       11.217329   -1.547763    0.917157
      4          6           0      -12.400969   -1.054014    0.532010
      5          6           0       12.760364   -1.725374    1.117666
      6          6           0      -13.690662   -0.245253    0.444710
      7          6           0       13.391616   -1.939552   -0.269035
      8          6           0      -13.493720    1.260683    0.862784
      9          6           0       10.981178   -0.293594   -0.113656
     10          6           0      -11.325996   -0.224298   -0.172963
     11          6           0       13.294545   -0.592838   -0.989304
     12          6           0      -12.598125    1.956478   -0.213315
     13          6           0       11.927553    0.085989   -1.060907
     14          6           0      -11.470518    1.083160   -0.572404
     15          6           0       10.754139   -1.063303    2.325672
     16          6           0       10.397564   -2.691253    0.630823
     17          6           0      -11.988222   -1.376195    1.950033
     18          6           0      -12.619320   -2.433791   -0.139270
     19          6           0        9.760396    0.307105    0.095896
     20          6           0      -10.077642   -0.954376   -0.496810
     21          6           0       11.672513    1.342772   -1.919068
     22          6           0      -10.412914    1.867490   -1.329713
     23          6           0        9.298170    1.683500   -0.044634
     24          6           0       -8.816324   -0.437641   -0.214017
     25          6           0        8.077135    2.295153    0.218668
     26          6           0       -7.657304   -1.238880   -0.463860
     27          6           0        8.018604    3.777884    0.285887
     28          6           0       -7.889927   -2.587826   -0.914090
     29          6           0        6.861076    1.513688    0.144638
     30          6           0       -6.390084   -0.635051   -0.333878
     31          6           0        5.597794    2.082891    0.240804
     32          6           0       -5.106205   -1.351400   -0.485680
     33          6           0        4.416208    1.319699    0.135257
     34          6           0       -3.918310   -0.524058   -0.379478
     35          6           0        3.073145    1.678579    0.237137
     36          6           0       -2.553545   -0.950305   -0.513924
     37          6           0        2.696540    3.160137    0.595496
     38          6           0       -2.296067   -2.205346   -1.003747
     39          6           0        2.101630    0.643535    0.038849
     40          6           0       -1.523468    0.059583   -0.147968
     41          6           0        0.786247    0.895489    0.022880
     42          6           0       -0.194130   -0.041685   -0.322029
     43          1           0       13.301039   -0.854110    1.509080
     44          1           0       12.676418   -2.661170    1.716860
     45          1           0      -14.638448   -0.688939    1.084119
     46          1           0      -14.192548   -0.150221   -0.484285
     47          1           0       13.077443   -2.695202   -1.055840
     48          1           0      -13.068549    1.120242    1.707594
     49          1           0       13.810979    0.178197   -0.504890
     50          1           0       13.746808   -0.848835   -1.869981
     51          1           0      -13.270976    2.154020   -0.988862
     52          1           0      -12.302023    2.841668    0.100912
     53          1           0       10.953872   -1.791186    3.246026
     54          1           0        9.571416   -0.915608    2.549141
     55          1           0       11.242574    0.067110    2.581835
     56          1           0       10.621499   -3.019081   -0.499745
     57          1           0       10.650116   -3.442257    1.278052
     58          1           0        9.309445   -2.541983    0.375871
     59          1           0      -11.604837   -0.444190    2.546678
     60          1           0      -11.166442   -2.031121    1.791940
     61          1           0      -12.861514   -1.984517    2.559261
     62          1           0      -13.513940   -2.733787    0.371223
     63          1           0      -11.910568   -3.054015   -0.048486
     64          1           0      -12.903357   -2.409539   -1.136387
     65          1           0        8.887529   -0.290465    0.402929
     66          1           0      -10.072385   -2.059496   -0.860985
     67          1           0       10.600932    1.627324   -1.791539
     68          1           0       12.130562    2.328795   -1.502679
     69          1           0       11.933689    1.100994   -3.052812
     70          1           0      -11.090849    2.734961   -1.793870
     71          1           0       -9.801353    1.398512   -2.024407
     72          1           0       -9.644065    2.418301   -0.723592
     73          1           0       14.885110   -2.965310    0.297406
     74          1           0      -15.176001    1.612896    1.640968
     75          1           0        9.970099    2.375227   -0.325613
     76          1           0       -8.629381    0.449209    0.174437
     77          1           0        9.187541    4.111928    0.564395
     78          1           0        7.797808    4.423012   -0.587184
     79          1           0        7.240163    4.142757    1.274275
     80          1           0       -8.615751   -3.108895   -0.264686
     81          1           0       -8.673581   -2.671656   -1.963064
     82          1           0       -6.907145   -3.193569   -0.978497
     83          1           0        7.054792    0.358666   -0.070393
     84          1           0       -6.343661    0.334960    0.073457
     85          1           0        5.448956    3.281793    0.303244
     86          1           0       -4.984155   -2.260579   -1.107695
     87          1           0        4.507349    0.129422   -0.097589
     88          1           0       -4.200666    0.532607   -0.102024
     89          1           0        3.546909    3.256759    1.379961
     90          1           0        1.634966    3.395492    1.117663
     91          1           0        2.798237    3.983398   -0.341561
     92          1           0       -2.608324   -2.762516   -0.026684
     93          1           0       -3.239636   -2.323462   -1.825454
     94          1           0       -1.345424   -2.418272   -1.450652
     95          1           0        2.626279   -0.345683   -0.353474
     96          1           0       -1.805895    0.954455    0.013950
     97          1           0        0.521817    1.937181    0.153067
     98          1           0        0.198357   -0.909893   -0.637987
 ---------------------------------------------------------------------

 SCF Done:  E(RCAM-B3LYP) =  -1706.82560270     A.U. after   18 cycles

 Excitation energies and oscillator strengths:

 Excited State   1:      Singlet-A      1.5820 eV  783.70 nm  f=3.6063  <S**2>=0.000
     155 ->158         0.12915
     156 ->157         0.70811
     156 <-157        -0.15143
 This state for optimization and/or second-order correction.
 Total Energy, E(TD-HF/TD-DFT) =  -1706.76746417
 Copying the excited state density for this state as the 1-particle RhoCI density.

 The electronic state is 1-A.
 Alpha  occ. eigenvalues --  -19.21308 -19.20923 -10.30716 -10.29206 -10.28915
 Alpha  occ. eigenvalues --  -10.28641 -10.28410 -10.28161 -10.28103 -10.27990
 Alpha  occ. eigenvalues --  -10.27727 -10.27624 -10.27468 -10.27430 -10.27412
 Alpha  occ. eigenvalues --  -10.27372 -10.27367 -10.27288 -10.27277 -10.27274
 Alpha  occ. eigenvalues --  -10.26974 -10.26944 -10.26808 -10.26669 -10.26640
 Alpha  occ. eigenvalues --  -10.26564 -10.26530 -10.26362 -10.26267 -10.26114
 Alpha  occ. eigenvalues --  -10.25891 -10.25783 -10.25488 -10.25344 -10.25213
 Alpha  occ. eigenvalues --  -10.25164 -10.25007 -10.24919 -10.24743 -10.24102
 Alpha  occ. eigenvalues --  -10.23235 -10.22326  -1.10586  -1.09076  -0.93619
 Alpha  occ. eigenvalues --   -0.93593  -0.92736  -0.91486  -0.90896  -0.90316
 Alpha  occ. eigenvalues --   -0.87837  -0.87722  -0.87346  -0.85328  -0.84630
 Alpha  occ. eigenvalues --   -0.83153  -0.82091  -0.79826  -0.79409  -0.78973
 Alpha  occ. eigenvalues --   -0.76898  -0.76868  -0.76048  -0.75687  -0.75614
 Alpha  occ. eigenvalues --   -0.75071  -0.74589  -0.73797  -0.72478  -0.70328
 Alpha  occ. eigenvalues --   -0.69282  -0.67888  -0.66241  -0.65397  -0.64360
 Alpha  occ. eigenvalues --   -0.63118  -0.62952  -0.62502  -0.60372  -0.59683
 Alpha  occ. eigenvalues --   -0.59182  -0.58878  -0.57842  -0.57713  -0.56762
 Alpha  occ. eigenvalues --   -0.56392  -0.55639  -0.55466  -0.55191  -0.54298
 Alpha  occ. eigenvalues --   -0.53128  -0.52580  -0.52248  -0.51845  -0.51339
 Alpha  occ. eigenvalues --   -0.51125  -0.50548  -0.49731  -0.49529  -0.49373
 Alpha  occ. eigenvalues --   -0.49006  -0.48778  -0.48688  -0.48571  -0.47708
 Alpha  occ. eigenvalues --   -0.47339  -0.46662  -0.46565  -0.46277  -0.46099
 Alpha  occ. eigenvalues --   -0.45489  -0.45314  -0.45032  -0.44640  -0.44376
 Alpha  occ. eigenvalues --   -0.44314  -0.43992  -0.43938  -0.43803  -0.43760
 Alpha  occ. eigenvalues --   -0.43714  -0.43246  -0.42910  -0.42388  -0.42314
 Alpha  occ. eigenvalues --   -0.42212  -0.41834  -0.41778  -0.41148  -0.40878
 Alpha  occ. eigenvalues --   -0.40693  -0.40588  -0.39981  -0.39508  -0.39374
 Alpha  occ. eigenvalues --   -0.39218  -0.38593  -0.38532  -0.38074  -0.37835
 Alpha  occ. eigenvalues --   -0.37270  -0.36752  -0.36490  -0.35948  -0.35631
 Alpha  occ. eigenvalues --   -0.35409  -0.34336  -0.33507  -0.32307  -0.32097
 Alpha  occ. eigenvalues --   -0.31645  -0.29678  -0.28165  -0.25391  -0.22653
 Alpha  occ. eigenvalues --   -0.17425
 Alpha virt. eigenvalues --   -0.07958  -0.01872   0.01551   0.05083   0.07282
 Alpha virt. eigenvalues --    0.08679   0.10889   0.11095   0.11734   0.11859
 Alpha virt. eigenvalues --    0.12311   0.12352   0.12656   0.12999   0.13267

 Mulliken charges:
               1
     1  O   -0.555908
     2  O   -0.557963
     3  C   -0.003355
     4  C   -0.034188
     5  C   -0.181277
     6  C   -0.203866
     7  C    0.146230
     8  C    0.147618
     9  C    0.055898
    10  C    0.063451
    11  C   -0.210642
    12  C   -0.221186
    13  C    0.044002
    14  C    0.062287
    15  C   -0.284917
    16  C   -0.288500
    17  C   -0.276269
    18  C   -0.288632
    19  C   -0.104656
    20  C   -0.167739
    21  C   -0.363071
    22  C   -0.362372
    23  C   -0.120124
    24  C   -0.053639
    25  C    0.098735
    26  C    0.152557
    27  C   -0.358606
    28  C   -0.393259
    29  C   -0.098862
    30  C   -0.135322
    31  C   -0.111932
    32  C   -0.118293
    33  C   -0.118519
    34  C   -0.120859
    35  C    0.105518
    36  C    0.103399
    37  C   -0.354688
    38  C   -0.369743
    39  C   -0.110105
    40  C   -0.075533
    41  C   -0.086595
    42  C   -0.073706
    43  H    0.125216
    44  H    0.079892
    45  H    0.038169
    46  H    0.107778
    47  H    0.083679
    48  H    0.088742
    49  H    0.127063
    50  H    0.113067
    51  H    0.130341
    52  H    0.123216
    53  H    0.082200
    54  H    0.085889
    55  H    0.078482
    56  H    0.078970
    57  H    0.111077
    58  H    0.120485
    59  H    0.095447
    60  H    0.114303
    61  H    0.079755
    62  H    0.101622
    63  H    0.102464
    64  H    0.109098
    65  H    0.075886
    66  H    0.076539
    67  H    0.126031
    68  H    0.110179
    69  H    0.098968
    70  H    0.081224
    71  H    0.130953
    72  H    0.108818
    73  H    0.300808
    74  H    0.302518
    75  H    0.063243
    76  H    0.068878
    77  H    0.080275
    78  H    0.136391
    79  H    0.085909
    80  H    0.129034
    81  H    0.085106
    82  H    0.100675
    83  H    0.085270
    84  H    0.084381
    85  H    0.095734
    86  H    0.093565
    87  H    0.067154
    88  H    0.085248
    89  H    0.118001
    90  H    0.107700
    91  H    0.104695
    92  H    0.136910
    93  H    0.098853
    94  H    0.126003
    95  H    0.079954
    96  H    0.059639
    97  H    0.082314
    98  H    0.060819
 Sum of Mulliken charges =  -0.00000

 Dipole moment (field-independent basis, Debye):
    X=              1.2298    Y=             -1.8658    Z=              0.9185  Tot=              2.4161
 Quadrupole moment (field-independent basis, Debye-Ang):
   XX=           -283.4567   YY=           -244.7651   ZZ=           -264.3922
   XY=              7.2202   XZ=             -5.4726   YZ=             -0.4119

 Normal termination of Gaussian 16 at Tue Jul 16 17:00:13 2019.
