 Gaussian 16, Revision A.03,
 Gaussian 16:  ES64L-G16RevA.03 25-Dec-2016

 -------------------------------------
 # td=(NStates=1) CAM-B3LYP/6-31G(d,p)
 -------------------------------------

 --
 TD
 --
 Symbolic Z-matrix:
 Charge =  0 Multiplicity = 1

                         Standard orientation:
 ---------------------------------------------------------------------
 Center     Atomic      Atomic             Coordinates (Angstroms)
 Number     Number       Type             X           Y           Z
 ---------------------------------------------------------------------
      1          8           0       14.841886   -2.122635   -0.160845
      2          8           0      -14.719954    1.890999    1.121996
      3          6           0       11.330560   -1.436054    1.075808
      4          6           0      -12.335638   -0.978181    0.615175
      5          6           0       12.864440   -1.696378    1.141190
      6          6           0      -13.706425   -0.370023    0.777015
      7          6           0       13.460997   -1.886455   -0.251017
      8          6           0      -13.535364    1.207070    1.030090
      9          6           0       11.017411   -0.332336   -0.043144
     10          6           0      -11.278261   -0.222169   -0.199264
     11          6           0       13.212890   -0.611694   -1.087296
     12          6           0      -12.892153    1.739727   -0.265292
     13          6           0       11.931886    0.053325   -0.989289
     14          6           0      -11.481601    1.092006   -0.493626
     15          6           0       10.916929   -0.849827    2.388736
     16          6           0       10.495613   -2.641579    0.781272
     17          6           0      -11.742474   -1.241693    2.035289
     18          6           0      -12.626501   -2.407128   -0.063507
     19          6           0        9.657192    0.280922    0.105371
     20          6           0      -10.066502   -1.012089   -0.446184
     21          6           0       11.636212    1.105305   -2.019102
     22          6           0      -10.657956    1.896025   -1.345873
     23          6           0        9.289987    1.614640    0.131850
     24          6           0       -8.797573   -0.482150   -0.387089
     25          6           0        7.994999    2.223354    0.210281
     26          6           0       -7.564647   -1.179377   -0.635502
     27          6           0        7.985517    3.679422    0.486467
     28          6           0       -7.688469   -2.626525   -1.081081
     29          6           0        6.854080    1.529132    0.096617
     30          6           0       -6.380133   -0.550682   -0.447739
     31          6           0        5.479189    2.043863    0.184574
     32          6           0       -5.158098   -1.097379   -0.713620
     33          6           0        4.385068    1.291357   -0.156580
     34          6           0       -3.994255   -0.324702   -0.381209
     35          6           0        3.043896    1.608285   -0.000776
     36          6           0       -2.699430   -0.833001   -0.523985
     37          6           0        2.859091    3.127029    0.394685
     38          6           0       -2.472725   -2.253397   -0.945937
     39          6           0        2.060261    0.713422   -0.231404
     40          6           0       -1.640384    0.116751   -0.183947
     41          6           0        0.666492    0.850832   -0.049354
     42          6           0       -0.268768   -0.063667   -0.397669
     43          1           0       13.219401   -0.686081    1.608907
     44          1           0       13.115654   -2.503460    1.721236
     45          1           0      -14.176229   -1.258785    1.653103
     46          1           0      -14.267416   -0.488535   -0.018698
     47          1           0       12.862529   -2.736944   -0.744328
     48          1           0      -12.829100    1.498619    1.814003
     49          1           0       13.937722    0.192134   -0.616794
     50          1           0       13.763284   -0.646891   -2.113011
     51          1           0      -13.605282    1.541593   -0.972984
     52          1           0      -12.686904    2.587095   -0.080958
     53          1           0       11.166726   -1.666356    3.183923
     54          1           0        9.816281   -0.575437    2.467052
     55          1           0       11.569107   -0.003067    2.720366
     56          1           0       10.759534   -3.033317   -0.128663
     57          1           0       10.756971   -3.274475    1.728520
     58          1           0        9.479380   -2.275653    0.940104
     59          1           0      -11.632070   -0.268581    2.445547
     60          1           0      -10.765600   -1.605395    1.908998
     61          1           0      -12.552615   -1.867448    2.661057
     62          1           0      -13.386746   -2.892019    0.495747
     63          1           0      -11.781389   -3.137109   -0.085907
     64          1           0      -12.821751   -2.108888   -0.982673
     65          1           0        8.856237   -0.390270    0.469397
     66          1           0       -9.992932   -2.076791   -0.825133
     67          1           0       10.639864    1.200696   -2.298797
     68          1           0       11.895307    2.211226   -1.822582
     69          1           0       12.091344    0.928908   -3.039974
     70          1           0      -11.260059    2.410189   -2.137078
     71          1           0       -9.756384    1.368658   -1.873262
     72          1           0      -10.030174    2.882444   -0.908900
     73          1           0       14.872625   -2.912955    0.521222
     74          1           0      -15.164802    1.630083    1.931946
     75          1           0       10.181713    2.174810   -0.033391
     76          1           0       -8.594545    0.439430   -0.055150
     77          1           0        9.046033    4.027293    0.473501
     78          1           0        7.286162    4.250907   -0.202422
     79          1           0        7.680631    3.909664    1.354571
     80          1           0       -8.222771   -3.263676   -0.442025
     81          1           0       -8.124655   -2.623779   -2.236605
     82          1           0       -6.682225   -2.937498   -1.181134
     83          1           0        7.041917    0.357491   -0.052095
     84          1           0       -6.524593    0.452356   -0.136240
     85          1           0        5.504950    3.019559    0.611974
     86          1           0       -5.122780   -2.168207   -1.196200
     87          1           0        4.548184    0.213703   -0.494850
     88          1           0       -4.110737    0.721627    0.024810
     89          1           0        3.602319    3.641683    1.099971
     90          1           0        1.794104    3.608867    0.780398
     91          1           0        3.146254    3.701077   -0.387654
     92          1           0       -2.911818   -3.052604   -0.206470
     93          1           0       -3.251656   -2.354581   -1.811659
     94          1           0       -1.559031   -2.530262   -1.342559
     95          1           0        2.683254   -0.117645   -0.641258
     96          1           0       -1.960755    1.076577    0.187079
     97          1           0        0.325770    1.846178    0.493502
     98          1           0        0.224169   -1.038947   -0.606292
 ---------------------------------------------------------------------

 SCF Done:  E(RCAM-B3LYP) =  -1706.96433150     A.U. after   15 cycles

 Excitation energies and oscillator strengths:

 Excited State   1:      Singlet-A      2.1706 eV  571.21 nm  f=3.8435  <S**2>=0.000
     155 ->158         0.15444
     156 ->157         0.68993
 This state for optimization and/or second-order correction.
 Total Energy, E(TD-HF/TD-DFT) =  -1706.88456478
 Copying the excited state density for this state as the 1-particle RhoCI density.

 The electronic state is 1-A.
 Alpha  occ. eigenvalues --  -19.22594 -19.21357 -10.31272 -10.30491 -10.28269
 Alpha  occ. eigenvalues --  -10.27515 -10.27442 -10.27381 -10.27248 -10.27098
 Alpha  occ. eigenvalues --  -10.27097 -10.27014 -10.26848 -10.26801 -10.26734
 Alpha  occ. eigenvalues --  -10.26519 -10.26500 -10.26486 -10.26473 -10.26461
 Alpha  occ. eigenvalues --  -10.26457 -10.26390 -10.26387 -10.26386 -10.26383
 Alpha  occ. eigenvalues --  -10.26349 -10.26338 -10.26334 -10.26153 -10.25872
 Alpha  occ. eigenvalues --  -10.25716 -10.25565 -10.25412 -10.25297 -10.25179
 Alpha  occ. eigenvalues --  -10.25093 -10.24701 -10.24524 -10.24236 -10.23894
 Alpha  occ. eigenvalues --  -10.22911 -10.22556  -1.11253  -1.09688  -0.93561
 Alpha  occ. eigenvalues --   -0.93415  -0.92549  -0.92193  -0.91015  -0.90299
 Alpha  occ. eigenvalues --   -0.87907  -0.87585  -0.87057  -0.85523  -0.84552
 Alpha  occ. eigenvalues --   -0.82974  -0.82025  -0.80418  -0.79419  -0.78514
 Alpha  occ. eigenvalues --   -0.76940  -0.76698  -0.76539  -0.76446  -0.76099
 Alpha  occ. eigenvalues --   -0.75666  -0.75304  -0.75089  -0.73862  -0.71308
 Alpha  occ. eigenvalues --   -0.69247  -0.67614  -0.66636  -0.65007  -0.63990
 Alpha  occ. eigenvalues --   -0.63007  -0.62398  -0.61456  -0.60734  -0.60065
 Alpha  occ. eigenvalues --   -0.59803  -0.59057  -0.57922  -0.57874  -0.56874
 Alpha  occ. eigenvalues --   -0.56345  -0.55638  -0.55268  -0.55069  -0.54635
 Alpha  occ. eigenvalues --   -0.53585  -0.52942  -0.52475  -0.51753  -0.51481
 Alpha  occ. eigenvalues --   -0.51251  -0.50625  -0.50000  -0.49295  -0.49007
 Alpha  occ. eigenvalues --   -0.48709  -0.48610  -0.48374  -0.48012  -0.47858
 Alpha  occ. eigenvalues --   -0.47500  -0.47428  -0.47209  -0.46933  -0.46711
 Alpha  occ. eigenvalues --   -0.45987  -0.45949  -0.45829  -0.45345  -0.45264
 Alpha  occ. eigenvalues --   -0.44751  -0.44424  -0.44144  -0.43770  -0.43592
 Alpha  occ. eigenvalues --   -0.43164  -0.42881  -0.42762  -0.42303  -0.42072
 Alpha  occ. eigenvalues --   -0.42025  -0.41763  -0.41518  -0.41400  -0.40896
 Alpha  occ. eigenvalues --   -0.40860  -0.40111  -0.39652  -0.39591  -0.39354
 Alpha  occ. eigenvalues --   -0.39213  -0.39125  -0.38884  -0.38506  -0.38075
 Alpha  occ. eigenvalues --   -0.37720  -0.37528  -0.36834  -0.36559  -0.36342
 Alpha  occ. eigenvalues --   -0.35459  -0.34889  -0.33980  -0.32480  -0.32279
 Alpha  occ. eigenvalues --   -0.31684  -0.29874  -0.28132  -0.26191  -0.23348
 Alpha  occ. eigenvalues --   -0.19378
 Alpha virt. eigenvalues --   -0.06130  -0.01237   0.02383   0.05182   0.07604
 Alpha virt. eigenvalues --    0.09219   0.10602   0.10780   0.11660   0.11921
 Alpha virt. eigenvalues --    0.12437   0.12540   0.13335   0.13703   0.13912

 Mulliken charges:
               1
     1  O   -0.549483
     2  O   -0.546874
     3  C   -0.038940
     4  C   -0.046228
     5  C   -0.183186
     6  C   -0.150664
     7  C    0.183509
     8  C    0.134075
     9  C    0.031242
    10  C    0.079732
    11  C   -0.255452
    12  C   -0.160711
    13  C    0.110555
    14  C    0.032394
    15  C   -0.289312
    16  C   -0.261725
    17  C   -0.271808
    18  C   -0.300352
    19  C   -0.134140
    20  C   -0.148792
    21  C   -0.386686
    22  C   -0.378855
    23  C   -0.115296
    24  C   -0.074599
    25  C    0.119949
    26  C    0.087553
    27  C   -0.379436
    28  C   -0.363560
    29  C   -0.133090
    30  C   -0.086134
    31  C   -0.086358
    32  C   -0.123619
    33  C   -0.138237
    34  C   -0.119636
    35  C    0.158492
    36  C    0.120071
    37  C   -0.387336
    38  C   -0.368919
    39  C   -0.132358
    40  C   -0.137597
    41  C   -0.093417
    42  C   -0.069407
    43  H    0.095427
    44  H    0.077607
    45  H    0.032030
    46  H    0.103371
    47  H    0.067142
    48  H    0.077274
    49  H    0.109049
    50  H    0.109189
    51  H    0.126022
    52  H    0.101156
    53  H    0.075940
    54  H    0.104430
    55  H    0.103856
    56  H    0.112760
    57  H    0.078320
    58  H    0.104970
    59  H    0.099316
    60  H    0.110739
    61  H    0.074571
    62  H    0.096039
    63  H    0.087662
    64  H    0.114417
    65  H    0.074937
    66  H    0.097057
    67  H    0.138354
    68  H    0.107186
    69  H    0.098820
    70  H    0.114020
    71  H    0.111699
    72  H    0.077232
    73  H    0.309750
    74  H    0.306790
    75  H    0.080812
    76  H    0.067994
    77  H    0.103996
    78  H    0.110694
    79  H    0.141678
    80  H    0.132602
    81  H    0.097865
    82  H    0.096940
    83  H    0.065231
    84  H    0.079146
    85  H    0.087113
    86  H    0.098399
    87  H    0.082429
    88  H    0.094092
    89  H    0.104278
    90  H    0.085420
    91  H    0.142058
    92  H    0.120662
    93  H    0.106619
    94  H    0.123555
    95  H    0.075102
    96  H    0.084666
    97  H    0.085004
    98  H    0.091145
 Sum of Mulliken charges =  -0.00000

 Dipole moment (field-independent basis, Debye):
    X=              0.0221    Y=             -0.9912    Z=              1.4227  Tot=              1.7341
 Quadrupole moment (field-independent basis, Debye-Ang):
   XX=           -283.2004   YY=           -243.9120   ZZ=           -261.0923
   XY=              3.7395   XZ=              2.5622   YZ=              2.4186

 Normal termination of Gaussian 16 at Thu Jul 11 15:19:32 2019.
