 Gaussian 16, Revision A.03,
 Gaussian 16:  ES64L-G16RevA.03 25-Dec-2016

 -------------------------------------
 # td=(NStates=1) CAM-B3LYP/6-31G(d,p)
 -------------------------------------

 --
 TD
 --
 Symbolic Z-matrix:
 Charge =  0 Multiplicity = 1

                         Standard orientation:
 ---------------------------------------------------------------------
 Center     Atomic      Atomic             Coordinates (Angstroms)
 Number     Number       Type             X           Y           Z
 ---------------------------------------------------------------------
      1          8           0       14.742828   -2.303081   -0.087926
      2          8           0      -14.721336    1.794650    1.155421
      3          6           0       11.132110   -1.558457    0.872417
      4          6           0      -12.311334   -1.165948    0.631875
      5          6           0       12.639661   -1.918059    1.140017
      6          6           0      -13.736362   -0.393208    0.924387
      7          6           0       13.326412   -1.944864   -0.255302
      8          6           0      -13.447506    1.052133    1.094687
      9          6           0       10.950210   -0.273842    0.059378
     10          6           0      -11.338317   -0.310092   -0.176328
     11          6           0       13.227195   -0.591163   -0.833594
     12          6           0      -12.814941    1.678509   -0.086932
     13          6           0       11.871558    0.032540   -0.834006
     14          6           0      -11.588215    1.019746   -0.544994
     15          6           0       10.663506   -1.246551    2.352264
     16          6           0       10.201849   -2.711685    0.411768
     17          6           0      -11.677382   -1.378404    2.035089
     18          6           0      -12.485106   -2.396596   -0.109315
     19          6           0        9.579755    0.402437    0.150982
     20          6           0      -10.017706   -0.980499   -0.467097
     21          6           0       11.861957    1.231968   -1.691411
     22          6           0      -10.796809    1.920790   -1.402763
     23          6           0        9.380746    1.658022    0.116399
     24          6           0       -8.829565   -0.399761   -0.490569
     25          6           0        8.073155    2.368480    0.193427
     26          6           0       -7.571468   -1.176682   -0.642783
     27          6           0        8.054895    3.818381    0.412263
     28          6           0       -7.616031   -2.634332   -1.011922
     29          6           0        6.981222    1.517812    0.184139
     30          6           0       -6.398400   -0.382807   -0.584305
     31          6           0        5.616197    2.121780    0.235081
     32          6           0       -5.050673   -0.985763   -0.647387
     33          6           0        4.493161    1.339618   -0.008050
     34          6           0       -3.865803   -0.269934   -0.463075
     35          6           0        3.073267    1.748714    0.109642
     36          6           0       -2.521933   -0.683296   -0.723473
     37          6           0        2.763881    3.060115    0.577186
     38          6           0       -2.315186   -2.082183   -1.189070
     39          6           0        2.125336    0.835795   -0.263506
     40          6           0       -1.556080    0.213458   -0.418325
     41          6           0        0.705095    0.968732   -0.258168
     42          6           0       -0.160053   -0.004950   -0.453510
     43          1           0       13.065647   -1.164602    1.848473
     44          1           0       12.567888   -2.771263    1.644177
     45          1           0      -14.061462   -0.775625    2.001696
     46          1           0      -14.546769   -0.455714    0.213126
     47          1           0       12.882228   -2.627887   -0.904914
     48          1           0      -12.869699    1.207362    1.994397
     49          1           0       13.882751    0.187636   -0.415559
     50          1           0       13.432850   -0.897638   -2.019254
     51          1           0      -13.588732    1.761187   -0.895252
     52          1           0      -12.680156    2.570194    0.271479
     53          1           0       11.001474   -2.002026    3.008680
     54          1           0        9.529382   -1.082429    2.350573
     55          1           0       11.266203   -0.230459    2.871566
     56          1           0       10.658050   -3.064089   -0.432160
     57          1           0       10.065468   -3.526529    1.169179
     58          1           0        9.164436   -2.420945    0.126997
     59          1           0      -11.687263   -0.344116    2.664336
     60          1           0      -10.706215   -1.643414    1.922123
     61          1           0      -12.279640   -2.161674    2.620860
     62          1           0      -13.349771   -3.053791    0.320987
     63          1           0      -11.490302   -2.950793   -0.113354
     64          1           0      -12.481148   -2.410818   -1.155459
     65          1           0        8.807971   -0.201109    0.653803
     66          1           0      -10.335212   -1.939591   -0.381766
     67          1           0       10.849119    1.540684   -2.015283
     68          1           0       12.161078    2.164378   -1.356811
     69          1           0       12.368335    1.040778   -2.704568
     70          1           0      -11.416452    2.391730   -2.129291
     71          1           0      -10.070565    1.286046   -2.155652
     72          1           0       -9.826047    2.597501   -1.001714
     73          1           0       14.741402   -3.146970    0.324094
     74          1           0      -15.255363    1.528339    2.022068
     75          1           0       10.014305    2.496171   -0.263663
     76          1           0       -8.615973    0.769876   -0.443916
     77          1           0        9.012809    4.498705    0.343643
     78          1           0        7.205427    4.334118   -0.152583
     79          1           0        7.870501    3.933260    1.510056
     80          1           0       -8.008766   -3.283882   -0.157170
     81          1           0       -8.247596   -2.778486   -2.006031
     82          1           0       -6.618434   -3.086910   -1.169051
     83          1           0        7.323135    0.435822   -0.060382
     84          1           0       -6.566825    0.642952   -0.389071
     85          1           0        5.516392    3.093324    0.592800
     86          1           0       -5.029906   -2.075062   -0.769282
     87          1           0        4.628427    0.351298   -0.336280
     88          1           0       -4.262567    0.788359   -0.194514
     89          1           0        3.116511    3.133759    1.612465
     90          1           0        1.645864    3.466919    0.546654
     91          1           0        3.209294    3.791602   -0.165580
     92          1           0       -2.822384   -2.634760   -0.345219
     93          1           0       -2.809564   -2.010983   -2.091757
     94          1           0       -1.220961   -2.308229   -1.289894
     95          1           0        2.352617   -0.282277   -0.435695
     96          1           0       -1.745381    1.237373   -0.016566
     97          1           0        0.383408    2.178337   -0.081687
     98          1           0       -0.035548   -1.027892   -0.795498
 ---------------------------------------------------------------------

 SCF Done:  E(RCAM-B3LYP) =  -1706.97643529     A.U. after   14 cycles

 Excitation energies and oscillator strengths:

 Excited State   1:      Singlet-A      2.6784 eV  462.91 nm  f=3.6849  <S**2>=0.000
     155 ->158        -0.19271
     156 ->157         0.67387
 This state for optimization and/or second-order correction.
 Total Energy, E(TD-HF/TD-DFT) =  -1706.87800698
 Copying the excited state density for this state as the 1-particle RhoCI density.

 The electronic state is 1-A.
 Alpha  occ. eigenvalues --  -19.20890 -19.20065 -10.29882 -10.29041 -10.27869
 Alpha  occ. eigenvalues --  -10.27787 -10.27458 -10.27269 -10.27252 -10.27232
 Alpha  occ. eigenvalues --  -10.27223 -10.27115 -10.27023 -10.26834 -10.26705
 Alpha  occ. eigenvalues --  -10.26676 -10.26600 -10.26558 -10.26518 -10.26484
 Alpha  occ. eigenvalues --  -10.26389 -10.26307 -10.26120 -10.26104 -10.26091
 Alpha  occ. eigenvalues --  -10.26028 -10.26003 -10.25965 -10.25795 -10.25594
 Alpha  occ. eigenvalues --  -10.25584 -10.25582 -10.25535 -10.25525 -10.25373
 Alpha  occ. eigenvalues --  -10.25321 -10.25240 -10.25022 -10.24823 -10.24545
 Alpha  occ. eigenvalues --  -10.24117 -10.22586  -1.08050  -1.06148  -0.93834
 Alpha  occ. eigenvalues --   -0.93698  -0.92526  -0.91542  -0.90715  -0.89820
 Alpha  occ. eigenvalues --   -0.87858  -0.87365  -0.87155  -0.85462  -0.84898
 Alpha  occ. eigenvalues --   -0.82835  -0.82101  -0.80952  -0.79853  -0.78865
 Alpha  occ. eigenvalues --   -0.77141  -0.76863  -0.76610  -0.76276  -0.75656
 Alpha  occ. eigenvalues --   -0.75543  -0.74916  -0.74080  -0.73480  -0.70448
 Alpha  occ. eigenvalues --   -0.68845  -0.67440  -0.66077  -0.64649  -0.63988
 Alpha  occ. eigenvalues --   -0.63506  -0.63027  -0.61216  -0.60428  -0.59978
 Alpha  occ. eigenvalues --   -0.58989  -0.58734  -0.58405  -0.57063  -0.55618
 Alpha  occ. eigenvalues --   -0.55167  -0.55128  -0.55037  -0.54324  -0.53443
 Alpha  occ. eigenvalues --   -0.53256  -0.52714  -0.51820  -0.51607  -0.51221
 Alpha  occ. eigenvalues --   -0.50675  -0.50372  -0.49982  -0.49714  -0.49689
 Alpha  occ. eigenvalues --   -0.49521  -0.49038  -0.48955  -0.48557  -0.48226
 Alpha  occ. eigenvalues --   -0.48185  -0.47867  -0.47345  -0.46864  -0.46657
 Alpha  occ. eigenvalues --   -0.45976  -0.45587  -0.45488  -0.45024  -0.44844
 Alpha  occ. eigenvalues --   -0.44223  -0.44125  -0.43892  -0.43823  -0.43519
 Alpha  occ. eigenvalues --   -0.43391  -0.42606  -0.42406  -0.41908  -0.41509
 Alpha  occ. eigenvalues --   -0.41455  -0.41156  -0.40959  -0.40557  -0.40447
 Alpha  occ. eigenvalues --   -0.40213  -0.40072  -0.39749  -0.39219  -0.39042
 Alpha  occ. eigenvalues --   -0.38738  -0.38659  -0.38144  -0.37887  -0.37707
 Alpha  occ. eigenvalues --   -0.37441  -0.37005  -0.36490  -0.36037  -0.35762
 Alpha  occ. eigenvalues --   -0.35380  -0.34791  -0.34361  -0.32462  -0.31597
 Alpha  occ. eigenvalues --   -0.31229  -0.29843  -0.28182  -0.26156  -0.23555
 Alpha  occ. eigenvalues --   -0.20493
 Alpha virt. eigenvalues --   -0.04212  -0.00587   0.02705   0.05725   0.07868
 Alpha virt. eigenvalues --    0.09724   0.10939   0.11098   0.11851   0.12090
 Alpha virt. eigenvalues --    0.12639   0.13008   0.13049   0.13629   0.13802

 Mulliken charges:
               1
     1  O   -0.570984
     2  O   -0.584922
     3  C   -0.060342
     4  C   -0.011807
     5  C   -0.190647
     6  C   -0.178645
     7  C    0.161040
     8  C    0.145944
     9  C    0.110241
    10  C    0.030033
    11  C   -0.195621
    12  C   -0.196242
    13  C    0.031360
    14  C    0.056654
    15  C   -0.285550
    16  C   -0.305669
    17  C   -0.285296
    18  C   -0.319240
    19  C   -0.153376
    20  C   -0.067478
    21  C   -0.373156
    22  C   -0.374041
    23  C   -0.043426
    24  C   -0.099277
    25  C    0.086501
    26  C    0.111316
    27  C   -0.392998
    28  C   -0.365345
    29  C   -0.125500
    30  C   -0.125877
    31  C   -0.114125
    32  C   -0.112673
    33  C   -0.096097
    34  C   -0.101307
    35  C    0.123422
    36  C    0.047126
    37  C   -0.383984
    38  C   -0.348136
    39  C   -0.135917
    40  C   -0.095601
    41  C   -0.083021
    42  C   -0.064526
    43  H    0.109300
    44  H    0.089393
    45  H    0.062702
    46  H    0.108899
    47  H    0.094466
    48  H    0.085714
    49  H    0.130695
    50  H    0.077316
    51  H    0.113665
    52  H    0.123758
    53  H    0.104168
    54  H    0.088491
    55  H    0.057564
    56  H    0.111243
    57  H    0.099734
    58  H    0.107266
    59  H    0.083894
    60  H    0.117613
    61  H    0.093534
    62  H    0.094944
    63  H    0.098257
    64  H    0.127189
    65  H    0.091391
    66  H    0.045464
    67  H    0.110677
    68  H    0.128902
    69  H    0.091710
    70  H    0.122048
    71  H    0.089132
    72  H    0.095626
    73  H    0.298820
    74  H    0.296725
    75  H    0.076001
    76  H    0.087511
    77  H    0.107617
    78  H    0.120538
    79  H    0.135968
    80  H    0.114795
    81  H    0.115231
    82  H    0.111451
    83  H    0.094711
    84  H    0.080567
    85  H    0.090478
    86  H    0.073824
    87  H    0.081080
    88  H    0.080050
    89  H    0.133079
    90  H    0.098456
    91  H    0.119618
    92  H    0.129873
    93  H    0.145853
    94  H    0.105117
    95  H    0.075386
    96  H    0.076201
    97  H    0.062606
    98  H    0.070877
 Sum of Mulliken charges =  -0.00000

 Dipole moment (field-independent basis, Debye):
    X=             -0.5564    Y=             -1.6320    Z=              1.5470  Tot=              2.3165
 Quadrupole moment (field-independent basis, Debye-Ang):
   XX=           -303.7755   YY=           -239.1897   ZZ=           -260.5936
   XY=             14.9539   XZ=             -4.2672   YZ=              1.5690

 Normal termination of Gaussian 16 at Thu Jul 11 21:24:55 2019.
