 Gaussian 16, Revision A.03,
 Gaussian 16:  ES64L-G16RevA.03 25-Dec-2016

 -------------------------------------
 # td=(NStates=1) CAM-B3LYP/6-31G(d,p)
 -------------------------------------

 --
 TD
 --
 Symbolic Z-matrix:
 Charge =  0 Multiplicity = 1

                         Standard orientation:
 ---------------------------------------------------------------------
 Center     Atomic      Atomic             Coordinates (Angstroms)
 Number     Number       Type             X           Y           Z
 ---------------------------------------------------------------------
      1          8           0       14.710969   -2.337097   -0.149648
      2          8           0      -14.764567    1.644963    1.210583
      3          6           0       11.186948   -1.482092    1.027481
      4          6           0      -12.436356   -1.089974    0.560518
      5          6           0       12.687047   -1.995632    1.145796
      6          6           0      -13.684071   -0.365728    0.571241
      7          6           0       13.399965   -1.915425   -0.211970
      8          6           0      -13.549837    1.102784    1.091372
      9          6           0       10.923937   -0.318613    0.064915
     10          6           0      -11.285016   -0.245323   -0.176619
     11          6           0       13.208247   -0.595909   -0.772816
     12          6           0      -12.755054    1.771135    0.016193
     13          6           0       11.902547    0.089858   -0.813521
     14          6           0      -11.468336    1.074620   -0.493407
     15          6           0       10.593444   -1.210203    2.418455
     16          6           0       10.276068   -2.726287    0.474350
     17          6           0      -12.036936   -1.440198    2.016079
     18          6           0      -12.602478   -2.370699   -0.251805
     19          6           0        9.652813    0.450713    0.149903
     20          6           0      -10.063505   -0.939156   -0.382027
     21          6           0       11.795594    1.199632   -1.797639
     22          6           0      -10.530655    1.940456   -1.277819
     23          6           0        9.399093    1.647912    0.027999
     24          6           0       -8.776354   -0.479120   -0.264518
     25          6           0        8.109948    2.267201    0.122738
     26          6           0       -7.497276   -1.197350   -0.603087
     27          6           0        7.957516    3.713471    0.552631
     28          6           0       -7.611600   -2.656755   -1.097456
     29          6           0        6.985046    1.612670   -0.116278
     30          6           0       -6.433474   -0.515714   -0.476508
     31          6           0        5.683016    1.988999    0.191079
     32          6           0       -5.035889   -0.962862   -0.862029
     33          6           0        4.530879    1.315107   -0.194854
     34          6           0       -3.876850   -0.270544   -0.449797
     35          6           0        3.184659    1.734006    0.111798
     36          6           0       -2.597338   -0.697793   -0.612698
     37          6           0        2.896013    3.180698    0.617119
     38          6           0       -2.252733   -2.085698   -0.898059
     39          6           0        2.078333    0.867986   -0.329802
     40          6           0       -1.598723    0.200536   -0.251278
     41          6           0        0.727950    1.079259   -0.141281
     42          6           0       -0.214139    0.174042   -0.409191
     43          1           0       13.175394   -1.352337    1.721634
     44          1           0       12.813420   -3.121329    1.456285
     45          1           0      -14.528184   -0.724433    1.249081
     46          1           0      -14.128979   -0.246494   -0.479136
     47          1           0       12.800788   -2.655118   -0.954648
     48          1           0      -12.941714    1.144751    1.969390
     49          1           0       13.730953    0.159095   -0.172728
     50          1           0       13.461537   -0.760102   -2.003181
     51          1           0      -13.449055    1.808673   -0.870763
     52          1           0      -12.351878    2.802283    0.261502
     53          1           0       10.693547   -2.143228    2.992719
     54          1           0        9.706397   -0.693539    2.515015
     55          1           0       11.307660   -0.455959    2.727505
     56          1           0       10.419216   -2.908026   -0.576137
     57          1           0       10.467802   -3.634595    1.031636
     58          1           0        9.147469   -2.453303    0.832164
     59          1           0      -11.926465   -0.621981    2.684732
     60          1           0      -11.135466   -2.048434    2.076927
     61          1           0      -12.895797   -2.205682    2.610334
     62          1           0      -13.512181   -2.930699    0.162526
     63          1           0      -11.738561   -2.996787   -0.367712
     64          1           0      -12.865791   -2.386388   -1.327871
     65          1           0        8.869364   -0.241517    0.469779
     66          1           0      -10.127250   -1.881989   -0.494262
     67          1           0       10.657949    1.449807   -2.009367
     68          1           0       12.016453    2.253624   -1.328351
     69          1           0       12.387241    1.082117   -2.642615
     70          1           0      -11.015271    2.409813   -2.148213
     71          1           0       -9.808011    1.344914   -1.948183
     72          1           0      -10.168308    2.651531   -0.668085
     73          1           0       14.669858   -3.343598    0.098254
     74          1           0      -15.217175    1.326817    2.149277
     75          1           0       10.174341    2.312894   -0.022301
     76          1           0       -8.343776    0.500991   -0.056553
     77          1           0        9.039202    4.239198    0.362321
     78          1           0        7.304132    4.191069   -0.073692
     79          1           0        7.771862    3.888399    1.623347
     80          1           0       -8.097718   -3.246655   -0.277414
     81          1           0       -8.425909   -2.730235   -1.871190
     82          1           0       -6.694339   -3.094712   -1.644788
     83          1           0        7.017034    0.663229   -0.622312
     84          1           0       -6.526639    0.423188   -0.351025
     85          1           0        5.519151    3.129301    0.509186
     86          1           0       -5.265983   -1.943045   -1.371669
     87          1           0        4.621662    0.482883   -0.805305
     88          1           0       -4.227472    0.858710   -0.052140
     89          1           0        3.120839    3.463702    1.695821
     90          1           0        1.780501    3.450092    0.266585
     91          1           0        3.309777    3.835390   -0.139234
     92          1           0       -2.817636   -2.826340   -0.226522
     93          1           0       -2.475224   -2.154643   -1.954915
     94          1           0       -1.217364   -2.045350   -1.007697
     95          1           0        2.486671   -0.090499   -0.536634
     96          1           0       -1.919453    1.260238   -0.002258
     97          1           0        0.422333    2.041082    0.149298
     98          1           0        0.123155   -0.799789   -0.747136
 ---------------------------------------------------------------------

 SCF Done:  E(RCAM-B3LYP) =  -1706.93613752     A.U. after   15 cycles

 Excitation energies and oscillator strengths:

 Excited State   1:      Singlet-A      2.3088 eV  537.02 nm  f=3.6687  <S**2>=0.000
     155 ->158         0.13737
     156 ->157         0.69335
 This state for optimization and/or second-order correction.
 Total Energy, E(TD-HF/TD-DFT) =  -1706.85129204
 Copying the excited state density for this state as the 1-particle RhoCI density.

 The electronic state is 1-A.
 Alpha  occ. eigenvalues --  -19.22539 -19.22490 -10.30889 -10.29297 -10.28484
 Alpha  occ. eigenvalues --  -10.28140 -10.27595 -10.27508 -10.27169 -10.26996
 Alpha  occ. eigenvalues --  -10.26852 -10.26786 -10.26685 -10.26631 -10.26550
 Alpha  occ. eigenvalues --  -10.26265 -10.26253 -10.26206 -10.26048 -10.26040
 Alpha  occ. eigenvalues --  -10.26016 -10.25964 -10.25918 -10.25914 -10.25818
 Alpha  occ. eigenvalues --  -10.25741 -10.25585 -10.25457 -10.25350 -10.25280
 Alpha  occ. eigenvalues --  -10.25218 -10.25189 -10.25173 -10.24652 -10.24614
 Alpha  occ. eigenvalues --  -10.24535 -10.24407 -10.24318 -10.24203 -10.23645
 Alpha  occ. eigenvalues --  -10.23621 -10.23495  -1.11062  -1.10487  -0.93891
 Alpha  occ. eigenvalues --   -0.93376  -0.92745  -0.92012  -0.91249  -0.90112
 Alpha  occ. eigenvalues --   -0.87865  -0.86941  -0.86923  -0.85840  -0.85222
 Alpha  occ. eigenvalues --   -0.82724  -0.81750  -0.80768  -0.79858  -0.78446
 Alpha  occ. eigenvalues --   -0.77358  -0.76484  -0.76019  -0.75984  -0.75816
 Alpha  occ. eigenvalues --   -0.75671  -0.74862  -0.74536  -0.73602  -0.71194
 Alpha  occ. eigenvalues --   -0.69188  -0.67706  -0.66012  -0.65009  -0.64121
 Alpha  occ. eigenvalues --   -0.63379  -0.63048  -0.61940  -0.60782  -0.60151
 Alpha  occ. eigenvalues --   -0.59905  -0.59317  -0.59114  -0.57754  -0.56198
 Alpha  occ. eigenvalues --   -0.55871  -0.55791  -0.55130  -0.54368  -0.54247
 Alpha  occ. eigenvalues --   -0.53790  -0.52875  -0.52606  -0.51552  -0.51285
 Alpha  occ. eigenvalues --   -0.50932  -0.50638  -0.50385  -0.49969  -0.49559
 Alpha  occ. eigenvalues --   -0.49371  -0.49170  -0.48840  -0.48687  -0.48468
 Alpha  occ. eigenvalues --   -0.48258  -0.47854  -0.47314  -0.47064  -0.46362
 Alpha  occ. eigenvalues --   -0.46191  -0.45956  -0.45793  -0.45695  -0.44678
 Alpha  occ. eigenvalues --   -0.44278  -0.44224  -0.43953  -0.43347  -0.43227
 Alpha  occ. eigenvalues --   -0.42624  -0.42486  -0.42408  -0.42167  -0.41874
 Alpha  occ. eigenvalues --   -0.41680  -0.41451  -0.41133  -0.40733  -0.40319
 Alpha  occ. eigenvalues --   -0.40156  -0.39949  -0.39515  -0.39347  -0.39219
 Alpha  occ. eigenvalues --   -0.39011  -0.38774  -0.38437  -0.38188  -0.37476
 Alpha  occ. eigenvalues --   -0.37274  -0.37007  -0.36689  -0.36208  -0.36140
 Alpha  occ. eigenvalues --   -0.35358  -0.35146  -0.34636  -0.32608  -0.31597
 Alpha  occ. eigenvalues --   -0.30913  -0.30229  -0.27632  -0.25869  -0.23813
 Alpha  occ. eigenvalues --   -0.19490
 Alpha virt. eigenvalues --   -0.05564  -0.00130   0.02780   0.05393   0.08175
 Alpha virt. eigenvalues --    0.09051   0.09500   0.10574   0.11772   0.12337
 Alpha virt. eigenvalues --    0.12470   0.12986   0.13303   0.13695   0.13785

 Mulliken charges:
               1
     1  O   -0.548793
     2  O   -0.548680
     3  C   -0.041543
     4  C    0.021636
     5  C   -0.174944
     6  C   -0.183014
     7  C    0.188142
     8  C    0.185753
     9  C    0.069244
    10  C    0.064599
    11  C   -0.211659
    12  C   -0.219100
    13  C    0.051050
    14  C    0.035103
    15  C   -0.301992
    16  C   -0.300449
    17  C   -0.285469
    18  C   -0.318440
    19  C   -0.091180
    20  C   -0.111452
    21  C   -0.365720
    22  C   -0.363370
    23  C   -0.079968
    24  C   -0.091147
    25  C    0.073588
    26  C    0.137914
    27  C   -0.370418
    28  C   -0.386170
    29  C   -0.108611
    30  C   -0.135416
    31  C   -0.092339
    32  C   -0.099604
    33  C   -0.110035
    34  C   -0.122185
    35  C    0.074626
    36  C    0.109521
    37  C   -0.373264
    38  C   -0.349606
    39  C   -0.128295
    40  C   -0.117688
    41  C   -0.056576
    42  C   -0.085954
    43  H    0.108548
    44  H    0.067541
    45  H    0.061380
    46  H    0.091774
    47  H    0.038624
    48  H    0.073239
    49  H    0.122910
    50  H    0.076002
    51  H    0.110415
    52  H    0.085499
    53  H    0.101745
    54  H    0.118569
    55  H    0.095515
    56  H    0.109146
    57  H    0.096544
    58  H    0.078105
    59  H    0.113338
    60  H    0.109290
    61  H    0.052124
    62  H    0.092398
    63  H    0.102960
    64  H    0.104310
    65  H    0.077872
    66  H    0.048855
    67  H    0.119641
    68  H    0.106809
    69  H    0.114626
    70  H    0.109725
    71  H    0.116800
    72  H    0.128190
    73  H    0.317519
    74  H    0.315382
    75  H    0.071096
    76  H    0.072943
    77  H    0.074337
    78  H    0.135745
    79  H    0.128646
    80  H    0.125177
    81  H    0.117800
    82  H    0.109410
    83  H    0.077134
    84  H    0.063997
    85  H    0.073521
    86  H    0.071061
    87  H    0.084265
    88  H    0.080810
    89  H    0.127722
    90  H    0.090996
    91  H    0.131147
    92  H    0.131413
    93  H    0.124657
    94  H    0.111307
    95  H    0.083116
    96  H    0.063547
    97  H    0.078477
    98  H    0.068179
 Sum of Mulliken charges =  -0.00000

 Dipole moment (field-independent basis, Debye):
    X=             -0.3478    Y=             -1.0018    Z=              0.8816  Tot=              1.3791
 Quadrupole moment (field-independent basis, Debye-Ang):
   XX=           -270.7969   YY=           -242.6435   ZZ=           -257.0426
   XY=              2.3006   XZ=             -9.0226   YZ=              3.7338

 Normal termination of Gaussian 16 at Tue Jul  9 17:56:23 2019.
