 Gaussian 16, Revision A.03,
 Gaussian 16:  ES64L-G16RevA.03 25-Dec-2016

 -------------------------------------
 # td=(NStates=1) CAM-B3LYP/6-31G(d,p)
 -------------------------------------

 --
 TD
 --
 Symbolic Z-matrix:
 Charge =  0 Multiplicity = 1

                         Standard orientation:
 ---------------------------------------------------------------------
 Center     Atomic      Atomic             Coordinates (Angstroms)
 Number     Number       Type             X           Y           Z
 ---------------------------------------------------------------------
      1          8           0       14.725367   -2.240738   -0.147260
      2          8           0      -14.678676    1.827872    1.139065
      3          6           0       11.219979   -1.414985    1.011804
      4          6           0      -12.328095   -0.976064    0.699329
      5          6           0       12.739642   -1.743665    1.085740
      6          6           0      -13.691554   -0.305994    0.723051
      7          6           0       13.339841   -1.882467   -0.277912
      8          6           0      -13.453532    1.172894    1.006498
      9          6           0       10.984906   -0.274222    0.050230
     10          6           0      -11.277821   -0.194668   -0.074554
     11          6           0       13.334603   -0.444802   -0.879118
     12          6           0      -12.731951    1.824762   -0.145193
     13          6           0       11.924336    0.170182   -0.842059
     14          6           0      -11.592635    1.029255   -0.464628
     15          6           0       10.633335   -1.099756    2.316465
     16          6           0       10.541883   -2.695812    0.544674
     17          6           0      -11.871476   -1.377979    2.131518
     18          6           0      -12.662279   -2.332795   -0.031435
     19          6           0        9.634642    0.318733    0.120380
     20          6           0      -10.072251   -1.028491   -0.368654
     21          6           0       11.720823    1.248859   -1.836263
     22          6           0      -10.670175    1.705354   -1.481496
     23          6           0        9.382617    1.635821    0.077564
     24          6           0       -8.853477   -0.269371   -0.522466
     25          6           0        8.052280    2.276005    0.252813
     26          6           0       -7.644922   -1.144529   -0.760726
     27          6           0        7.925078    3.727452    0.570716
     28          6           0       -7.704745   -2.662335   -1.057360
     29          6           0        6.920196    1.546183   -0.021950
     30          6           0       -6.411724   -0.578744   -0.426072
     31          6           0        5.563988    2.009714    0.181536
     32          6           0       -5.115831   -1.019726   -0.807491
     33          6           0        4.457177    1.138305   -0.039678
     34          6           0       -3.935415   -0.290508   -0.547324
     35          6           0        3.206717    1.566852    0.123519
     36          6           0       -2.618555   -0.746883   -0.745891
     37          6           0        2.896598    3.018423    0.529753
     38          6           0       -2.272352   -2.083779   -1.033646
     39          6           0        2.113987    0.599495   -0.064735
     40          6           0       -1.639061    0.250734   -0.443042
     41          6           0        0.755382    0.905841   -0.054032
     42          6           0       -0.271873    0.024796   -0.260709
     43          1           0       13.231774   -0.914209    1.853845
     44          1           0       12.681881   -2.470005    1.888023
     45          1           0      -14.467281   -0.826198    1.412100
     46          1           0      -14.315629   -0.423863   -0.125748
     47          1           0       12.820024   -2.532359   -1.025997
     48          1           0      -12.812394    1.484855    1.885832
     49          1           0       13.977846    0.229018   -0.476262
     50          1           0       13.583849   -0.540018   -1.939225
     51          1           0      -13.447833    1.669657   -1.040915
     52          1           0      -12.649246    2.894661    0.303200
     53          1           0       11.107380   -1.976808    2.966414
     54          1           0        9.382142   -1.289254    2.497139
     55          1           0       11.285869   -0.535170    2.873699
     56          1           0       10.651354   -2.854290   -0.591058
     57          1           0       10.594375   -3.584106    1.205435
     58          1           0        9.390456   -2.383019    0.715994
     59          1           0      -11.724904   -0.632538    2.804175
     60          1           0      -10.942112   -1.858058    2.069139
     61          1           0      -12.816521   -2.118338    2.610732
     62          1           0      -13.708307   -2.664740    0.292932
     63          1           0      -11.885367   -3.118287   -0.153555
     64          1           0      -12.890344   -2.209646   -1.012268
     65          1           0        8.831493   -0.339135    0.144719
     66          1           0       -9.906269   -2.023101   -0.364977
     67          1           0       10.750613    1.345001   -2.060948
     68          1           0       12.005047    2.390094   -1.529628
     69          1           0       12.238792    1.187356   -2.736285
     70          1           0      -11.159253    2.339488   -2.194814
     71          1           0      -10.016185    1.206776   -2.067917
     72          1           0      -10.088034    2.474054   -1.029352
     73          1           0       14.733255   -3.370320   -0.208710
     74          1           0      -15.040481    1.456938    2.025974
     75          1           0       10.265420    2.377998    0.115599
     76          1           0       -8.673277    0.654951   -0.267806
     77          1           0        8.901365    4.086707    0.552644
     78          1           0        7.446599    4.359589   -0.334756
     79          1           0        7.293455    3.649914    1.526057
     80          1           0       -7.743271   -3.275348    0.011734
     81          1           0       -8.344226   -2.970228   -1.890676
     82          1           0       -6.595577   -3.011781   -1.299260
     83          1           0        7.088948    0.495433   -0.284006
     84          1           0       -6.581652    0.561403   -0.383362
     85          1           0        5.393520    3.116561    0.264528
     86          1           0       -5.048418   -1.983536   -1.238417
     87          1           0        4.665207   -0.019884   -0.117906
     88          1           0       -4.149299    0.863986   -0.535986
     89          1           0        3.255722    3.120557    1.601810
     90          1           0        1.776090    3.296626    0.544062
     91          1           0        3.564504    3.720269   -0.121011
     92          1           0       -2.253557   -2.842637   -0.098806
     93          1           0       -3.228463   -2.417463   -1.850792
     94          1           0       -1.125759   -2.159639   -1.535101
     95          1           0        2.491882   -0.275637   -0.259480
     96          1           0       -2.053515    1.209320   -0.198212
     97          1           0        0.656669    2.036747    0.066244
     98          1           0        0.058405   -0.917930   -0.628174
 ---------------------------------------------------------------------

 SCF Done:  E(RCAM-B3LYP) =  -1706.85843358     A.U. after   16 cycles

 Excitation energies and oscillator strengths:

 Excited State   1:      Singlet-A      1.8699 eV  663.07 nm  f=3.6693  <S**2>=0.000
     155 ->158        -0.13755
     156 ->157         0.69867
     156 <-157        -0.11480
 This state for optimization and/or second-order correction.
 Total Energy, E(TD-HF/TD-DFT) =  -1706.78971740
 Copying the excited state density for this state as the 1-particle RhoCI density.

 The electronic state is 1-A.
 Alpha  occ. eigenvalues --  -19.22324 -19.21117 -10.31509 -10.29662 -10.29396
 Alpha  occ. eigenvalues --  -10.28245 -10.28025 -10.27539 -10.27444 -10.27182
 Alpha  occ. eigenvalues --  -10.27083 -10.26912 -10.26855 -10.26848 -10.26729
 Alpha  occ. eigenvalues --  -10.26721 -10.26638 -10.26556 -10.26548 -10.26486
 Alpha  occ. eigenvalues --  -10.26421 -10.26353 -10.26252 -10.26109 -10.26071
 Alpha  occ. eigenvalues --  -10.26061 -10.26058 -10.25995 -10.25943 -10.25893
 Alpha  occ. eigenvalues --  -10.25816 -10.25649 -10.25579 -10.25329 -10.25305
 Alpha  occ. eigenvalues --  -10.25288 -10.24760 -10.24649 -10.24477 -10.24134
 Alpha  occ. eigenvalues --  -10.23937 -10.22628  -1.09360  -1.06939  -0.94213
 Alpha  occ. eigenvalues --   -0.94148  -0.92206  -0.91602  -0.90238  -0.89628
 Alpha  occ. eigenvalues --   -0.87788  -0.87208  -0.87028  -0.85159  -0.84701
 Alpha  occ. eigenvalues --   -0.82363  -0.81200  -0.80343  -0.79073  -0.77980
 Alpha  occ. eigenvalues --   -0.76855  -0.76580  -0.76206  -0.75920  -0.75847
 Alpha  occ. eigenvalues --   -0.75392  -0.75241  -0.75137  -0.73066  -0.70723
 Alpha  occ. eigenvalues --   -0.68667  -0.67297  -0.66052  -0.65303  -0.64539
 Alpha  occ. eigenvalues --   -0.63974  -0.63347  -0.61975  -0.59878  -0.59358
 Alpha  occ. eigenvalues --   -0.59057  -0.58553  -0.58267  -0.57229  -0.56164
 Alpha  occ. eigenvalues --   -0.55805  -0.55225  -0.54477  -0.54198  -0.53764
 Alpha  occ. eigenvalues --   -0.53417  -0.53060  -0.52658  -0.51640  -0.50772
 Alpha  occ. eigenvalues --   -0.50522  -0.49998  -0.49607  -0.49327  -0.49197
 Alpha  occ. eigenvalues --   -0.49085  -0.48489  -0.48096  -0.47959  -0.47865
 Alpha  occ. eigenvalues --   -0.47604  -0.47472  -0.47450  -0.46820  -0.46557
 Alpha  occ. eigenvalues --   -0.46041  -0.45593  -0.45357  -0.45052  -0.44692
 Alpha  occ. eigenvalues --   -0.44381  -0.44072  -0.43856  -0.43579  -0.43171
 Alpha  occ. eigenvalues --   -0.43066  -0.42924  -0.42268  -0.42200  -0.41874
 Alpha  occ. eigenvalues --   -0.41076  -0.40896  -0.40837  -0.40587  -0.40451
 Alpha  occ. eigenvalues --   -0.40213  -0.39795  -0.39564  -0.39342  -0.39216
 Alpha  occ. eigenvalues --   -0.39125  -0.38895  -0.38616  -0.38208  -0.37749
 Alpha  occ. eigenvalues --   -0.37072  -0.36830  -0.36416  -0.36183  -0.35438
 Alpha  occ. eigenvalues --   -0.34762  -0.34398  -0.33702  -0.32201  -0.32006
 Alpha  occ. eigenvalues --   -0.31489  -0.29908  -0.27927  -0.26054  -0.23080
 Alpha  occ. eigenvalues --   -0.18177
 Alpha virt. eigenvalues --   -0.06801  -0.01395   0.02177   0.05049   0.07556
 Alpha virt. eigenvalues --    0.08376   0.09111   0.10866   0.10881   0.11265
 Alpha virt. eigenvalues --    0.11469   0.11983   0.12347   0.12787   0.12892

 Mulliken charges:
               1
     1  O   -0.560941
     2  O   -0.564139
     3  C   -0.029030
     4  C   -0.030148
     5  C   -0.171387
     6  C   -0.197270
     7  C    0.158322
     8  C    0.146997
     9  C    0.086273
    10  C    0.095810
    11  C   -0.205347
    12  C   -0.221505
    13  C    0.027429
    14  C    0.057872
    15  C   -0.292105
    16  C   -0.279507
    17  C   -0.265339
    18  C   -0.316626
    19  C   -0.104118
    20  C   -0.113996
    21  C   -0.362087
    22  C   -0.381126
    23  C   -0.105425
    24  C   -0.072997
    25  C    0.052600
    26  C    0.076920
    27  C   -0.354216
    28  C   -0.374369
    29  C   -0.091652
    30  C   -0.131832
    31  C   -0.125418
    32  C   -0.103405
    33  C   -0.118826
    34  C   -0.117116
    35  C    0.113030
    36  C    0.152778
    37  C   -0.371569
    38  C   -0.358587
    39  C   -0.090128
    40  C   -0.108755
    41  C   -0.065451
    42  C   -0.099126
    43  H    0.071763
    44  H    0.089137
    45  H    0.068856
    46  H    0.109802
    47  H    0.094836
    48  H    0.074001
    49  H    0.133419
    50  H    0.098048
    51  H    0.118500
    52  H    0.117627
    53  H    0.061691
    54  H    0.105759
    55  H    0.113636
    56  H    0.096546
    57  H    0.110976
    58  H    0.064967
    59  H    0.106668
    60  H    0.107088
    61  H    0.054693
    62  H    0.087527
    63  H    0.091721
    64  H    0.113112
    65  H    0.087561
    66  H    0.102471
    67  H    0.134562
    68  H    0.081623
    69  H    0.109270
    70  H    0.096244
    71  H    0.126757
    72  H    0.107738
    73  H    0.298682
    74  H    0.305202
    75  H    0.082079
    76  H    0.094146
    77  H    0.113609
    78  H    0.105612
    79  H    0.132563
    80  H    0.113510
    81  H    0.130465
    82  H    0.099123
    83  H    0.071763
    84  H    0.066162
    85  H    0.094184
    86  H    0.077234
    87  H    0.087688
    88  H    0.085270
    89  H    0.127241
    90  H    0.108723
    91  H    0.112851
    92  H    0.122365
    93  H    0.079571
    94  H    0.100303
    95  H    0.055695
    96  H    0.078574
    97  H    0.067136
    98  H    0.069159
 Sum of Mulliken charges =  -0.00000

 Dipole moment (field-independent basis, Debye):
    X=              0.8797    Y=             -1.7864    Z=              0.3069  Tot=              2.0148
 Quadrupole moment (field-independent basis, Debye-Ang):
   XX=           -283.4898   YY=           -242.7021   ZZ=           -260.4531
   XY=              0.9027   XZ=            -12.5631   YZ=              3.7874

 Normal termination of Gaussian 16 at Tue Jul  9 07:12:53 2019.
