 Gaussian 16, Revision A.03,
 Gaussian 16:  ES64L-G16RevA.03 25-Dec-2016

 -------------------------------------
 # td=(NStates=1) CAM-B3LYP/6-31G(d,p)
 -------------------------------------

 --
 TD
 --
 Symbolic Z-matrix:
 Charge =  0 Multiplicity = 1

                         Standard orientation:
 ---------------------------------------------------------------------
 Center     Atomic      Atomic             Coordinates (Angstroms)
 Number     Number       Type             X           Y           Z
 ---------------------------------------------------------------------
      1          8           0       14.606405   -2.402904   -0.204529
      2          8           0      -14.655942    1.800487    1.109890
      3          6           0       11.183890   -1.469321    1.078878
      4          6           0      -12.326223   -1.047681    0.732311
      5          6           0       12.716890   -1.801375    1.105969
      6          6           0      -13.650765   -0.324308    0.815540
      7          6           0       13.308486   -1.999794   -0.322995
      8          6           0      -13.443013    1.239475    0.992235
      9          6           0       10.959363   -0.294127    0.178546
     10          6           0      -11.308307   -0.306498   -0.101647
     11          6           0       13.187658   -0.698564   -0.994611
     12          6           0      -12.779316    1.712862   -0.304938
     13          6           0       11.917433    0.018512   -0.810580
     14          6           0      -11.544186    0.934745   -0.666744
     15          6           0       10.835203   -1.062606    2.465996
     16          6           0       10.329770   -2.674263    0.560071
     17          6           0      -11.630678   -1.141817    2.121953
     18          6           0      -12.660161   -2.451556    0.240280
     19          6           0        9.641910    0.366946    0.267603
     20          6           0      -10.074036   -1.057042   -0.308567
     21          6           0       11.644786    1.094631   -1.856108
     22          6           0      -10.578788    1.598930   -1.643528
     23          6           0        9.361871    1.687566    0.084113
     24          6           0       -8.754246   -0.435659   -0.355249
     25          6           0        8.096480    2.329753    0.185613
     26          6           0       -7.478757   -1.198438   -0.651657
     27          6           0        8.042615    3.737370    0.467970
     28          6           0       -7.741042   -2.620309   -1.165611
     29          6           0        6.829550    1.606436   -0.039774
     30          6           0       -6.326249   -0.497654   -0.451478
     31          6           0        5.625703    2.148824    0.102614
     32          6           0       -5.064439   -1.127587   -0.600089
     33          6           0        4.491318    1.364898    0.071982
     34          6           0       -4.052152   -0.249993   -0.499209
     35          6           0        3.057123    1.827581    0.091550
     36          6           0       -2.644530   -0.718081   -0.694485
     37          6           0        2.705520    3.195307    0.423212
     38          6           0       -2.313962   -2.133785   -1.121643
     39          6           0        2.127354    0.837731   -0.200492
     40          6           0       -1.668056    0.239876   -0.332666
     41          6           0        0.729585    1.084049   -0.056139
     42          6           0       -0.239523    0.015890   -0.459915
     43          1           0       13.225242   -0.795607    1.623572
     44          1           0       12.987032   -2.778958    1.523569
     45          1           0      -14.099633   -0.855177    1.896363
     46          1           0      -14.336546   -0.709845    0.016924
     47          1           0       12.555879   -2.653352   -0.998538
     48          1           0      -12.838798    1.405051    1.804208
     49          1           0       14.177762   -0.186376   -0.532436
     50          1           0       13.648686   -0.778912   -2.100890
     51          1           0      -13.443203    1.814949   -1.181897
     52          1           0      -12.314207    2.733037    0.013936
     53          1           0       11.127968   -1.725890    3.523122
     54          1           0        9.786937   -0.855421    2.716745
     55          1           0       11.388255   -0.127581    2.754432
     56          1           0       10.669029   -2.905750   -0.347505
     57          1           0       10.106128   -3.561848    1.137429
     58          1           0        9.316982   -2.475523    0.176496
     59          1           0      -11.627732   -0.224973    2.369783
     60          1           0      -10.726403   -1.611046    2.142837
     61          1           0      -12.319496   -1.493318    2.771952
     62          1           0      -13.392426   -2.797944    0.925379
     63          1           0      -11.917097   -3.042002    0.364342
     64          1           0      -13.264880   -2.463976   -0.782167
     65          1           0        8.908444   -0.235339    0.734377
     66          1           0       -9.973231   -2.175115   -0.543775
     67          1           0       10.599265    0.928857   -2.401603
     68          1           0       11.588258    2.033878   -1.284098
     69          1           0       12.512211    1.131581   -2.729743
     70          1           0      -11.238027    2.095224   -2.342240
     71          1           0       -9.845657    0.916617   -2.194261
     72          1           0       -9.928173    2.252852   -1.135650
     73          1           0       14.604858   -3.291649    0.337586
     74          1           0      -15.320803    1.600190    1.836587
     75          1           0       10.055113    2.487031   -0.146364
     76          1           0       -8.455131    0.567996   -0.277215
     77          1           0        9.144772    4.188394    0.444010
     78          1           0        7.407224    4.352736   -0.291607
     79          1           0        7.773827    4.015697    1.574718
     80          1           0       -7.678052   -3.427500   -0.185126
     81          1           0       -8.607693   -2.818029   -1.811499
     82          1           0       -6.716148   -2.928701   -1.855972
     83          1           0        6.953590    0.569037   -0.191694
     84          1           0       -6.374863    0.642115   -0.003192
     85          1           0        5.384769    3.306400    0.300822
     86          1           0       -5.125953   -2.006708   -0.971535
     87          1           0        4.733144    0.250766   -0.127663
     88          1           0       -4.123481    0.746724   -0.361078
     89          1           0        2.563036    3.491414    1.581901
     90          1           0        1.728667    3.609522   -0.170724
     91          1           0        3.625365    3.841802   -0.091407
     92          1           0       -2.789503   -2.934792   -0.630836
     93          1           0       -2.606158   -2.322033   -2.226906
     94          1           0       -1.130442   -2.337755   -1.212131
     95          1           0        2.367433   -0.103226   -0.432846
     96          1           0       -1.947802    1.126843    0.023022
     97          1           0        0.323640    1.883054    0.561665
     98          1           0        0.189853   -0.933632   -0.925936
 ---------------------------------------------------------------------

 SCF Done:  E(RCAM-B3LYP) =  -1706.87146101     A.U. after   15 cycles

 Excitation energies and oscillator strengths:

 Excited State   1:      Singlet-A      2.0958 eV  591.57 nm  f=3.4215  <S**2>=0.000
     155 ->158         0.16251
     156 ->157         0.68598
 This state for optimization and/or second-order correction.
 Total Energy, E(TD-HF/TD-DFT) =  -1706.79443999
 Copying the excited state density for this state as the 1-particle RhoCI density.

 The electronic state is 1-A.
 Alpha  occ. eigenvalues --  -19.22888 -19.20474 -10.30520 -10.30219 -10.29502
 Alpha  occ. eigenvalues --  -10.28778 -10.28115 -10.28083 -10.27902 -10.27665
 Alpha  occ. eigenvalues --  -10.27606 -10.27288 -10.27214 -10.27143 -10.27111
 Alpha  occ. eigenvalues --  -10.26998 -10.26935 -10.26891 -10.26872 -10.26752
 Alpha  occ. eigenvalues --  -10.26592 -10.26458 -10.26349 -10.26179 -10.26156
 Alpha  occ. eigenvalues --  -10.26115 -10.26091 -10.25975 -10.25965 -10.25921
 Alpha  occ. eigenvalues --  -10.25859 -10.25715 -10.25708 -10.25498 -10.25282
 Alpha  occ. eigenvalues --  -10.25231 -10.25064 -10.24756 -10.24322 -10.23637
 Alpha  occ. eigenvalues --  -10.22917 -10.20608  -1.11099  -1.10251  -0.93769
 Alpha  occ. eigenvalues --   -0.93109  -0.91904  -0.91564  -0.90139  -0.88898
 Alpha  occ. eigenvalues --   -0.86953  -0.86643  -0.86556  -0.85278  -0.83683
 Alpha  occ. eigenvalues --   -0.82746  -0.81468  -0.79552  -0.78612  -0.78051
 Alpha  occ. eigenvalues --   -0.77971  -0.77530  -0.75702  -0.75061  -0.74845
 Alpha  occ. eigenvalues --   -0.74562  -0.74427  -0.74400  -0.72582  -0.70032
 Alpha  occ. eigenvalues --   -0.69026  -0.67687  -0.65216  -0.64563  -0.63775
 Alpha  occ. eigenvalues --   -0.63595  -0.62765  -0.62236  -0.61477  -0.59963
 Alpha  occ. eigenvalues --   -0.59351  -0.58880  -0.58424  -0.58149  -0.56149
 Alpha  occ. eigenvalues --   -0.55702  -0.55048  -0.54493  -0.54220  -0.53616
 Alpha  occ. eigenvalues --   -0.53120  -0.52580  -0.51874  -0.51373  -0.50955
 Alpha  occ. eigenvalues --   -0.50577  -0.50224  -0.50062  -0.49507  -0.49343
 Alpha  occ. eigenvalues --   -0.49087  -0.48600  -0.48129  -0.47801  -0.47499
 Alpha  occ. eigenvalues --   -0.47342  -0.46684  -0.46582  -0.46238  -0.46067
 Alpha  occ. eigenvalues --   -0.45755  -0.45620  -0.45216  -0.45033  -0.44778
 Alpha  occ. eigenvalues --   -0.44320  -0.43950  -0.43699  -0.43464  -0.43314
 Alpha  occ. eigenvalues --   -0.42729  -0.42660  -0.42528  -0.42358  -0.42174
 Alpha  occ. eigenvalues --   -0.41611  -0.41538  -0.41231  -0.41056  -0.40205
 Alpha  occ. eigenvalues --   -0.39784  -0.39690  -0.39432  -0.39282  -0.39095
 Alpha  occ. eigenvalues --   -0.38798  -0.38677  -0.38539  -0.38282  -0.37656
 Alpha  occ. eigenvalues --   -0.37246  -0.37074  -0.36155  -0.35761  -0.35471
 Alpha  occ. eigenvalues --   -0.34798  -0.34194  -0.33565  -0.31950  -0.31562
 Alpha  occ. eigenvalues --   -0.30580  -0.28916  -0.27632  -0.24988  -0.22304
 Alpha  occ. eigenvalues --   -0.18896
 Alpha virt. eigenvalues --   -0.05624  -0.01515   0.01769   0.05094   0.06949
 Alpha virt. eigenvalues --    0.09560   0.10319   0.11414   0.11773   0.11949
 Alpha virt. eigenvalues --    0.12113   0.12263   0.12637   0.12906   0.13187

 Mulliken charges:
               1
     1  O   -0.552244
     2  O   -0.577506
     3  C   -0.001833
     4  C   -0.044139
     5  C   -0.172352
     6  C   -0.204091
     7  C    0.193086
     8  C    0.225325
     9  C    0.052115
    10  C    0.103788
    11  C   -0.239931
    12  C   -0.224442
    13  C    0.079962
    14  C    0.027196
    15  C   -0.299461
    16  C   -0.322409
    17  C   -0.279171
    18  C   -0.280060
    19  C   -0.113311
    20  C   -0.172704
    21  C   -0.355901
    22  C   -0.355139
    23  C   -0.088429
    24  C   -0.092455
    25  C    0.081666
    26  C    0.097023
    27  C   -0.383490
    28  C   -0.358050
    29  C   -0.111074
    30  C   -0.136718
    31  C   -0.054344
    32  C   -0.033491
    33  C   -0.125838
    34  C   -0.093251
    35  C    0.111619
    36  C    0.099691
    37  C   -0.369912
    38  C   -0.377103
    39  C   -0.084335
    40  C   -0.109178
    41  C   -0.114718
    42  C   -0.105436
    43  H    0.088817
    44  H    0.066907
    45  H    0.025725
    46  H    0.099423
    47  H    0.058828
    48  H    0.086071
    49  H    0.101916
    50  H    0.092785
    51  H    0.121520
    52  H    0.096591
    53  H    0.057512
    54  H    0.105644
    55  H    0.102419
    56  H    0.112915
    57  H    0.107752
    58  H    0.096035
    59  H    0.102748
    60  H    0.116130
    61  H    0.088014
    62  H    0.098943
    63  H    0.097719
    64  H    0.083171
    65  H    0.096208
    66  H    0.090633
    67  H    0.116549
    68  H    0.128973
    69  H    0.087029
    70  H    0.102294
    71  H    0.117162
    72  H    0.121356
    73  H    0.316353
    74  H    0.317765
    75  H    0.079685
    76  H    0.073637
    77  H    0.085013
    78  H    0.117538
    79  H    0.119995
    80  H    0.100298
    81  H    0.141040
    82  H    0.072879
    83  H    0.078876
    84  H    0.081079
    85  H    0.081058
    86  H    0.071168
    87  H    0.076158
    88  H    0.084855
    89  H    0.117838
    90  H    0.107263
    91  H    0.092240
    92  H    0.134790
    93  H    0.111194
    94  H    0.096099
    95  H    0.079325
    96  H    0.075871
    97  H    0.095964
    98  H    0.085273
 Sum of Mulliken charges =  -0.00000

 Dipole moment (field-independent basis, Debye):
    X=             -1.0888    Y=             -1.3524    Z=              1.2635  Tot=              2.1472
 Quadrupole moment (field-independent basis, Debye-Ang):
   XX=           -276.0524   YY=           -243.1300   ZZ=           -261.6571
   XY=             -0.8787   XZ=             -6.6122   YZ=              4.2485

 Normal termination of Gaussian 16 at Wed Jul 17 06:24:46 2019.
