 Gaussian 16, Revision A.03,
 Gaussian 16:  ES64L-G16RevA.03 25-Dec-2016

 -------------------------------------
 # td=(NStates=1) CAM-B3LYP/6-31G(d,p)
 -------------------------------------

 --
 TD
 --
 Symbolic Z-matrix:
 Charge =  0 Multiplicity = 1

                         Standard orientation:
 ---------------------------------------------------------------------
 Center     Atomic      Atomic             Coordinates (Angstroms)
 Number     Number       Type             X           Y           Z
 ---------------------------------------------------------------------
      1          8           0       14.716269   -2.190459   -0.323411
      2          8           0      -14.868326    1.845580    0.861341
      3          6           0       11.208937   -1.442193    1.050804
      4          6           0      -12.234632   -0.925787    0.745713
      5          6           0       12.749733   -1.764370    1.034394
      6          6           0      -13.661110   -0.220420    0.679917
      7          6           0       13.364275   -1.881724   -0.415268
      8          6           0      -13.539853    1.289807    0.882418
      9          6           0       10.976396   -0.317296    0.060748
     10          6           0      -11.339423   -0.298453   -0.176464
     11          6           0       13.221076   -0.444966   -0.995202
     12          6           0      -12.701251    1.850974   -0.257894
     13          6           0       11.834258    0.162754   -0.818105
     14          6           0      -11.451839    1.015162   -0.573014
     15          6           0       10.751903   -1.069448    2.434618
     16          6           0       10.325414   -2.629063    0.611229
     17          6           0      -11.716646   -0.995305    2.106847
     18          6           0      -12.557080   -2.403843    0.170459
     19          6           0        9.622589    0.280895    0.247259
     20          6           0      -10.039523   -0.982765   -0.410142
     21          6           0       11.540087    1.276304   -1.856385
     22          6           0      -10.538526    1.713296   -1.556126
     23          6           0        9.326011    1.656677    0.092205
     24          6           0       -8.802952   -0.567935   -0.181105
     25          6           0        7.954784    2.173518    0.114706
     26          6           0       -7.560807   -1.316509   -0.479662
     27          6           0        8.062115    3.662782    0.452924
     28          6           0       -7.814337   -2.582696   -1.245922
     29          6           0        6.868748    1.381865    0.043304
     30          6           0       -6.352880   -0.746580   -0.283094
     31          6           0        5.583474    2.046232    0.277310
     32          6           0       -5.006961   -1.136501   -0.641431
     33          6           0        4.417847    1.252917   -0.020975
     34          6           0       -3.902893   -0.380320   -0.362819
     35          6           0        3.121524    1.700947    0.100173
     36          6           0       -2.605490   -0.822594   -0.439235
     37          6           0        2.876525    3.153677    0.475483
     38          6           0       -2.336044   -2.207461   -1.074597
     39          6           0        2.132177    0.830801   -0.229747
     40          6           0       -1.546753    0.093762   -0.278498
     41          6           0        0.726370    0.886024   -0.087740
     42          6           0       -0.184481   -0.049300   -0.435163
     43          1           0       13.182881   -0.964293    1.699089
     44          1           0       12.859094   -2.588021    1.716415
     45          1           0      -14.224994   -0.729078    1.514321
     46          1           0      -14.139550   -0.271504   -0.239858
     47          1           0       12.768378   -2.566247   -1.010513
     48          1           0      -12.923641    1.360104    1.712037
     49          1           0       13.785613    0.222742   -0.494224
     50          1           0       13.826904   -0.442598   -2.013894
     51          1           0      -13.389720    1.883804   -1.219733
     52          1           0      -12.774263    2.852137   -0.011032
     53          1           0       10.915419   -1.816081    3.230928
     54          1           0        9.744213   -1.013231    2.363127
     55          1           0       11.277225   -0.013672    2.787985
     56          1           0       10.573302   -2.892058   -0.336529
     57          1           0       10.451532   -3.454079    1.341625
     58          1           0        9.214396   -2.387295    0.592820
     59          1           0      -11.677832    0.121043    2.442161
     60          1           0      -10.805269   -1.497282    2.193742
     61          1           0      -12.403914   -1.412776    2.821157
     62          1           0      -13.334262   -2.946812    0.917113
     63          1           0      -11.831172   -3.189644    0.277110
     64          1           0      -12.821084   -2.279973   -0.825985
     65          1           0        8.812336   -0.432556    0.447263
     66          1           0      -10.056696   -2.101184   -0.696784
     67          1           0       10.450554    1.370193   -2.101017
     68          1           0       11.730064    2.250665   -1.547630
     69          1           0       12.084026    0.990775   -2.737310
     70          1           0      -11.246212    2.153273   -2.281455
     71          1           0       -9.991434    0.926453   -2.038393
     72          1           0       -9.889192    2.496907   -1.266134
     73          1           0       14.821616   -2.981704    0.161513
     74          1           0      -15.293627    1.507596    1.762198
     75          1           0        9.978696    2.481661    0.167832
     76          1           0       -8.627132    0.593722    0.085001
     77          1           0        9.045318    4.019638    0.490446
     78          1           0        7.604926    4.413914   -0.254956
     79          1           0        7.524043    3.857815    1.273170
     80          1           0       -8.753583   -3.348202   -0.757476
     81          1           0       -8.289412   -2.368960   -2.272816
     82          1           0       -6.974057   -3.079004   -1.303737
     83          1           0        6.940797    0.422518   -0.326110
     84          1           0       -6.329251    0.305451    0.269604
     85          1           0        5.617010    2.961442    0.729361
     86          1           0       -4.885241   -2.137811   -0.871284
     87          1           0        4.697846    0.133657   -0.066552
     88          1           0       -4.009929    0.593582   -0.164402
     89          1           0        3.314826    3.513831    1.510836
     90          1           0        1.757999    3.206248    0.361436
     91          1           0        3.656491    3.676485   -0.231313
     92          1           0       -3.054564   -3.028789   -0.625875
     93          1           0       -2.670741   -2.173239   -2.028433
     94          1           0       -1.278613   -2.568891   -0.894002
     95          1           0        2.738787   -0.075656   -0.606278
     96          1           0       -2.022143    0.868656    0.002296
     97          1           0        0.626892    1.761897    0.328095
     98          1           0        0.288216   -0.883720   -0.849947
 ---------------------------------------------------------------------

 SCF Done:  E(RCAM-B3LYP) =  -1706.97168585     A.U. after   15 cycles

 Excitation energies and oscillator strengths:

 Excited State   1:      Singlet-A      2.2723 eV  545.64 nm  f=3.6541  <S**2>=0.000
     155 ->158         0.15864
     156 ->157         0.68788
 This state for optimization and/or second-order correction.
 Total Energy, E(TD-HF/TD-DFT) =  -1706.88818097
 Copying the excited state density for this state as the 1-particle RhoCI density.

 The electronic state is 1-A.
 Alpha  occ. eigenvalues --  -19.22200 -19.21376 -10.31243 -10.28904 -10.27622
 Alpha  occ. eigenvalues --  -10.27335 -10.27140 -10.27040 -10.26996 -10.26936
 Alpha  occ. eigenvalues --  -10.26877 -10.26751 -10.26729 -10.26689 -10.26681
 Alpha  occ. eigenvalues --  -10.26647 -10.26560 -10.26559 -10.26411 -10.26163
 Alpha  occ. eigenvalues --  -10.25934 -10.25902 -10.25783 -10.25666 -10.25600
 Alpha  occ. eigenvalues --  -10.25570 -10.25515 -10.25262 -10.25259 -10.25194
 Alpha  occ. eigenvalues --  -10.25080 -10.25035 -10.25007 -10.25006 -10.24787
 Alpha  occ. eigenvalues --  -10.24769 -10.24661 -10.24612 -10.24330 -10.24039
 Alpha  occ. eigenvalues --  -10.23883 -10.23793  -1.11246  -1.07728  -0.93998
 Alpha  occ. eigenvalues --   -0.93754  -0.93096  -0.92269  -0.90844  -0.90239
 Alpha  occ. eigenvalues --   -0.87999  -0.87191  -0.86484  -0.85231  -0.84457
 Alpha  occ. eigenvalues --   -0.83231  -0.82079  -0.79934  -0.79568  -0.78647
 Alpha  occ. eigenvalues --   -0.76898  -0.76725  -0.76653  -0.76481  -0.76056
 Alpha  occ. eigenvalues --   -0.75843  -0.75616  -0.74941  -0.74595  -0.71810
 Alpha  occ. eigenvalues --   -0.69745  -0.68086  -0.66596  -0.65865  -0.64667
 Alpha  occ. eigenvalues --   -0.64309  -0.63629  -0.62697  -0.61389  -0.60993
 Alpha  occ. eigenvalues --   -0.59383  -0.59289  -0.57957  -0.57387  -0.56836
 Alpha  occ. eigenvalues --   -0.56192  -0.55262  -0.54538  -0.54270  -0.53896
 Alpha  occ. eigenvalues --   -0.53628  -0.53137  -0.52336  -0.51895  -0.51694
 Alpha  occ. eigenvalues --   -0.50932  -0.50427  -0.50128  -0.49377  -0.49216
 Alpha  occ. eigenvalues --   -0.49025  -0.48958  -0.48769  -0.48680  -0.48499
 Alpha  occ. eigenvalues --   -0.47982  -0.47704  -0.47111  -0.47015  -0.46860
 Alpha  occ. eigenvalues --   -0.46387  -0.45853  -0.45706  -0.45302  -0.45251
 Alpha  occ. eigenvalues --   -0.45016  -0.44837  -0.44665  -0.43785  -0.43367
 Alpha  occ. eigenvalues --   -0.43164  -0.42905  -0.42783  -0.42551  -0.42258
 Alpha  occ. eigenvalues --   -0.41869  -0.41800  -0.41499  -0.41283  -0.40972
 Alpha  occ. eigenvalues --   -0.40926  -0.40460  -0.40444  -0.39926  -0.39736
 Alpha  occ. eigenvalues --   -0.39145  -0.38675  -0.38399  -0.38318  -0.37937
 Alpha  occ. eigenvalues --   -0.37404  -0.37218  -0.36580  -0.36290  -0.35556
 Alpha  occ. eigenvalues --   -0.35441  -0.34749  -0.33580  -0.32492  -0.31887
 Alpha  occ. eigenvalues --   -0.31036  -0.30204  -0.28366  -0.26599  -0.23743
 Alpha  occ. eigenvalues --   -0.19782
 Alpha virt. eigenvalues --   -0.05863  -0.00922   0.02564   0.05356   0.07857
 Alpha virt. eigenvalues --    0.09925   0.11128   0.11171   0.11493   0.12485
 Alpha virt. eigenvalues --    0.12978   0.13489   0.13799   0.13927   0.14061

 Mulliken charges:
               1
     1  O   -0.546077
     2  O   -0.565393
     3  C   -0.040057
     4  C   -0.040522
     5  C   -0.215171
     6  C   -0.164798
     7  C    0.183343
     8  C    0.141913
     9  C    0.105030
    10  C    0.092442
    11  C   -0.229838
    12  C   -0.228286
    13  C    0.018280
    14  C    0.037682
    15  C   -0.277893
    16  C   -0.299691
    17  C   -0.285845
    18  C   -0.305520
    19  C   -0.132186
    20  C   -0.153917
    21  C   -0.361339
    22  C   -0.359259
    23  C   -0.116370
    24  C   -0.069845
    25  C    0.090972
    26  C    0.109344
    27  C   -0.389927
    28  C   -0.345316
    29  C   -0.112735
    30  C   -0.134637
    31  C   -0.096286
    32  C   -0.089048
    33  C   -0.149740
    34  C   -0.088986
    35  C    0.134886
    36  C    0.079059
    37  C   -0.356441
    38  C   -0.372137
    39  C   -0.146361
    40  C   -0.063354
    41  C   -0.029579
    42  C   -0.085517
    43  H    0.098019
    44  H    0.072858
    45  H    0.064139
    46  H    0.107933
    47  H    0.086770
    48  H    0.087375
    49  H    0.138193
    50  H    0.093564
    51  H    0.096154
    52  H    0.120151
    53  H    0.095258
    54  H    0.110871
    55  H    0.079237
    56  H    0.113708
    57  H    0.096422
    58  H    0.091290
    59  H    0.081996
    60  H    0.121413
    61  H    0.100030
    62  H    0.069867
    63  H    0.099437
    64  H    0.115050
    65  H    0.089421
    66  H    0.069283
    67  H    0.120759
    68  H    0.123123
    69  H    0.108240
    70  H    0.102529
    71  H    0.121865
    72  H    0.121017
    73  H    0.304358
    74  H    0.310677
    75  H    0.081754
    76  H    0.071312
    77  H    0.116499
    78  H    0.108737
    79  H    0.136813
    80  H    0.075748
    81  H    0.127500
    82  H    0.109050
    83  H    0.086323
    84  H    0.071361
    85  H    0.086112
    86  H    0.075813
    87  H    0.091065
    88  H    0.077868
    89  H    0.110196
    90  H    0.107122
    91  H    0.119149
    92  H    0.092392
    93  H    0.143368
    94  H    0.107638
    95  H    0.059927
    96  H    0.053448
    97  H    0.051206
    98  H    0.087712
 Sum of Mulliken charges =  -0.00000

 Dipole moment (field-independent basis, Debye):
    X=              2.1915    Y=             -1.1304    Z=              1.8125  Tot=              3.0603
 Quadrupole moment (field-independent basis, Debye-Ang):
   XX=           -283.7397   YY=           -242.7105   ZZ=           -259.5059
   XY=              6.2089   XZ=             -4.7087   YZ=              2.6665

 Normal termination of Gaussian 16 at Tue Jul 16 11:40:00 2019.
