 Gaussian 16, Revision A.03,
 Gaussian 16:  ES64L-G16RevA.03 25-Dec-2016

 -------------------------------------
 # td=(NStates=1) CAM-B3LYP/6-31G(d,p)
 -------------------------------------

 --
 TD
 --
 Symbolic Z-matrix:
 Charge =  0 Multiplicity = 1

                         Standard orientation:
 ---------------------------------------------------------------------
 Center     Atomic      Atomic             Coordinates (Angstroms)
 Number     Number       Type             X           Y           Z
 ---------------------------------------------------------------------
      1          8           0       14.760002   -2.327337   -0.120540
      2          8           0      -14.821421    1.772219    1.237562
      3          6           0       11.303971   -1.481391    1.025672
      4          6           0      -12.374648   -1.130226    0.614159
      5          6           0       12.772713   -1.798719    1.109123
      6          6           0      -13.576076   -0.414904    0.767056
      7          6           0       13.458251   -1.957392   -0.282230
      8          6           0      -13.538793    1.090322    1.004450
      9          6           0       10.978940   -0.299043   -0.011037
     10          6           0      -11.328277   -0.302684   -0.192124
     11          6           0       13.367801   -0.564359   -1.018978
     12          6           0      -12.840229    1.801066    0.025927
     13          6           0       11.956651    0.107778   -0.823720
     14          6           0      -11.647795    1.002917   -0.486714
     15          6           0       10.719809   -1.089902    2.473563
     16          6           0       10.458953   -2.666221    0.532315
     17          6           0      -11.748989   -1.427522    2.039141
     18          6           0      -12.543217   -2.539485   -0.025946
     19          6           0        9.707854    0.299291    0.161070
     20          6           0      -10.131847   -1.010053   -0.462841
     21          6           0       11.803686    1.238549   -1.897173
     22          6           0      -10.658090    1.886302   -1.404937
     23          6           0        9.397848    1.681039    0.125238
     24          6           0       -8.871420   -0.500074   -0.377125
     25          6           0        8.071922    2.106596    0.322412
     26          6           0       -7.628778   -1.120418   -0.706653
     27          6           0        7.976798    3.662955    0.534370
     28          6           0       -7.727126   -2.535309   -1.130815
     29          6           0        6.869948    1.439658    0.190103
     30          6           0       -6.509113   -0.435512   -0.518921
     31          6           0        5.608471    1.920695    0.223643
     32          6           0       -5.153375   -0.819371   -0.727711
     33          6           0        4.418908    1.196100   -0.093867
     34          6           0       -4.015854   -0.222813   -0.546013
     35          6           0        3.077059    1.675181   -0.012826
     36          6           0       -2.614274   -0.706460   -0.603558
     37          6           0        3.005036    3.101983    0.511574
     38          6           0       -2.274024   -2.099061   -1.093309
     39          6           0        2.054054    0.801964   -0.248065
     40          6           0       -1.679542    0.315290   -0.321264
     41          6           0        0.651096    1.112069   -0.212837
     42          6           0       -0.287357    0.166129   -0.491375
     43          1           0       13.445419   -1.074792    1.746837
     44          1           0       12.939810   -2.830030    1.675768
     45          1           0      -14.214716   -1.075661    1.472855
     46          1           0      -14.134403   -0.497706   -0.279125
     47          1           0       12.878248   -2.767714   -0.862206
     48          1           0      -13.110692    1.284088    1.966107
     49          1           0       13.928292    0.085181   -0.411955
     50          1           0       13.564138   -0.473543   -2.166082
     51          1           0      -13.354143    2.265059   -0.930815
     52          1           0      -12.370315    2.801155    0.459928
     53          1           0       11.071045   -1.591195    3.312279
     54          1           0        9.726472   -1.185144    2.390521
     55          1           0       11.063493    0.059818    2.812199
     56          1           0       10.573069   -3.067028   -0.617199
     57          1           0       10.665482   -3.495188    1.198791
     58          1           0        9.446950   -2.504627    0.595888
     59          1           0      -11.508793   -0.613205    2.659726
     60          1           0      -10.857014   -1.822267    1.894302
     61          1           0      -12.631921   -2.149775    2.325670
     62          1           0      -13.225581   -2.999541    0.745995
     63          1           0      -11.721520   -3.420450   -0.062742
     64          1           0      -13.046285   -2.400253   -1.039190
     65          1           0        8.896931   -0.365469    0.388374
     66          1           0      -10.185428   -2.059199   -0.725690
     67          1           0       10.679221    1.473198   -2.104750
     68          1           0       12.322262    2.270111   -1.606882
     69          1           0       12.112301    0.982259   -2.904087
     70          1           0      -11.302221    2.603801   -1.974342
     71          1           0      -10.194138    1.177745   -2.275393
     72          1           0       -9.910770    2.440529   -0.838907
     73          1           0       14.631319   -3.003763    0.824190
     74          1           0      -15.159227    1.581806    2.279151
     75          1           0       10.222741    2.640268    0.116089
     76          1           0       -8.678610    0.522889    0.062634
     77          1           0        8.917257    4.297595    0.648043
     78          1           0        7.622301    4.175246   -0.496190
     79          1           0        7.255074    4.067920    1.371617
     80          1           0       -8.611256   -3.233546   -0.588122
     81          1           0       -8.031584   -2.446549   -2.181601
     82          1           0       -6.760847   -3.047694   -1.042926
     83          1           0        6.788146    0.228443    0.020245
     84          1           0       -6.525861    0.665282   -0.333042
     85          1           0        5.469946    3.024801    0.318926
     86          1           0       -5.256790   -1.889295   -0.922854
     87          1           0        4.819203    0.209047   -0.590882
     88          1           0       -3.941460    0.868490   -0.294142
     89          1           0        3.002598    3.326371    1.634273
     90          1           0        1.999304    3.628711    0.229466
     91          1           0        3.931827    3.755299    0.022783
     92          1           0       -2.569361   -2.855742   -0.394856
     93          1           0       -2.955707   -2.287604   -1.984932
     94          1           0       -1.204705   -2.300519   -1.237098
     95          1           0        2.405181   -0.322111   -0.570744
     96          1           0       -1.876104    1.328875    0.047894
     97          1           0        0.218786    2.295635    0.247793
     98          1           0        0.168309   -0.748871   -0.786455
 ---------------------------------------------------------------------

 SCF Done:  E(RCAM-B3LYP) =  -1706.90793549     A.U. after   15 cycles

 Excitation energies and oscillator strengths:

 Excited State   1:      Singlet-A      2.2323 eV  555.41 nm  f=3.5312  <S**2>=0.000
     155 ->158        -0.15732
     156 ->157         0.68689
 This state for optimization and/or second-order correction.
 Total Energy, E(TD-HF/TD-DFT) =  -1706.82589926
 Copying the excited state density for this state as the 1-particle RhoCI density.

 The electronic state is 1-A.
 Alpha  occ. eigenvalues --  -19.22591 -19.21575 -10.31078 -10.30152 -10.28819
 Alpha  occ. eigenvalues --  -10.28747 -10.28657 -10.28234 -10.28026 -10.28002
 Alpha  occ. eigenvalues --  -10.27981 -10.27905 -10.27668 -10.27645 -10.27294
 Alpha  occ. eigenvalues --  -10.27189 -10.27157 -10.27107 -10.26900 -10.26876
 Alpha  occ. eigenvalues --  -10.26863 -10.26846 -10.26839 -10.26746 -10.26643
 Alpha  occ. eigenvalues --  -10.26497 -10.26395 -10.26376 -10.26285 -10.26195
 Alpha  occ. eigenvalues --  -10.26010 -10.25919 -10.25868 -10.25832 -10.25787
 Alpha  occ. eigenvalues --  -10.25757 -10.25480 -10.25477 -10.25336 -10.25334
 Alpha  occ. eigenvalues --  -10.25187 -10.23703  -1.09327  -1.05878  -0.94374
 Alpha  occ. eigenvalues --   -0.93108  -0.92487  -0.91685  -0.90838  -0.89718
 Alpha  occ. eigenvalues --   -0.87500  -0.87123  -0.86406  -0.85722  -0.84693
 Alpha  occ. eigenvalues --   -0.83141  -0.81911  -0.79239  -0.78785  -0.78095
 Alpha  occ. eigenvalues --   -0.77004  -0.76488  -0.76288  -0.75577  -0.75437
 Alpha  occ. eigenvalues --   -0.75161  -0.74894  -0.74470  -0.73477  -0.70536
 Alpha  occ. eigenvalues --   -0.69187  -0.67394  -0.65537  -0.65107  -0.64089
 Alpha  occ. eigenvalues --   -0.63486  -0.62310  -0.61052  -0.60122  -0.59385
 Alpha  occ. eigenvalues --   -0.59265  -0.57821  -0.57739  -0.57122  -0.56718
 Alpha  occ. eigenvalues --   -0.55656  -0.55176  -0.54477  -0.54313  -0.53615
 Alpha  occ. eigenvalues --   -0.52683  -0.52042  -0.51996  -0.51537  -0.50754
 Alpha  occ. eigenvalues --   -0.50502  -0.49823  -0.49304  -0.49165  -0.48965
 Alpha  occ. eigenvalues --   -0.48840  -0.48388  -0.47915  -0.47873  -0.47688
 Alpha  occ. eigenvalues --   -0.47206  -0.46923  -0.46379  -0.46086  -0.45843
 Alpha  occ. eigenvalues --   -0.45653  -0.45601  -0.45063  -0.44559  -0.44415
 Alpha  occ. eigenvalues --   -0.43993  -0.43899  -0.43762  -0.43321  -0.43124
 Alpha  occ. eigenvalues --   -0.42854  -0.42734  -0.42505  -0.42345  -0.42022
 Alpha  occ. eigenvalues --   -0.41958  -0.41477  -0.41279  -0.41223  -0.41205
 Alpha  occ. eigenvalues --   -0.40779  -0.40411  -0.40020  -0.39346  -0.39304
 Alpha  occ. eigenvalues --   -0.38762  -0.38669  -0.38609  -0.38153  -0.37984
 Alpha  occ. eigenvalues --   -0.37130  -0.37043  -0.36966  -0.36806  -0.35648
 Alpha  occ. eigenvalues --   -0.35092  -0.34313  -0.33719  -0.32584  -0.31750
 Alpha  occ. eigenvalues --   -0.31423  -0.30329  -0.28802  -0.26150  -0.23227
 Alpha  occ. eigenvalues --   -0.19589
 Alpha virt. eigenvalues --   -0.05695  -0.01620   0.02002   0.05786   0.07472
 Alpha virt. eigenvalues --    0.08388   0.08762   0.09635   0.10209   0.10951
 Alpha virt. eigenvalues --    0.11215   0.11890   0.12049   0.12356   0.13387

 Mulliken charges:
               1
     1  O   -0.542792
     2  O   -0.586139
     3  C   -0.014725
     4  C   -0.032837
     5  C   -0.230046
     6  C   -0.183863
     7  C    0.207556
     8  C    0.202613
     9  C    0.114150
    10  C    0.096866
    11  C   -0.205888
    12  C   -0.213524
    13  C    0.002319
    14  C    0.003929
    15  C   -0.295325
    16  C   -0.302175
    17  C   -0.268909
    18  C   -0.296254
    19  C   -0.135215
    20  C   -0.146312
    21  C   -0.365819
    22  C   -0.351100
    23  C   -0.103805
    24  C   -0.087730
    25  C    0.101278
    26  C    0.146968
    27  C   -0.379672
    28  C   -0.374626
    29  C   -0.114051
    30  C   -0.140757
    31  C   -0.058996
    32  C   -0.082463
    33  C   -0.137668
    34  C   -0.104235
    35  C    0.132348
    36  C    0.105384
    37  C   -0.362388
    38  C   -0.374083
    39  C   -0.137361
    40  C   -0.131153
    41  C   -0.081356
    42  C   -0.065585
    43  H    0.101039
    44  H    0.059118
    45  H    0.071062
    46  H    0.080982
    47  H    0.065329
    48  H    0.089105
    49  H    0.131214
    50  H    0.107254
    51  H    0.117974
    52  H    0.105385
    53  H    0.111092
    54  H    0.111537
    55  H    0.081800
    56  H    0.091086
    57  H    0.100267
    58  H    0.112982
    59  H    0.101258
    60  H    0.114020
    61  H    0.073585
    62  H    0.088786
    63  H    0.098218
    64  H    0.107998
    65  H    0.097775
    66  H    0.081622
    67  H    0.110369
    68  H    0.099172
    69  H    0.111453
    70  H    0.094840
    71  H    0.103228
    72  H    0.120613
    73  H    0.295034
    74  H    0.300674
    75  H    0.094649
    76  H    0.076909
    77  H    0.104196
    78  H    0.101500
    79  H    0.111088
    80  H    0.094305
    81  H    0.138227
    82  H    0.113930
    83  H    0.058651
    84  H    0.070833
    85  H    0.073425
    86  H    0.052721
    87  H    0.074767
    88  H    0.077853
    89  H    0.128000
    90  H    0.097595
    91  H    0.099844
    92  H    0.132084
    93  H    0.122253
    94  H    0.118421
    95  H    0.087654
    96  H    0.090666
    97  H    0.059237
    98  H    0.078763
 Sum of Mulliken charges =  -0.00000

 Dipole moment (field-independent basis, Debye):
    X=              0.1843    Y=             -1.3691    Z=              2.1692  Tot=              2.5717
 Quadrupole moment (field-independent basis, Debye-Ang):
   XX=           -306.8242   YY=           -244.9477   ZZ=           -258.6390
   XY=             14.8290   XZ=              0.8620   YZ=              1.3578

 Normal termination of Gaussian 16 at Wed Jul 17 06:38:17 2019.
