 Gaussian 16, Revision A.03,
 Gaussian 16:  ES64L-G16RevA.03 25-Dec-2016

 -------------------------------------
 # td=(NStates=1) CAM-B3LYP/6-31G(d,p)
 -------------------------------------

 --
 TD
 --
 Symbolic Z-matrix:
 Charge =  0 Multiplicity = 1

                         Standard orientation:
 ---------------------------------------------------------------------
 Center     Atomic      Atomic             Coordinates (Angstroms)
 Number     Number       Type             X           Y           Z
 ---------------------------------------------------------------------
      1          8           0       14.684852   -2.254493   -0.198526
      2          8           0      -14.554476    2.203832    1.297383
      3          6           0       11.189907   -1.308237    1.114498
      4          6           0      -12.413141   -0.986748    0.472203
      5          6           0       12.663538   -1.738628    1.133882
      6          6           0      -13.774403   -0.056904    0.704994
      7          6           0       13.332457   -1.813725   -0.350395
      8          6           0      -13.411109    1.366090    1.077257
      9          6           0       11.005440   -0.145134    0.033508
     10          6           0      -11.262747   -0.156974   -0.269330
     11          6           0       13.283650   -0.469612   -0.920005
     12          6           0      -12.616976    1.984874   -0.078581
     13          6           0       11.943792    0.076421   -0.879575
     14          6           0      -11.494812    1.174461   -0.584355
     15          6           0       10.698076   -0.905920    2.462615
     16          6           0       10.315097   -2.640309    0.746812
     17          6           0      -11.842416   -1.391971    1.855957
     18          6           0      -12.719526   -2.274850   -0.322629
     19          6           0        9.630718    0.447583    0.088242
     20          6           0      -10.114543   -1.031614   -0.385034
     21          6           0       11.795191    1.287513   -1.872692
     22          6           0      -10.520125    1.963134   -1.462834
     23          6           0        9.346902    1.752062    0.073864
     24          6           0       -8.798863   -0.597200   -0.448446
     25          6           0        7.987249    2.232609    0.092091
     26          6           0       -7.599127   -1.342263   -0.522179
     27          6           0        7.976576    3.773185    0.363687
     28          6           0       -7.804041   -2.788447   -0.797061
     29          6           0        6.889423    1.538479    0.020802
     30          6           0       -6.359933   -0.686902   -0.435824
     31          6           0        5.553868    2.021098    0.238314
     32          6           0       -5.075837   -1.239554   -0.591734
     33          6           0        4.509333    1.228817   -0.056723
     34          6           0       -3.961516   -0.500215   -0.430552
     35          6           0        3.149861    1.566611   -0.045926
     36          6           0       -2.630733   -0.939578   -0.523216
     37          6           0        2.686475    2.910536    0.330736
     38          6           0       -2.348788   -2.424498   -0.837273
     39          6           0        2.106384    0.512716   -0.148487
     40          6           0       -1.526489   -0.043810   -0.279859
     41          6           0        0.780370    0.754555   -0.138281
     42          6           0       -0.156147   -0.221662   -0.385034
     43          1           0       13.195643   -1.044464    1.739769
     44          1           0       12.755147   -2.596663    1.521944
     45          1           0      -14.153274   -0.672853    1.601381
     46          1           0      -14.313614   -0.011883   -0.291451
     47          1           0       12.553897   -2.361754   -1.046742
     48          1           0      -12.768205    1.141474    2.095993
     49          1           0       13.998956    0.336653   -0.358212
     50          1           0       13.741673   -0.449477   -1.869876
     51          1           0      -13.167724    2.179021   -0.903465
     52          1           0      -12.525430    3.196218    0.100972
     53          1           0       10.604117   -1.917072    2.978328
     54          1           0        9.887181   -0.460501    2.410702
     55          1           0       11.503758   -0.184617    2.941937
     56          1           0       10.735853   -3.323918   -0.136806
     57          1           0       10.380901   -3.304651    1.492136
     58          1           0        9.219051   -2.342782    0.224642
     59          1           0      -11.588450   -0.504654    2.312071
     60          1           0      -10.928342   -2.197217    1.790124
     61          1           0      -12.492196   -2.033887    2.474638
     62          1           0      -13.445533   -2.752958    0.253993
     63          1           0      -11.839603   -3.029894   -0.101472
     64          1           0      -13.091037   -1.999972   -1.472856
     65          1           0        8.860997   -0.240744    0.256449
     66          1           0      -10.461850   -2.081467   -0.584403
     67          1           0       10.728677    1.330263   -2.004846
     68          1           0       12.023472    2.403980   -1.480989
     69          1           0       12.429343    1.029110   -2.808558
     70          1           0      -11.025152    2.650390   -1.998054
     71          1           0       -9.741369    1.424005   -2.041845
     72          1           0       -9.831192    2.668976   -0.740885
     73          1           0       14.649243   -3.010726    0.470787
     74          1           0      -14.760783    2.118636    2.179985
     75          1           0       10.052909    2.615483   -0.036822
     76          1           0       -8.570101    0.512835   -0.172045
     77          1           0        9.041955    4.253301    0.784045
     78          1           0        7.413705    4.421584   -0.468779
     79          1           0        7.208425    3.847793    1.179927
     80          1           0       -8.632992   -3.378270   -0.299846
     81          1           0       -8.270805   -3.034616   -1.723045
     82          1           0       -6.794566   -3.555568   -0.849194
     83          1           0        6.852093    0.638277   -0.457212
     84          1           0       -6.428124    0.515170   -0.372772
     85          1           0        5.404571    3.135546    0.401346
     86          1           0       -4.920809   -2.376841   -1.115314
     87          1           0        4.627695    0.295906   -0.265027
     88          1           0       -4.025149    0.554467   -0.207397
     89          1           0        2.998434    3.203959    1.162609
     90          1           0        1.791954    3.091226    0.278716
     91          1           0        3.480842    3.722388   -0.101635
     92          1           0       -2.587737   -3.325607    0.031560
     93          1           0       -3.108063   -2.570729   -1.713977
     94          1           0       -1.211915   -2.622082   -1.018032
     95          1           0        2.446932   -0.388364   -0.650112
     96          1           0       -1.793481    1.064177   -0.055115
     97          1           0        0.246472    1.786662    0.274038
     98          1           0        0.122378   -1.273906   -0.662784
 ---------------------------------------------------------------------

 SCF Done:  E(RCAM-B3LYP) =  -1706.80232864     A.U. after   15 cycles

 Excitation energies and oscillator strengths:

 Excited State   1:      Singlet-A      1.9918 eV  622.48 nm  f=3.7666  <S**2>=0.000
     155 ->158         0.13640
     156 ->157         0.69596
     156 <-157        -0.10173
 This state for optimization and/or second-order correction.
 Total Energy, E(TD-HF/TD-DFT) =  -1706.72913200
 Copying the excited state density for this state as the 1-particle RhoCI density.

 The electronic state is 1-A.
 Alpha  occ. eigenvalues --  -19.22320 -19.21435 -10.32311 -10.31193 -10.28573
 Alpha  occ. eigenvalues --  -10.28085 -10.28080 -10.28064 -10.27934 -10.27716
 Alpha  occ. eigenvalues --  -10.27635 -10.27578 -10.27569 -10.27495 -10.27259
 Alpha  occ. eigenvalues --  -10.27189 -10.26798 -10.26729 -10.26720 -10.26619
 Alpha  occ. eigenvalues --  -10.26598 -10.26571 -10.26517 -10.26427 -10.26355
 Alpha  occ. eigenvalues --  -10.26341 -10.26282 -10.26257 -10.26108 -10.26034
 Alpha  occ. eigenvalues --  -10.26022 -10.25975 -10.25874 -10.25790 -10.25266
 Alpha  occ. eigenvalues --  -10.25181 -10.25016 -10.24700 -10.24450 -10.23912
 Alpha  occ. eigenvalues --  -10.23601 -10.23081  -1.10770  -1.08862  -0.93623
 Alpha  occ. eigenvalues --   -0.92856  -0.92648  -0.91677  -0.91051  -0.89842
 Alpha  occ. eigenvalues --   -0.88170  -0.87694  -0.86852  -0.85928  -0.84605
 Alpha  occ. eigenvalues --   -0.83380  -0.82529  -0.80014  -0.79833  -0.78836
 Alpha  occ. eigenvalues --   -0.77242  -0.76888  -0.75865  -0.75684  -0.75405
 Alpha  occ. eigenvalues --   -0.75226  -0.75028  -0.74694  -0.72997  -0.71112
 Alpha  occ. eigenvalues --   -0.69018  -0.67764  -0.65957  -0.65490  -0.64258
 Alpha  occ. eigenvalues --   -0.63448  -0.62656  -0.61953  -0.60886  -0.59495
 Alpha  occ. eigenvalues --   -0.59117  -0.58861  -0.58221  -0.57672  -0.56444
 Alpha  occ. eigenvalues --   -0.56056  -0.55331  -0.55128  -0.54612  -0.54579
 Alpha  occ. eigenvalues --   -0.53870  -0.53025  -0.51862  -0.51160  -0.50781
 Alpha  occ. eigenvalues --   -0.50675  -0.50480  -0.50023  -0.49607  -0.49077
 Alpha  occ. eigenvalues --   -0.48871  -0.48658  -0.47911  -0.47782  -0.47510
 Alpha  occ. eigenvalues --   -0.47023  -0.46899  -0.46793  -0.46413  -0.46208
 Alpha  occ. eigenvalues --   -0.45859  -0.45659  -0.45640  -0.45178  -0.45051
 Alpha  occ. eigenvalues --   -0.44876  -0.44423  -0.44045  -0.43616  -0.43485
 Alpha  occ. eigenvalues --   -0.43367  -0.43157  -0.42905  -0.42549  -0.42274
 Alpha  occ. eigenvalues --   -0.41724  -0.41085  -0.40891  -0.40567  -0.40263
 Alpha  occ. eigenvalues --   -0.40151  -0.40106  -0.39921  -0.39462  -0.39283
 Alpha  occ. eigenvalues --   -0.39051  -0.38950  -0.38455  -0.38289  -0.38157
 Alpha  occ. eigenvalues --   -0.37880  -0.37365  -0.36763  -0.36582  -0.36268
 Alpha  occ. eigenvalues --   -0.35112  -0.34056  -0.33704  -0.32417  -0.32076
 Alpha  occ. eigenvalues --   -0.31909  -0.29639  -0.28415  -0.26220  -0.23455
 Alpha  occ. eigenvalues --   -0.18842
 Alpha virt. eigenvalues --   -0.06738  -0.01326   0.01698   0.05266   0.07674
 Alpha virt. eigenvalues --    0.08777   0.10003   0.10584   0.11352   0.11689
 Alpha virt. eigenvalues --    0.11973   0.12392   0.12609   0.12696   0.13231

 Mulliken charges:
               1
     1  O   -0.566587
     2  O   -0.539944
     3  C   -0.030875
     4  C   -0.052219
     5  C   -0.183396
     6  C   -0.180308
     7  C    0.174315
     8  C    0.162028
     9  C    0.066019
    10  C    0.073979
    11  C   -0.189501
    12  C   -0.232332
    13  C    0.032794
    14  C    0.045437
    15  C   -0.257659
    16  C   -0.310270
    17  C   -0.302143
    18  C   -0.287793
    19  C   -0.145040
    20  C   -0.108587
    21  C   -0.348050
    22  C   -0.348447
    23  C   -0.073258
    24  C   -0.140759
    25  C    0.104311
    26  C    0.170955
    27  C   -0.380988
    28  C   -0.389396
    29  C   -0.119402
    30  C   -0.154610
    31  C   -0.089493
    32  C   -0.084978
    33  C   -0.072965
    34  C   -0.077801
    35  C    0.082858
    36  C    0.092895
    37  C   -0.329318
    38  C   -0.342578
    39  C   -0.147726
    40  C   -0.135221
    41  C   -0.069230
    42  C   -0.065268
    43  H    0.102700
    44  H    0.070835
    45  H    0.086684
    46  H    0.100420
    47  H    0.074541
    48  H    0.055943
    49  H    0.096109
    50  H    0.110115
    51  H    0.138692
    52  H    0.098789
    53  H    0.085626
    54  H    0.116367
    55  H    0.082389
    56  H    0.077971
    57  H    0.117906
    58  H    0.082661
    59  H    0.120242
    60  H    0.087106
    61  H    0.094372
    62  H    0.109264
    63  H    0.089418
    64  H    0.096454
    65  H    0.096142
    66  H    0.083275
    67  H    0.125174
    68  H    0.096051
    69  H    0.091892
    70  H    0.111328
    71  H    0.124701
    72  H    0.082025
    73  H    0.312862
    74  H    0.303050
    75  H    0.090596
    76  H    0.080779
    77  H    0.095717
    78  H    0.111611
    79  H    0.121822
    80  H    0.110275
    81  H    0.134798
    82  H    0.079368
    83  H    0.086502
    84  H    0.082689
    85  H    0.074358
    86  H    0.080078
    87  H    0.061260
    88  H    0.082093
    89  H    0.140614
    90  H    0.100699
    91  H    0.078331
    92  H    0.092879
    93  H    0.110158
    94  H    0.102132
    95  H    0.090463
    96  H    0.064889
    97  H    0.081403
    98  H    0.075936
 Sum of Mulliken charges =  -0.00000

 Dipole moment (field-independent basis, Debye):
    X=             -0.5757    Y=             -0.8437    Z=              1.6720  Tot=              1.9593
 Quadrupole moment (field-independent basis, Debye-Ang):
   XX=           -278.3379   YY=           -242.5869   ZZ=           -261.7659
   XY=              5.8780   XZ=              0.8074   YZ=              0.9765

 Normal termination of Gaussian 16 at Fri Jul 12 06:39:01 2019.
