 Gaussian 16, Revision A.03,
 Gaussian 16:  ES64L-G16RevA.03 25-Dec-2016

 -------------------------------------
 # td=(NStates=1) CAM-B3LYP/6-31G(d,p)
 -------------------------------------

 --
 TD
 --
 Symbolic Z-matrix:
 Charge =  0 Multiplicity = 1

                         Standard orientation:
 ---------------------------------------------------------------------
 Center     Atomic      Atomic             Coordinates (Angstroms)
 Number     Number       Type             X           Y           Z
 ---------------------------------------------------------------------
      1          8           0       14.740495   -2.192243   -0.217485
      2          8           0      -14.757198    1.938438    0.873868
      3          6           0       11.081078   -1.540629    0.910821
      4          6           0      -12.297586   -1.076128    0.702833
      5          6           0       12.585903   -1.958263    0.987964
      6          6           0      -13.671330   -0.329196    0.687766
      7          6           0       13.295723   -1.981146   -0.267869
      8          6           0      -13.542514    1.249703    0.822163
      9          6           0       10.912493   -0.392581   -0.028885
     10          6           0      -11.161981   -0.350509   -0.109357
     11          6           0       13.200383   -0.563672   -0.933773
     12          6           0      -12.759344    1.823030   -0.202429
     13          6           0       11.887776    0.061323   -0.898735
     14          6           0      -11.482721    0.987132   -0.592862
     15          6           0       10.668918   -1.209845    2.292535
     16          6           0       10.377554   -2.737439    0.447686
     17          6           0      -11.863492   -1.464238    2.167619
     18          6           0      -12.605513   -2.423026    0.076446
     19          6           0        9.570006    0.304590    0.160229
     20          6           0      -10.010107   -0.962973   -0.370755
     21          6           0       11.697247    1.256619   -1.775658
     22          6           0      -10.620759    1.615648   -1.558979
     23          6           0        9.297487    1.594612    0.018371
     24          6           0       -8.767463   -0.468856   -0.348639
     25          6           0        8.062056    2.269686    0.190799
     26          6           0       -7.483598   -1.178079   -0.513351
     27          6           0        8.048453    3.707177    0.644704
     28          6           0       -7.621206   -2.609715   -0.867741
     29          6           0        6.894659    1.562305    0.071951
     30          6           0       -6.380528   -0.494970   -0.483495
     31          6           0        5.548031    2.201219    0.256120
     32          6           0       -5.066113   -0.980629   -0.535442
     33          6           0        4.446091    1.429187    0.043173
     34          6           0       -3.910647   -0.260156   -0.501685
     35          6           0        3.139674    1.780696    0.198221
     36          6           0       -2.550913   -0.712261   -0.681820
     37          6           0        2.827556    3.240346    0.678951
     38          6           0       -2.333106   -2.140261   -1.157962
     39          6           0        2.119218    0.878274   -0.079407
     40          6           0       -1.551249    0.183021   -0.286903
     41          6           0        0.747134    1.087784   -0.180300
     42          6           0       -0.129482    0.082830   -0.371896
     43          1           0       13.310646   -1.238964    1.581048
     44          1           0       12.642663   -3.021679    1.571278
     45          1           0      -14.461684   -0.878640    1.424460
     46          1           0      -14.060997   -0.423104   -0.404870
     47          1           0       12.703542   -2.531029   -0.921866
     48          1           0      -12.820999    1.403502    1.741472
     49          1           0       13.883528    0.172975   -0.367121
     50          1           0       13.643535   -0.564813   -1.922366
     51          1           0      -13.372048    1.884935   -1.109857
     52          1           0      -12.234125    2.851360    0.052342
     53          1           0       10.957481   -1.916765    3.008955
     54          1           0        9.498371   -1.200312    2.479118
     55          1           0       11.124869   -0.339918    2.511574
     56          1           0       10.407854   -3.172828   -0.465269
     57          1           0       10.618559   -3.477049    1.079695
     58          1           0        9.238896   -2.669258    0.143613
     59          1           0      -11.782486   -0.627952    2.827505
     60          1           0      -10.967507   -1.794048    2.151349
     61          1           0      -12.639397   -2.061246    2.679306
     62          1           0      -13.461982   -2.924628    0.459027
     63          1           0      -11.919596   -3.235080    0.201247
     64          1           0      -12.950059   -2.681660   -1.045487
     65          1           0        8.914936   -0.528908    0.591733
     66          1           0      -10.093867   -1.982452   -0.584798
     67          1           0       10.587176    1.674223   -2.028628
     68          1           0       12.179623    2.374944   -1.365718
     69          1           0       12.300134    1.052025   -2.775047
     70          1           0      -11.189350    2.194093   -2.346835
     71          1           0       -9.968031    0.968450   -2.023407
     72          1           0       -9.996325    2.441297   -1.105964
     73          1           0       14.819927   -3.106115    0.097094
     74          1           0      -15.329960    1.548832    1.390939
     75          1           0       10.171866    2.393265   -0.199793
     76          1           0       -8.603838    0.538055   -0.163157
     77          1           0        9.145014    3.990181    0.909774
     78          1           0        7.571335    4.208835   -0.271318
     79          1           0        7.527737    4.078643    1.587456
     80          1           0       -8.124280   -3.233014   -0.121576
     81          1           0       -8.266196   -2.729883   -1.754126
     82          1           0       -6.690907   -3.070733   -0.900806
     83          1           0        7.048332    0.507247   -0.366544
     84          1           0       -6.394242    0.616100   -0.229184
     85          1           0        5.372634    3.186189    0.658677
     86          1           0       -4.995887   -2.110928   -0.859743
     87          1           0        4.631693    0.352727   -0.133785
     88          1           0       -3.902311    0.858011   -0.455798
     89          1           0        3.437180    3.553483    1.660146
     90          1           0        1.775459    3.400655    0.863225
     91          1           0        3.113067    4.098368    0.130149
     92          1           0       -2.469459   -3.192577   -0.252445
     93          1           0       -3.091090   -2.488986   -2.049229
     94          1           0       -1.476768   -2.455131   -1.404044
     95          1           0        2.326896   -0.113879   -0.190707
     96          1           0       -1.770344    1.278991   -0.051226
     97          1           0        0.247280    2.028578    0.116334
     98          1           0        0.380389   -0.737622   -0.960322
 ---------------------------------------------------------------------

 SCF Done:  E(RCAM-B3LYP) =  -1706.91750761     A.U. after   15 cycles

 Excitation energies and oscillator strengths:

 Excited State   1:      Singlet-A      2.3756 eV  521.92 nm  f=3.6876  <S**2>=0.000
     155 ->158         0.16170
     156 ->157         0.68339
 This state for optimization and/or second-order correction.
 Total Energy, E(TD-HF/TD-DFT) =  -1706.83020733
 Copying the excited state density for this state as the 1-particle RhoCI density.

 The electronic state is 1-A.
 Alpha  occ. eigenvalues --  -19.22268 -19.20847 -10.30767 -10.29889 -10.28711
 Alpha  occ. eigenvalues --  -10.28495 -10.28224 -10.28011 -10.27638 -10.27628
 Alpha  occ. eigenvalues --  -10.27405 -10.27368 -10.27357 -10.26952 -10.26788
 Alpha  occ. eigenvalues --  -10.26711 -10.26565 -10.26539 -10.26506 -10.26427
 Alpha  occ. eigenvalues --  -10.26419 -10.26361 -10.26316 -10.26314 -10.26260
 Alpha  occ. eigenvalues --  -10.26236 -10.26215 -10.25994 -10.25943 -10.25853
 Alpha  occ. eigenvalues --  -10.25733 -10.25439 -10.25287 -10.25147 -10.24819
 Alpha  occ. eigenvalues --  -10.24645 -10.24531 -10.24150 -10.24132 -10.23780
 Alpha  occ. eigenvalues --  -10.23658 -10.23094  -1.12425  -1.09110  -0.95012
 Alpha  occ. eigenvalues --   -0.93584  -0.92431  -0.91856  -0.90858  -0.90049
 Alpha  occ. eigenvalues --   -0.88186  -0.87931  -0.87313  -0.86777  -0.85033
 Alpha  occ. eigenvalues --   -0.83414  -0.82047  -0.81012  -0.80181  -0.78741
 Alpha  occ. eigenvalues --   -0.78224  -0.77287  -0.76952  -0.76089  -0.75833
 Alpha  occ. eigenvalues --   -0.75591  -0.75046  -0.74567  -0.73678  -0.70995
 Alpha  occ. eigenvalues --   -0.69154  -0.67883  -0.66068  -0.65095  -0.64541
 Alpha  occ. eigenvalues --   -0.64106  -0.63248  -0.62295  -0.60535  -0.59960
 Alpha  occ. eigenvalues --   -0.59743  -0.59420  -0.59071  -0.58271  -0.57276
 Alpha  occ. eigenvalues --   -0.56763  -0.56116  -0.55194  -0.54599  -0.54138
 Alpha  occ. eigenvalues --   -0.53393  -0.53028  -0.52211  -0.51993  -0.51190
 Alpha  occ. eigenvalues --   -0.50601  -0.50456  -0.49640  -0.49599  -0.49360
 Alpha  occ. eigenvalues --   -0.49227  -0.48336  -0.48052  -0.47626  -0.47331
 Alpha  occ. eigenvalues --   -0.47230  -0.47210  -0.46923  -0.46357  -0.46102
 Alpha  occ. eigenvalues --   -0.45750  -0.45705  -0.45528  -0.45124  -0.44887
 Alpha  occ. eigenvalues --   -0.44488  -0.44436  -0.44120  -0.43703  -0.43528
 Alpha  occ. eigenvalues --   -0.43325  -0.42813  -0.42334  -0.42050  -0.41811
 Alpha  occ. eigenvalues --   -0.41494  -0.41335  -0.41021  -0.40871  -0.40818
 Alpha  occ. eigenvalues --   -0.40394  -0.39857  -0.39768  -0.39733  -0.39528
 Alpha  occ. eigenvalues --   -0.39161  -0.38887  -0.38651  -0.38383  -0.38162
 Alpha  occ. eigenvalues --   -0.37879  -0.37410  -0.37250  -0.36485  -0.36248
 Alpha  occ. eigenvalues --   -0.35879  -0.34971  -0.34443  -0.33323  -0.32589
 Alpha  occ. eigenvalues --   -0.31568  -0.29955  -0.27787  -0.25528  -0.23119
 Alpha  occ. eigenvalues --   -0.20086
 Alpha virt. eigenvalues --   -0.05479  -0.00763   0.01935   0.04976   0.07435
 Alpha virt. eigenvalues --    0.08654   0.11005   0.11871   0.12061   0.12236
 Alpha virt. eigenvalues --    0.12766   0.13089   0.13205   0.13473   0.13692

 Mulliken charges:
               1
     1  O   -0.550654
     2  O   -0.525072
     3  C   -0.035579
     4  C   -0.010051
     5  C   -0.181551
     6  C   -0.204691
     7  C    0.149671
     8  C    0.185138
     9  C    0.043625
    10  C    0.077384
    11  C   -0.232728
    12  C   -0.200495
    13  C    0.091668
    14  C    0.037573
    15  C   -0.282279
    16  C   -0.288994
    17  C   -0.294106
    18  C   -0.316443
    19  C   -0.092261
    20  C   -0.138925
    21  C   -0.354388
    22  C   -0.372355
    23  C   -0.132367
    24  C   -0.094344
    25  C    0.094528
    26  C    0.140423
    27  C   -0.363403
    28  C   -0.380945
    29  C   -0.128400
    30  C   -0.123739
    31  C   -0.100582
    32  C   -0.097983
    33  C   -0.099896
    34  C   -0.118494
    35  C    0.133017
    36  C    0.123050
    37  C   -0.385778
    38  C   -0.317451
    39  C   -0.132837
    40  C   -0.146775
    41  C   -0.069149
    42  C   -0.087717
    43  H    0.090989
    44  H    0.055612
    45  H    0.073474
    46  H    0.093026
    47  H    0.096475
    48  H    0.054868
    49  H    0.112337
    50  H    0.109536
    51  H    0.117108
    52  H    0.108347
    53  H    0.104401
    54  H    0.087819
    55  H    0.121162
    56  H    0.114778
    57  H    0.106260
    58  H    0.076395
    59  H    0.100694
    60  H    0.117011
    61  H    0.096846
    62  H    0.103386
    63  H    0.101010
    64  H    0.078534
    65  H    0.089675
    66  H    0.081361
    67  H    0.120201
    68  H    0.077580
    69  H    0.087757
    70  H    0.099146
    71  H    0.130943
    72  H    0.104473
    73  H    0.304525
    74  H    0.288356
    75  H    0.084261
    76  H    0.071736
    77  H    0.097273
    78  H    0.124235
    79  H    0.121630
    80  H    0.118219
    81  H    0.126302
    82  H    0.107535
    83  H    0.087396
    84  H    0.077290
    85  H    0.091278
    86  H    0.077736
    87  H    0.078526
    88  H    0.081896
    89  H    0.096365
    90  H    0.112661
    91  H    0.129609
    92  H    0.045888
    93  H    0.102402
    94  H    0.125555
    95  H    0.080272
    96  H    0.084472
    97  H    0.075708
    98  H    0.082019
 Sum of Mulliken charges =  -0.00000

 Dipole moment (field-independent basis, Debye):
    X=             -0.2429    Y=             -2.1951    Z=              0.8237  Tot=              2.3571
 Quadrupole moment (field-independent basis, Debye-Ang):
   XX=           -270.5439   YY=           -239.8945   ZZ=           -262.8429
   XY=              5.5177   XZ=             -1.6106   YZ=              2.4214

 Normal termination of Gaussian 16 at Sat Jul 13 07:39:38 2019.
