 Gaussian 16, Revision A.03,
 Gaussian 16:  ES64L-G16RevA.03 25-Dec-2016

 -------------------------------------
 # td=(NStates=1) CAM-B3LYP/6-31G(d,p)
 -------------------------------------

 --
 TD
 --
 Symbolic Z-matrix:
 Charge =  0 Multiplicity = 1

                         Standard orientation:
 ---------------------------------------------------------------------
 Center     Atomic      Atomic             Coordinates (Angstroms)
 Number     Number       Type             X           Y           Z
 ---------------------------------------------------------------------
      1          8           0       14.761317   -2.141681   -0.231490
      2          8           0      -14.860026    1.848821    0.553348
      3          6           0       11.111670   -1.572956    0.898924
      4          6           0      -12.346680   -1.030217    0.642877
      5          6           0       12.576166   -1.973796    0.888023
      6          6           0      -13.711265   -0.323052    0.546265
      7          6           0       13.292236   -1.975437   -0.443005
      8          6           0      -13.706241    1.146063    0.738808
      9          6           0       10.914287   -0.373045   -0.066950
     10          6           0      -11.292024   -0.337225   -0.191875
     11          6           0       13.199731   -0.631746   -1.025640
     12          6           0      -12.861658    1.688164   -0.427375
     13          6           0       11.779164    0.012756   -0.979499
     14          6           0      -11.580417    0.935577   -0.664867
     15          6           0       10.792109   -1.303187    2.368351
     16          6           0       10.327843   -2.762599    0.304468
     17          6           0      -11.889143   -1.045256    2.162723
     18          6           0      -12.481743   -2.641919    0.026652
     19          6           0        9.603895    0.374676    0.075786
     20          6           0       -9.991934   -1.031927   -0.332011
     21          6           0       11.645070    1.147167   -1.929056
     22          6           0      -10.561543    1.729886   -1.466904
     23          6           0        9.372584    1.607599    0.067255
     24          6           0       -8.735188   -0.465909   -0.281886
     25          6           0        8.104353    2.305349    0.290796
     26          6           0       -7.539092   -1.121134   -0.541426
     27          6           0        8.096483    3.788173    0.628193
     28          6           0       -7.626691   -2.628851   -0.873491
     29          6           0        6.917554    1.643124    0.058974
     30          6           0       -6.375250   -0.588106   -0.372030
     31          6           0        5.645307    2.267772    0.352517
     32          6           0       -5.051010   -1.171917   -0.395651
     33          6           0        4.540552    1.546606    0.042146
     34          6           0       -3.960214   -0.391244   -0.286357
     35          6           0        3.125855    1.910270    0.257849
     36          6           0       -2.588678   -0.731000   -0.404363
     37          6           0        2.883869    3.301929    0.700192
     38          6           0       -2.173189   -2.218709   -0.770177
     39          6           0        2.209262    0.941235   -0.074000
     40          6           0       -1.564895    0.221995   -0.279841
     41          6           0        0.751584    1.112768   -0.112312
     42          6           0       -0.239259    0.064956   -0.313237
     43          1           0       13.128019   -1.304561    1.569746
     44          1           0       12.685627   -2.858857    1.566636
     45          1           0      -14.382334   -0.754609    1.404298
     46          1           0      -14.293490   -0.566050   -0.421816
     47          1           0       12.746483   -2.968381   -0.960886
     48          1           0      -13.035165    1.256021    1.644078
     49          1           0       13.998704    0.134495   -0.596929
     50          1           0       13.500743   -0.600729   -2.077606
     51          1           0      -13.417332    1.591091   -1.371609
     52          1           0      -12.707604    2.733385   -0.160782
     53          1           0       11.139279   -1.977716    3.025520
     54          1           0        9.701198   -1.109939    2.508021
     55          1           0       11.181408   -0.348484    2.531938
     56          1           0       10.880506   -3.284094   -0.524087
     57          1           0       10.254515   -3.640093    1.268159
     58          1           0        9.209271   -2.681731    0.087979
     59          1           0      -11.761693    0.137931    2.594373
     60          1           0      -10.964189   -1.611258    2.242928
     61          1           0      -12.673858   -1.446993    2.816427
     62          1           0      -13.309629   -3.162313    0.563534
     63          1           0      -11.609436   -3.215403    0.223802
     64          1           0      -12.694598   -2.487560   -0.908073
     65          1           0        8.883806   -0.321539    0.370864
     66          1           0      -10.208676   -2.050110   -0.561466
     67          1           0       10.556815    1.251045   -2.286669
     68          1           0       11.962303    2.033519   -1.471590
     69          1           0       12.216169    0.907008   -2.839964
     70          1           0      -11.107079    2.150437   -2.265879
     71          1           0       -9.974204    1.076595   -1.879982
     72          1           0       -9.940343    2.645458   -0.851615
     73          1           0       14.765353   -2.968248    0.483210
     74          1           0      -15.628323    1.721751    1.332535
     75          1           0       10.047137    2.348169    0.004845
     76          1           0       -8.554479    0.530346   -0.163662
     77          1           0        9.053669    4.196582    0.701329
     78          1           0        7.732470    4.444874   -0.145177
     79          1           0        7.637886    4.081234    1.683147
     80          1           0       -7.911739   -3.301698   -0.181998
     81          1           0       -8.538100   -2.866556   -1.629963
     82          1           0       -6.719818   -3.009240   -1.133610
     83          1           0        7.039211    0.613110   -0.362716
     84          1           0       -6.321653    0.482427   -0.114586
     85          1           0        5.769367    3.199990    0.537088
     86          1           0       -4.848312   -2.385833   -0.344876
     87          1           0        4.578568    0.548518   -0.551219
     88          1           0       -4.281039    0.779185   -0.179078
     89          1           0        3.287011    3.556112    1.617918
     90          1           0        1.854490    3.713438    0.627937
     91          1           0        3.281204    4.086317    0.073571
     92          1           0       -2.555002   -2.912574    0.066984
     93          1           0       -2.630189   -2.450521   -1.693773
     94          1           0       -1.068138   -2.364155   -0.697612
     95          1           0        2.523851   -0.057798   -0.274006
     96          1           0       -1.811998    1.208482   -0.103240
     97          1           0        0.367250    2.002424    0.131898
     98          1           0        0.075039   -0.941020   -0.412231
 ---------------------------------------------------------------------

 SCF Done:  E(RCAM-B3LYP) =  -1706.96987447     A.U. after   15 cycles

 Excitation energies and oscillator strengths:

 Excited State   1:      Singlet-A      2.3825 eV  520.41 nm  f=3.6602  <S**2>=0.000
     155 ->158         0.14740
     156 ->157         0.69052
 This state for optimization and/or second-order correction.
 Total Energy, E(TD-HF/TD-DFT) =  -1706.88232093
 Copying the excited state density for this state as the 1-particle RhoCI density.

 The electronic state is 1-A.
 Alpha  occ. eigenvalues --  -19.23104 -19.22187 -10.31867 -10.29764 -10.28272
 Alpha  occ. eigenvalues --  -10.28218 -10.27854 -10.27776 -10.27568 -10.27328
 Alpha  occ. eigenvalues --  -10.27269 -10.26964 -10.26775 -10.26673 -10.26539
 Alpha  occ. eigenvalues --  -10.26465 -10.26097 -10.26083 -10.26048 -10.25920
 Alpha  occ. eigenvalues --  -10.25919 -10.25867 -10.25848 -10.25724 -10.25511
 Alpha  occ. eigenvalues --  -10.25428 -10.25418 -10.25400 -10.25345 -10.25172
 Alpha  occ. eigenvalues --  -10.25071 -10.24981 -10.24977 -10.24962 -10.24815
 Alpha  occ. eigenvalues --  -10.24302 -10.24292 -10.24143 -10.24030 -10.23974
 Alpha  occ. eigenvalues --  -10.23911 -10.23590  -1.09789  -1.05920  -0.93846
 Alpha  occ. eigenvalues --   -0.92878  -0.91993  -0.91702  -0.90971  -0.90077
 Alpha  occ. eigenvalues --   -0.87633  -0.87089  -0.85856  -0.85211  -0.84428
 Alpha  occ. eigenvalues --   -0.83145  -0.81905  -0.80707  -0.79678  -0.78794
 Alpha  occ. eigenvalues --   -0.77345  -0.77090  -0.76301  -0.76286  -0.76077
 Alpha  occ. eigenvalues --   -0.75557  -0.74927  -0.74450  -0.73684  -0.71411
 Alpha  occ. eigenvalues --   -0.69055  -0.67866  -0.65381  -0.65114  -0.64412
 Alpha  occ. eigenvalues --   -0.63702  -0.63379  -0.62635  -0.61512  -0.59943
 Alpha  occ. eigenvalues --   -0.59058  -0.58978  -0.58540  -0.57458  -0.56794
 Alpha  occ. eigenvalues --   -0.55788  -0.54851  -0.54697  -0.54042  -0.53483
 Alpha  occ. eigenvalues --   -0.53063  -0.52347  -0.51761  -0.51430  -0.50853
 Alpha  occ. eigenvalues --   -0.50577  -0.50384  -0.49761  -0.49622  -0.49453
 Alpha  occ. eigenvalues --   -0.49365  -0.48690  -0.48132  -0.48015  -0.47915
 Alpha  occ. eigenvalues --   -0.47739  -0.47058  -0.46990  -0.46656  -0.46111
 Alpha  occ. eigenvalues --   -0.45896  -0.45595  -0.45404  -0.45096  -0.44652
 Alpha  occ. eigenvalues --   -0.44562  -0.44527  -0.44242  -0.43934  -0.43588
 Alpha  occ. eigenvalues --   -0.43399  -0.43290  -0.42933  -0.42284  -0.42238
 Alpha  occ. eigenvalues --   -0.42079  -0.41802  -0.41507  -0.41141  -0.41045
 Alpha  occ. eigenvalues --   -0.40451  -0.40284  -0.40065  -0.39509  -0.39269
 Alpha  occ. eigenvalues --   -0.38884  -0.38741  -0.38456  -0.37977  -0.37921
 Alpha  occ. eigenvalues --   -0.37538  -0.37329  -0.37121  -0.36802  -0.36288
 Alpha  occ. eigenvalues --   -0.35302  -0.34443  -0.33658  -0.32735  -0.31767
 Alpha  occ. eigenvalues --   -0.31742  -0.29628  -0.28624  -0.25910  -0.23855
 Alpha  occ. eigenvalues --   -0.19960
 Alpha virt. eigenvalues --   -0.05568  -0.00238   0.02455   0.06234   0.08297
 Alpha virt. eigenvalues --    0.09541   0.09925   0.10473   0.11468   0.11907
 Alpha virt. eigenvalues --    0.12347   0.12838   0.13507   0.13610   0.14222

 Mulliken charges:
               1
     1  O   -0.563391
     2  O   -0.559843
     3  C   -0.006046
     4  C   -0.028316
     5  C   -0.218918
     6  C   -0.179228
     7  C    0.179752
     8  C    0.203558
     9  C    0.059270
    10  C    0.074426
    11  C   -0.206171
    12  C   -0.213510
    13  C    0.027488
    14  C    0.010556
    15  C   -0.306125
    16  C   -0.279407
    17  C   -0.289095
    18  C   -0.332593
    19  C   -0.120258
    20  C   -0.137231
    21  C   -0.363036
    22  C   -0.331729
    23  C   -0.035026
    24  C   -0.086275
    25  C    0.045761
    26  C    0.155382
    27  C   -0.394149
    28  C   -0.366874
    29  C   -0.110883
    30  C   -0.157302
    31  C   -0.059461
    32  C   -0.078536
    33  C   -0.122993
    34  C   -0.101737
    35  C    0.138224
    36  C    0.065958
    37  C   -0.394810
    38  C   -0.366916
    39  C   -0.137541
    40  C   -0.083057
    41  C   -0.094740
    42  C   -0.074455
    43  H    0.101676
    44  H    0.075331
    45  H    0.053760
    46  H    0.081978
    47  H    0.066190
    48  H    0.066366
    49  H    0.118753
    50  H    0.104928
    51  H    0.118300
    52  H    0.111989
    53  H    0.113154
    54  H    0.097482
    55  H    0.119273
    56  H    0.106431
    57  H    0.042631
    58  H    0.106851
    59  H    0.072522
    60  H    0.112978
    61  H    0.103050
    62  H    0.096437
    63  H    0.110901
    64  H    0.125901
    65  H    0.075199
    66  H    0.085413
    67  H    0.114960
    68  H    0.131855
    69  H    0.102732
    70  H    0.104245
    71  H    0.125243
    72  H    0.078943
    73  H    0.298878
    74  H    0.304243
    75  H    0.062745
    76  H    0.079933
    77  H    0.111486
    78  H    0.130318
    79  H    0.108926
    80  H    0.127743
    81  H    0.084831
    82  H    0.105251
    83  H    0.081198
    84  H    0.077180
    85  H    0.081880
    86  H    0.081622
    87  H    0.084809
    88  H    0.072952
    89  H    0.135307
    90  H    0.107919
    91  H    0.123911
    92  H    0.109352
    93  H    0.138764
    94  H    0.111727
    95  H    0.086800
    96  H    0.069630
    97  H    0.072695
    98  H    0.063707
 Sum of Mulliken charges =  -0.00000

 Dipole moment (field-independent basis, Debye):
    X=             -0.9683    Y=             -0.2419    Z=              2.0655  Tot=              2.2940
 Quadrupole moment (field-independent basis, Debye-Ang):
   XX=           -270.2373   YY=           -239.6532   ZZ=           -261.6032
   XY=             14.0576   XZ=             -4.2553   YZ=              0.7793

 Normal termination of Gaussian 16 at Tue Jul 16 11:03:06 2019.
