 Gaussian 16, Revision A.03,
 Gaussian 16:  ES64L-G16RevA.03 25-Dec-2016

 -------------------------------------
 # td=(NStates=1) CAM-B3LYP/6-31G(d,p)
 -------------------------------------

 --
 TD
 --
 Symbolic Z-matrix:
 Charge =  0 Multiplicity = 1

                         Standard orientation:
 ---------------------------------------------------------------------
 Center     Atomic      Atomic             Coordinates (Angstroms)
 Number     Number       Type             X           Y           Z
 ---------------------------------------------------------------------
      1          8           0       14.736261   -2.248390   -0.375916
      2          8           0      -14.880312    1.911949    0.712363
      3          6           0       11.356558   -1.492406    0.972117
      4          6           0      -12.467874   -1.071292    0.570610
      5          6           0       12.813248   -1.732497    0.951818
      6          6           0      -13.790245   -0.181281    0.460644
      7          6           0       13.380150   -1.879535   -0.349268
      8          6           0      -13.712925    1.292422    0.782874
      9          6           0       10.966626   -0.245165    0.063341
     10          6           0      -11.294500   -0.240993   -0.117564
     11          6           0       13.234497   -0.521305   -1.053406
     12          6           0      -12.629951    1.960317   -0.142948
     13          6           0       11.960259    0.202074   -0.875971
     14          6           0      -11.502044    1.044954   -0.461069
     15          6           0       10.816457   -1.139209    2.405088
     16          6           0       10.556983   -2.726202    0.570289
     17          6           0      -12.090094   -1.428573    1.954511
     18          6           0      -12.884253   -2.342488   -0.301871
     19          6           0        9.639571    0.315991    0.149568
     20          6           0      -10.061563   -0.942115   -0.494467
     21          6           0       11.711843    1.268960   -1.874723
     22          6           0      -10.409597    1.786449   -1.348476
     23          6           0        9.403525    1.600089    0.104793
     24          6           0       -8.791749   -0.497919   -0.184888
     25          6           0        8.117071    2.238625    0.298875
     26          6           0       -7.638308   -1.273130   -0.475336
     27          6           0        7.932083    3.692746    0.594280
     28          6           0       -7.650909   -2.744006   -0.829103
     29          6           0        6.954578    1.550366   -0.018707
     30          6           0       -6.471947   -0.637986   -0.329990
     31          6           0        5.631650    2.040364    0.104699
     32          6           0       -5.130344   -1.086795   -0.429489
     33          6           0        4.519975    1.267555   -0.036769
     34          6           0       -3.925211   -0.372495   -0.242068
     35          6           0        3.133745    1.726847   -0.005249
     36          6           0       -2.656241   -0.741438   -0.380230
     37          6           0        2.934475    3.154238    0.589355
     38          6           0       -2.362373   -2.226475   -0.798737
     39          6           0        2.180041    0.816175   -0.108216
     40          6           0       -1.644316    0.114469   -0.267028
     41          6           0        0.812001    0.953093   -0.034072
     42          6           0       -0.203740   -0.016438   -0.376170
     43          1           0       13.296546   -0.909051    1.483167
     44          1           0       13.082641   -2.700972    1.581000
     45          1           0      -14.362676   -0.779246    1.246814
     46          1           0      -14.132010   -0.150775   -0.626226
     47          1           0       12.811579   -2.618056   -1.111542
     48          1           0      -13.360753    1.386831    2.010201
     49          1           0       14.131862    0.064635   -0.502806
     50          1           0       13.236975   -0.673418   -2.087774
     51          1           0      -13.096223    2.314489   -1.108387
     52          1           0      -12.440700    2.877696    0.414273
     53          1           0       11.055542   -1.905019    3.118710
     54          1           0        9.688098   -1.141524    2.455313
     55          1           0       11.230131   -0.191387    2.591530
     56          1           0       10.622362   -2.998022   -0.526058
     57          1           0       10.732559   -3.719290    1.210948
     58          1           0        9.333237   -2.487949    0.721718
     59          1           0      -11.739334   -0.643872    2.700236
     60          1           0      -11.251596   -2.012093    1.990493
     61          1           0      -12.814102   -2.046023    2.466068
     62          1           0      -13.611173   -3.009987    0.334583
     63          1           0      -11.937095   -3.127033   -0.254793
     64          1           0      -13.174369   -2.121261   -1.348706
     65          1           0        8.762311   -0.247980    0.282609
     66          1           0       -9.999468   -2.030234   -0.728407
     67          1           0       10.759975    1.420208   -2.208987
     68          1           0       12.320160    2.165003   -1.825582
     69          1           0       12.333443    0.998052   -2.686072
     70          1           0      -10.919479    2.463364   -2.163263
     71          1           0       -9.823397    1.148403   -1.997708
     72          1           0       -9.859850    2.532134   -0.810724
     73          1           0       14.870993   -3.119770    0.101324
     74          1           0      -15.520462    1.581820    1.401100
     75          1           0       10.326667    2.314749   -0.375996
     76          1           0       -8.598262    0.452341    0.232519
     77          1           0        8.967148    4.269116    0.802419
     78          1           0        7.371653    4.416019   -0.119964
     79          1           0        7.369231    3.913047    1.585055
     80          1           0       -8.297300   -3.296581   -0.103120
     81          1           0       -8.161334   -2.961651   -1.884862
     82          1           0       -6.671353   -3.271167   -0.966825
     83          1           0        7.023631    0.633422   -0.427171
     84          1           0       -6.659116    0.391894   -0.138076
     85          1           0        5.644179    3.103817    0.476966
     86          1           0       -5.105204   -2.193897   -0.755842
     87          1           0        4.644820    0.187738   -0.169307
     88          1           0       -4.159645    0.649795   -0.000645
     89          1           0        2.501667    3.067646    2.083076
     90          1           0        1.892172    3.571962   -0.052367
     91          1           0        4.035235    4.032585    0.369331
     92          1           0       -2.636742   -2.991260   -0.064901
     93          1           0       -2.897799   -2.525610   -1.743298
     94          1           0       -1.338002   -2.352645   -1.019652
     95          1           0        2.555280   -0.151281   -0.449299
     96          1           0       -2.072370    1.267401   -0.034573
     97          1           0        0.493096    2.009050    0.345116
     98          1           0        0.276126   -1.080595   -0.625483
 ---------------------------------------------------------------------

 SCF Done:  E(RCAM-B3LYP) =  -1706.90300950     A.U. after   15 cycles

 Excitation energies and oscillator strengths:

 Excited State   1:      Singlet-A      2.2627 eV  547.94 nm  f=3.8188  <S**2>=0.000
     155 ->158        -0.16166
     156 ->157         0.68577
 This state for optimization and/or second-order correction.
 Total Energy, E(TD-HF/TD-DFT) =  -1706.81985567
 Copying the excited state density for this state as the 1-particle RhoCI density.

 The electronic state is 1-A.
 Alpha  occ. eigenvalues --  -19.21864 -19.21634 -10.33433 -10.31451 -10.30690
 Alpha  occ. eigenvalues --  -10.29199 -10.28272 -10.27948 -10.27901 -10.27769
 Alpha  occ. eigenvalues --  -10.27560 -10.27545 -10.27495 -10.27399 -10.27354
 Alpha  occ. eigenvalues --  -10.27296 -10.27179 -10.27009 -10.26979 -10.26918
 Alpha  occ. eigenvalues --  -10.26889 -10.26806 -10.26626 -10.26555 -10.26302
 Alpha  occ. eigenvalues --  -10.26200 -10.26140 -10.25843 -10.25819 -10.25698
 Alpha  occ. eigenvalues --  -10.25694 -10.25587 -10.25428 -10.25384 -10.25259
 Alpha  occ. eigenvalues --  -10.25131 -10.25007 -10.24942 -10.24669 -10.23968
 Alpha  occ. eigenvalues --  -10.23942 -10.23902  -1.12454  -1.09543  -0.93929
 Alpha  occ. eigenvalues --   -0.92999  -0.92374  -0.92036  -0.91149  -0.90722
 Alpha  occ. eigenvalues --   -0.87856  -0.87034  -0.86413  -0.85428  -0.84520
 Alpha  occ. eigenvalues --   -0.82895  -0.81728  -0.80621  -0.79002  -0.77294
 Alpha  occ. eigenvalues --   -0.76991  -0.76956  -0.76699  -0.75530  -0.75384
 Alpha  occ. eigenvalues --   -0.74596  -0.74291  -0.73828  -0.72935  -0.70992
 Alpha  occ. eigenvalues --   -0.69324  -0.67559  -0.66039  -0.64869  -0.63821
 Alpha  occ. eigenvalues --   -0.63407  -0.62388  -0.61019  -0.59914  -0.59605
 Alpha  occ. eigenvalues --   -0.58979  -0.58501  -0.57927  -0.57569  -0.56412
 Alpha  occ. eigenvalues --   -0.56113  -0.55674  -0.55555  -0.54929  -0.53800
 Alpha  occ. eigenvalues --   -0.53382  -0.52729  -0.52293  -0.52058  -0.51840
 Alpha  occ. eigenvalues --   -0.50604  -0.50296  -0.49696  -0.49297  -0.48834
 Alpha  occ. eigenvalues --   -0.48425  -0.48216  -0.47919  -0.47739  -0.47394
 Alpha  occ. eigenvalues --   -0.47193  -0.47124  -0.46615  -0.46129  -0.46053
 Alpha  occ. eigenvalues --   -0.45721  -0.45288  -0.44902  -0.44716  -0.44559
 Alpha  occ. eigenvalues --   -0.44165  -0.43893  -0.43640  -0.43398  -0.43035
 Alpha  occ. eigenvalues --   -0.42825  -0.42733  -0.42546  -0.42388  -0.41842
 Alpha  occ. eigenvalues --   -0.41564  -0.41497  -0.41043  -0.40948  -0.40800
 Alpha  occ. eigenvalues --   -0.40058  -0.39742  -0.39652  -0.39357  -0.39277
 Alpha  occ. eigenvalues --   -0.38914  -0.38402  -0.38289  -0.37821  -0.37700
 Alpha  occ. eigenvalues --   -0.37493  -0.37200  -0.36969  -0.36115  -0.35177
 Alpha  occ. eigenvalues --   -0.35076  -0.34253  -0.33831  -0.32740  -0.32509
 Alpha  occ. eigenvalues --   -0.30527  -0.30105  -0.28103  -0.26068  -0.23348
 Alpha  occ. eigenvalues --   -0.20000
 Alpha virt. eigenvalues --   -0.06107  -0.01270   0.01902   0.05309   0.05444
 Alpha virt. eigenvalues --    0.07327   0.09738   0.10338   0.10929   0.11351
 Alpha virt. eigenvalues --    0.11841   0.11964   0.12425   0.12710   0.13182

 Mulliken charges:
               1
     1  O   -0.566866
     2  O   -0.526577
     3  C   -0.005596
     4  C   -0.011831
     5  C   -0.173634
     6  C   -0.175171
     7  C    0.192362
     8  C    0.194270
     9  C    0.032073
    10  C    0.069512
    11  C   -0.224145
    12  C   -0.234682
    13  C    0.063990
    14  C    0.051518
    15  C   -0.296980
    16  C   -0.281865
    17  C   -0.314454
    18  C   -0.294564
    19  C   -0.098885
    20  C   -0.164770
    21  C   -0.382184
    22  C   -0.365344
    23  C   -0.103671
    24  C   -0.084807
    25  C    0.092293
    26  C    0.160623
    27  C   -0.395456
    28  C   -0.388125
    29  C   -0.100009
    30  C   -0.132178
    31  C   -0.069217
    32  C   -0.095243
    33  C   -0.118869
    34  C   -0.131258
    35  C    0.115040
    36  C    0.184132
    37  C   -0.274153
    38  C   -0.372204
    39  C   -0.086524
    40  C   -0.144464
    41  C   -0.093887
    42  C   -0.113344
    43  H    0.105617
    44  H    0.058358
    45  H    0.070065
    46  H    0.093533
    47  H    0.055518
    48  H    0.000786
    49  H    0.105782
    50  H    0.118205
    51  H    0.116542
    52  H    0.126266
    53  H    0.098469
    54  H    0.099710
    55  H    0.111810
    56  H    0.100936
    57  H    0.086427
    58  H    0.065329
    59  H    0.107143
    60  H    0.117326
    61  H    0.095908
    62  H    0.096421
    63  H    0.067964
    64  H    0.121558
    65  H    0.089941
    66  H    0.083196
    67  H    0.140131
    68  H    0.119374
    69  H    0.101052
    70  H    0.077043
    71  H    0.127930
    72  H    0.118425
    73  H    0.309022
    74  H    0.316765
    75  H    0.082490
    76  H    0.094439
    77  H    0.092352
    78  H    0.120152
    79  H    0.119101
    80  H    0.120971
    81  H    0.105334
    82  H    0.117506
    83  H    0.071328
    84  H    0.068045
    85  H    0.074796
    86  H    0.064435
    87  H    0.084558
    88  H    0.077950
    89  H    0.048621
    90  H    0.088406
    91  H    0.077501
    92  H    0.121223
    93  H    0.114035
    94  H    0.109726
    95  H    0.077645
    96  H    0.067175
    97  H    0.081147
    98  H    0.083658
 Sum of Mulliken charges =  -0.00000

 Dipole moment (field-independent basis, Debye):
    X=             -0.9275    Y=             -2.1468    Z=              0.9035  Tot=              2.5070
 Quadrupole moment (field-independent basis, Debye-Ang):
   XX=           -251.7368   YY=           -245.8857   ZZ=           -262.2722
   XY=              6.7787   XZ=            -10.7110   YZ=             -0.5797

 Normal termination of Gaussian 16 at Wed Jul 17 15:14:44 2019.
