 Gaussian 16, Revision A.03,
 Gaussian 16:  ES64L-G16RevA.03 25-Dec-2016

 -------------------------------------
 # td=(NStates=1) CAM-B3LYP/6-31G(d,p)
 -------------------------------------

 --
 TD
 --
 Symbolic Z-matrix:
 Charge =  0 Multiplicity = 1

                         Standard orientation:
 ---------------------------------------------------------------------
 Center     Atomic      Atomic             Coordinates (Angstroms)
 Number     Number       Type             X           Y           Z
 ---------------------------------------------------------------------
      1          8           0       14.742223   -1.996585   -0.250848
      2          8           0      -14.610104    2.002083    1.056269
      3          6           0       11.205691   -1.410497    1.000311
      4          6           0      -12.375380   -0.913846    0.711557
      5          6           0       12.664673   -1.689086    1.193099
      6          6           0      -13.691227   -0.180039    0.793202
      7          6           0       13.450518   -1.740011   -0.226909
      8          6           0      -13.404594    1.316127    0.918723
      9          6           0       10.908459   -0.192035    0.050874
     10          6           0      -11.273222   -0.165275   -0.144616
     11          6           0       13.220911   -0.425760   -0.978683
     12          6           0      -12.592523    1.790869   -0.222064
     13          6           0       11.761400    0.174761   -0.823878
     14          6           0      -11.439109    1.067943   -0.635415
     15          6           0       10.736560   -0.919678    2.487681
     16          6           0       10.405513   -2.640809    0.630638
     17          6           0      -11.848065   -1.235083    2.090708
     18          6           0      -12.584400   -2.272400   -0.003253
     19          6           0        9.523810    0.372690    0.103563
     20          6           0      -10.003272   -0.931854   -0.268248
     21          6           0       11.503052    1.239592   -1.970275
     22          6           0      -10.588221    1.774995   -1.657286
     23          6           0        9.328753    1.695312    0.024007
     24          6           0       -8.729267   -0.490657   -0.340819
     25          6           0        7.997926    2.186863    0.221802
     26          6           0       -7.509467   -1.259957   -0.543896
     27          6           0        7.838042    3.672509    0.579482
     28          6           0       -7.626700   -2.606349   -0.996387
     29          6           0        6.863333    1.430767    0.029382
     30          6           0       -6.319520   -0.580205   -0.440016
     31          6           0        5.582328    1.988704    0.221062
     32          6           0       -5.084218   -1.139066   -0.646724
     33          6           0        4.429858    1.090669   -0.062042
     34          6           0       -3.956928   -0.402480   -0.421034
     35          6           0        3.148614    1.521661    0.057272
     36          6           0       -2.571686   -0.819522   -0.658103
     37          6           0        2.813789    2.875260    0.580971
     38          6           0       -2.468441   -2.316646   -1.094895
     39          6           0        2.108152    0.585592   -0.260409
     40          6           0       -1.607903    0.055287   -0.343583
     41          6           0        0.784838    0.738606   -0.190267
     42          6           0       -0.178629   -0.196316   -0.400319
     43          1           0       13.088002   -0.891409    1.812616
     44          1           0       12.842154   -2.726693    1.552793
     45          1           0      -14.108205   -0.605873    1.690156
     46          1           0      -14.135444   -0.249372   -0.125310
     47          1           0       12.779547   -2.422640   -0.805442
     48          1           0      -12.844528    1.295603    1.857244
     49          1           0       13.835192    0.233216   -0.622281
     50          1           0       13.518348   -0.626787   -2.006565
     51          1           0      -13.345264    2.092560   -0.965734
     52          1           0      -12.185130    2.881109   -0.053647
     53          1           0       10.976766   -1.681844    3.142463
     54          1           0        9.522466   -0.817800    2.518052
     55          1           0       11.118755   -0.041165    2.895393
     56          1           0       10.768227   -3.082201   -0.339803
     57          1           0       10.701194   -3.383139    1.423091
     58          1           0        9.280337   -2.633315    0.402710
     59          1           0      -11.772541   -0.544521    2.847220
     60          1           0      -10.690770   -1.600532    2.103446
     61          1           0      -12.195845   -2.132106    2.732844
     62          1           0      -13.373369   -2.820839    0.466214
     63          1           0      -11.777076   -3.020001   -0.166333
     64          1           0      -13.010501   -1.996846   -1.069512
     65          1           0        8.776147   -0.324544    0.275504
     66          1           0      -10.151719   -2.022040   -0.341512
     67          1           0       10.515093    1.288023   -2.168913
     68          1           0       11.723778    2.309970   -1.774486
     69          1           0       12.037799    0.898078   -2.933817
     70          1           0      -11.180346    2.653999   -2.165590
     71          1           0      -10.102022    1.117221   -2.449277
     72          1           0       -9.925829    2.342206   -1.038285
     73          1           0       15.003805   -2.826659    0.051186
     74          1           0      -15.061973    1.675847    1.925253
     75          1           0       10.279138    2.430347   -0.170992
     76          1           0       -8.548012    0.702266   -0.163169
     77          1           0        8.944390    4.162435    0.529482
     78          1           0        7.233965    4.315200    0.136750
     79          1           0        7.485974    3.836453    1.608129
     80          1           0       -8.256687   -3.083522   -0.296980
     81          1           0       -8.112806   -2.882655   -2.047317
     82          1           0       -6.780507   -3.439303   -0.852195
     83          1           0        6.919610    0.507208   -0.484917
     84          1           0       -6.343946    0.408845   -0.032471
     85          1           0        5.222462    2.992204    0.463135
     86          1           0       -5.078224   -2.158986   -0.973716
     87          1           0        4.633660    0.107374   -0.335955
     88          1           0       -4.204839    0.722056   -0.099202
     89          1           0        3.602228    3.044695    1.362003
     90          1           0        1.681425    2.996814    0.954054
     91          1           0        3.061775    3.632133   -0.423273
     92          1           0       -3.251095   -3.077429   -0.656895
     93          1           0       -2.375239   -2.281469   -2.392698
     94          1           0       -1.466554   -2.645770   -0.713998
     95          1           0        2.314382   -0.357287   -0.606164
     96          1           0       -1.802943    1.022175   -0.026282
     97          1           0        0.441470    1.580929    0.414912
     98          1           0        0.175682   -1.220019   -0.496554
 ---------------------------------------------------------------------

 SCF Done:  E(RCAM-B3LYP) =  -1706.97935572     A.U. after   15 cycles

 Excitation energies and oscillator strengths:

 Excited State   1:      Singlet-A      2.0714 eV  598.54 nm  f=3.5539  <S**2>=0.000
     155 ->158         0.13538
     156 ->157         0.69667
     156 <-157        -0.10325
 This state for optimization and/or second-order correction.
 Total Energy, E(TD-HF/TD-DFT) =  -1706.90323194
 Copying the excited state density for this state as the 1-particle RhoCI density.

 The electronic state is 1-A.
 Alpha  occ. eigenvalues --  -19.22080 -19.21625 -10.30076 -10.29529 -10.28815
 Alpha  occ. eigenvalues --  -10.28432 -10.27903 -10.27578 -10.27480 -10.27273
 Alpha  occ. eigenvalues --  -10.26986 -10.26951 -10.26797 -10.26630 -10.26503
 Alpha  occ. eigenvalues --  -10.26441 -10.26186 -10.26039 -10.25966 -10.25898
 Alpha  occ. eigenvalues --  -10.25872 -10.25838 -10.25536 -10.25477 -10.25458
 Alpha  occ. eigenvalues --  -10.25423 -10.25376 -10.25291 -10.25283 -10.25158
 Alpha  occ. eigenvalues --  -10.25102 -10.25006 -10.24874 -10.24841 -10.24767
 Alpha  occ. eigenvalues --  -10.24699 -10.24634 -10.24590 -10.24514 -10.24341
 Alpha  occ. eigenvalues --  -10.23469 -10.23219  -1.13964  -1.09357  -0.93991
 Alpha  occ. eigenvalues --   -0.93194  -0.92308  -0.91815  -0.90757  -0.89830
 Alpha  occ. eigenvalues --   -0.87981  -0.87417  -0.86350  -0.85304  -0.84490
 Alpha  occ. eigenvalues --   -0.83192  -0.81439  -0.79782  -0.79431  -0.78030
 Alpha  occ. eigenvalues --   -0.76311  -0.76272  -0.76063  -0.75875  -0.75533
 Alpha  occ. eigenvalues --   -0.75424  -0.75154  -0.74685  -0.73418  -0.70942
 Alpha  occ. eigenvalues --   -0.69087  -0.67825  -0.66544  -0.65523  -0.64236
 Alpha  occ. eigenvalues --   -0.63771  -0.62345  -0.61871  -0.60688  -0.60477
 Alpha  occ. eigenvalues --   -0.60253  -0.59827  -0.58939  -0.57812  -0.56431
 Alpha  occ. eigenvalues --   -0.56123  -0.55558  -0.55025  -0.54740  -0.53384
 Alpha  occ. eigenvalues --   -0.53092  -0.52688  -0.51598  -0.51381  -0.50702
 Alpha  occ. eigenvalues --   -0.50543  -0.50109  -0.49690  -0.49265  -0.48853
 Alpha  occ. eigenvalues --   -0.48541  -0.48254  -0.48051  -0.47985  -0.47470
 Alpha  occ. eigenvalues --   -0.47343  -0.46917  -0.46433  -0.46302  -0.45895
 Alpha  occ. eigenvalues --   -0.45726  -0.45621  -0.45314  -0.44978  -0.44731
 Alpha  occ. eigenvalues --   -0.44688  -0.44284  -0.44023  -0.43676  -0.43295
 Alpha  occ. eigenvalues --   -0.43183  -0.42668  -0.42541  -0.42235  -0.41724
 Alpha  occ. eigenvalues --   -0.41464  -0.41423  -0.41082  -0.41011  -0.40918
 Alpha  occ. eigenvalues --   -0.40742  -0.40502  -0.40369  -0.40190  -0.39155
 Alpha  occ. eigenvalues --   -0.38907  -0.38551  -0.38105  -0.37949  -0.37767
 Alpha  occ. eigenvalues --   -0.37710  -0.37320  -0.37113  -0.36557  -0.35619
 Alpha  occ. eigenvalues --   -0.35338  -0.34477  -0.33929  -0.32696  -0.30885
 Alpha  occ. eigenvalues --   -0.30755  -0.30018  -0.28347  -0.26503  -0.22773
 Alpha  occ. eigenvalues --   -0.18480
 Alpha virt. eigenvalues --   -0.05886  -0.00562   0.03172   0.06491   0.08930
 Alpha virt. eigenvalues --    0.10802   0.11046   0.11826   0.12065   0.12193
 Alpha virt. eigenvalues --    0.12324   0.12956   0.13112   0.13419   0.13899

 Mulliken charges:
               1
     1  O   -0.516424
     2  O   -0.566393
     3  C   -0.013003
     4  C   -0.010767
     5  C   -0.200395
     6  C   -0.178036
     7  C    0.167226
     8  C    0.176647
     9  C    0.081067
    10  C    0.056571
    11  C   -0.203982
    12  C   -0.252092
    13  C    0.000569
    14  C    0.086074
    15  C   -0.306480
    16  C   -0.306507
    17  C   -0.324740
    18  C   -0.303275
    19  C   -0.091540
    20  C   -0.131066
    21  C   -0.368208
    22  C   -0.362815
    23  C   -0.108843
    24  C   -0.102661
    25  C    0.083121
    26  C    0.126239
    27  C   -0.371549
    28  C   -0.392400
    29  C   -0.114054
    30  C   -0.114099
    31  C   -0.107613
    32  C   -0.053078
    33  C   -0.108890
    34  C   -0.131855
    35  C    0.122264
    36  C    0.105276
    37  C   -0.363030
    38  C   -0.346784
    39  C   -0.117488
    40  C   -0.107931
    41  C   -0.066029
    42  C   -0.111809
    43  H    0.102434
    44  H    0.074004
    45  H    0.091550
    46  H    0.103765
    47  H    0.053392
    48  H    0.070559
    49  H    0.122979
    50  H    0.101957
    51  H    0.122519
    52  H    0.090984
    53  H    0.102684
    54  H    0.071819
    55  H    0.115595
    56  H    0.102597
    57  H    0.099249
    58  H    0.102344
    59  H    0.113240
    60  H    0.085994
    61  H    0.087107
    62  H    0.101748
    63  H    0.107396
    64  H    0.084400
    65  H    0.094604
    66  H    0.070929
    67  H    0.132412
    68  H    0.107503
    69  H    0.092512
    70  H    0.095576
    71  H    0.129487
    72  H    0.131218
    73  H    0.302945
    74  H    0.313497
    75  H    0.097757
    76  H    0.065743
    77  H    0.080013
    78  H    0.132801
    79  H    0.118504
    80  H    0.129431
    81  H    0.114369
    82  H    0.090746
    83  H    0.093761
    84  H    0.074446
    85  H    0.095332
    86  H    0.081400
    87  H    0.078439
    88  H    0.069579
    89  H    0.122591
    90  H    0.109996
    91  H    0.096235
    92  H    0.120382
    93  H    0.097049
    94  H    0.112244
    95  H    0.064665
    96  H    0.082632
    97  H    0.064583
    98  H    0.077086
 Sum of Mulliken charges =  -0.00000

 Dipole moment (field-independent basis, Debye):
    X=              1.2290    Y=             -2.2801    Z=              1.6866  Tot=              3.0910
 Quadrupole moment (field-independent basis, Debye-Ang):
   XX=           -253.9036   YY=           -241.7833   ZZ=           -260.2285
   XY=             -2.1773   XZ=             -9.8312   YZ=              1.9895

 Normal termination of Gaussian 16 at Thu Jul 18 08:41:08 2019.
