 Gaussian 16, Revision A.03,
 Gaussian 16:  ES64L-G16RevA.03 25-Dec-2016

 -------------------------------------
 # td=(NStates=1) CAM-B3LYP/6-31G(d,p)
 -------------------------------------

 --
 TD
 --
 Symbolic Z-matrix:
 Charge =  0 Multiplicity = 1

                         Standard orientation:
 ---------------------------------------------------------------------
 Center     Atomic      Atomic             Coordinates (Angstroms)
 Number     Number       Type             X           Y           Z
 ---------------------------------------------------------------------
      1          8           0       14.506781   -2.610885   -0.465249
      2          8           0      -14.821019    1.553997    1.023984
      3          6           0       11.068853   -1.591549    0.913862
      4          6           0      -12.274133   -1.190481    0.554815
      5          6           0       12.524032   -2.196317    0.902256
      6          6           0      -13.651611   -0.488552    0.738762
      7          6           0       13.222281   -2.106554   -0.466853
      8          6           0      -13.502836    1.050998    1.026369
      9          6           0       10.942581   -0.320143    0.133618
     10          6           0      -11.261207   -0.334046   -0.069226
     11          6           0       13.233282   -0.587613   -0.873232
     12          6           0      -12.813707    1.661818   -0.215318
     13          6           0       11.837107    0.062317   -0.742419
     14          6           0      -11.495315    0.949776   -0.524833
     15          6           0       10.665312   -1.363379    2.459155
     16          6           0       10.028041   -2.640162    0.378689
     17          6           0      -11.730020   -1.548183    2.076179
     18          6           0      -12.479695   -2.521416   -0.048615
     19          6           0        9.618596    0.257472    0.246774
     20          6           0       -9.948032   -0.996521   -0.277207
     21          6           0       11.785406    1.375416   -1.612550
     22          6           0      -10.578597    1.719685   -1.608223
     23          6           0        9.361139    1.674944    0.248884
     24          6           0       -8.721349   -0.397395   -0.399981
     25          6           0        8.062286    2.339584    0.375954
     26          6           0       -7.508454   -1.171477   -0.637848
     27          6           0        8.046001    3.769073    0.761464
     28          6           0       -7.507545   -2.551959   -0.994030
     29          6           0        6.910086    1.540988    0.076194
     30          6           0       -6.369707   -0.342402   -0.408857
     31          6           0        5.576689    2.058789    0.207303
     32          6           0       -4.992639   -0.835204   -0.617803
     33          6           0        4.457200    1.334540    0.032641
     34          6           0       -3.915563   -0.100547   -0.458109
     35          6           0        3.106626    1.910754    0.049306
     36          6           0       -2.549136   -0.360344   -0.659555
     37          6           0        2.923951    3.347255    0.397837
     38          6           0       -2.317834   -1.775419   -1.202398
     39          6           0        2.119806    0.951180   -0.155844
     40          6           0       -1.557043    0.430373   -0.285675
     41          6           0        0.768851    1.118759   -0.047263
     42          6           0       -0.143600    0.150950   -0.431587
     43          1           0       13.128852   -1.587732    1.617670
     44          1           0       12.372207   -3.135941    1.301232
     45          1           0      -14.059939   -0.991189    1.741028
     46          1           0      -14.197896   -0.749011   -0.159473
     47          1           0       12.593034   -2.746106   -1.184832
     48          1           0      -13.078433    1.415065    2.040136
     49          1           0       14.170755   -0.043781   -0.236153
     50          1           0       13.478410   -0.476148   -1.956993
     51          1           0      -13.578691    1.863146   -0.976857
     52          1           0      -12.596839    2.738973    0.203911
     53          1           0       10.857640   -2.266419    3.048383
     54          1           0        9.553528   -1.070129    2.327022
     55          1           0       11.309894   -0.452601    2.607813
     56          1           0       10.282048   -3.185968   -0.448846
     57          1           0       10.197649   -3.382456    1.230837
     58          1           0        8.941904   -2.508823    0.170017
     59          1           0      -11.596010   -0.478655    2.490404
     60          1           0      -10.762539   -2.079579    1.999761
     61          1           0      -12.672961   -2.034354    2.629567
     62          1           0      -13.078699   -3.279391    0.691236
     63          1           0      -11.442266   -3.203422   -0.081930
     64          1           0      -13.086769   -2.162265   -0.956664
     65          1           0        8.732099   -0.305974    0.439717
     66          1           0      -10.087658   -2.063670   -0.414734
     67          1           0       10.669061    1.581173   -1.948373
     68          1           0       12.256873    2.241110   -1.128681
     69          1           0       12.373212    1.267631   -2.555510
     70          1           0      -11.339629    1.891470   -2.497298
     71          1           0       -9.839299    1.280789   -2.104234
     72          1           0      -10.171810    2.959440   -1.329068
     73          1           0       14.597006   -3.369392   -0.011534
     74          1           0      -15.419893    1.131978    1.552154
     75          1           0       10.414875    2.128962    0.113070
     76          1           0       -8.687075    0.697809   -0.131062
     77          1           0        9.104204    4.170014    1.029336
     78          1           0        7.708466    4.264771   -0.108270
     79          1           0        7.454336    4.001192    1.573480
     80          1           0       -8.105714   -3.209357   -0.304337
     81          1           0       -7.964270   -2.619880   -2.207928
     82          1           0       -6.596021   -2.955895   -1.062784
     83          1           0        6.925183    0.668319   -0.509741
     84          1           0       -6.210943    0.486506   -0.039716
     85          1           0        5.730637    2.986466    0.600670
     86          1           0       -4.785322   -1.841291   -0.965654
     87          1           0        4.612306    0.373447   -0.599993
     88          1           0       -4.152536    0.933145    0.212117
     89          1           0        3.226982    3.750289    1.517165
     90          1           0        1.891316    3.573693    0.202849
     91          1           0        3.452363    3.993887   -0.495688
     92          1           0       -2.545588   -2.604624   -0.550401
     93          1           0       -3.131368   -1.827814   -1.984849
     94          1           0       -1.228160   -1.913345   -1.582783
     95          1           0        2.384154   -0.093729   -0.114957
     96          1           0       -1.788596    1.467165    0.143908
     97          1           0        0.423058    2.208224    0.411099
     98          1           0        0.236142   -0.690641   -0.770950
 ---------------------------------------------------------------------

 SCF Done:  E(RCAM-B3LYP) =  -1706.89797388     A.U. after   14 cycles

 Excitation energies and oscillator strengths:

 Excited State   1:      Singlet-A      2.4414 eV  507.84 nm  f=3.6314  <S**2>=0.000
     155 ->158         0.19262
     156 ->157         0.67325
 This state for optimization and/or second-order correction.
 Total Energy, E(TD-HF/TD-DFT) =  -1706.80825431
 Copying the excited state density for this state as the 1-particle RhoCI density.

 The electronic state is 1-A.
 Alpha  occ. eigenvalues --  -19.20393 -19.19532 -10.31505 -10.31130 -10.28467
 Alpha  occ. eigenvalues --  -10.28199 -10.28080 -10.28061 -10.27874 -10.27751
 Alpha  occ. eigenvalues --  -10.27656 -10.27367 -10.27115 -10.27054 -10.27013
 Alpha  occ. eigenvalues --  -10.26837 -10.26763 -10.26710 -10.26359 -10.26315
 Alpha  occ. eigenvalues --  -10.26294 -10.26294 -10.26240 -10.26231 -10.26221
 Alpha  occ. eigenvalues --  -10.26168 -10.26154 -10.26055 -10.26029 -10.25912
 Alpha  occ. eigenvalues --  -10.25748 -10.25662 -10.25618 -10.25602 -10.25467
 Alpha  occ. eigenvalues --  -10.25373 -10.25346 -10.25337 -10.25268 -10.24834
 Alpha  occ. eigenvalues --  -10.24782 -10.24465  -1.11805  -1.10088  -0.93507
 Alpha  occ. eigenvalues --   -0.93461  -0.92481  -0.91691  -0.90644  -0.89891
 Alpha  occ. eigenvalues --   -0.87336  -0.86053  -0.85823  -0.85134  -0.84341
 Alpha  occ. eigenvalues --   -0.83476  -0.82262  -0.79537  -0.79097  -0.78479
 Alpha  occ. eigenvalues --   -0.76584  -0.76390  -0.75687  -0.75545  -0.75168
 Alpha  occ. eigenvalues --   -0.74505  -0.74475  -0.74095  -0.73793  -0.70646
 Alpha  occ. eigenvalues --   -0.69462  -0.67755  -0.66239  -0.65369  -0.64238
 Alpha  occ. eigenvalues --   -0.63597  -0.62888  -0.62118  -0.61151  -0.60705
 Alpha  occ. eigenvalues --   -0.59307  -0.58350  -0.58098  -0.57517  -0.56343
 Alpha  occ. eigenvalues --   -0.56044  -0.54958  -0.54772  -0.54323  -0.53709
 Alpha  occ. eigenvalues --   -0.52684  -0.52532  -0.51764  -0.51409  -0.51322
 Alpha  occ. eigenvalues --   -0.50799  -0.50649  -0.50189  -0.49210  -0.48856
 Alpha  occ. eigenvalues --   -0.48240  -0.48031  -0.48004  -0.47807  -0.47691
 Alpha  occ. eigenvalues --   -0.47357  -0.47145  -0.46768  -0.46278  -0.45909
 Alpha  occ. eigenvalues --   -0.45778  -0.45504  -0.45118  -0.44700  -0.44329
 Alpha  occ. eigenvalues --   -0.44240  -0.43913  -0.43740  -0.43548  -0.43440
 Alpha  occ. eigenvalues --   -0.43146  -0.42641  -0.42426  -0.42128  -0.42022
 Alpha  occ. eigenvalues --   -0.41958  -0.41772  -0.41626  -0.41446  -0.40731
 Alpha  occ. eigenvalues --   -0.40568  -0.39978  -0.39671  -0.39509  -0.39037
 Alpha  occ. eigenvalues --   -0.38944  -0.38878  -0.38251  -0.38005  -0.37377
 Alpha  occ. eigenvalues --   -0.36911  -0.36590  -0.35982  -0.35759  -0.35072
 Alpha  occ. eigenvalues --   -0.34697  -0.34420  -0.33663  -0.32256  -0.31718
 Alpha  occ. eigenvalues --   -0.31699  -0.29884  -0.28384  -0.25811  -0.22935
 Alpha  occ. eigenvalues --   -0.20056
 Alpha virt. eigenvalues --   -0.04898  -0.01381   0.01673   0.05490   0.07446
 Alpha virt. eigenvalues --    0.09332   0.10337   0.11235   0.12163   0.12240
 Alpha virt. eigenvalues --    0.12488   0.12664   0.12776   0.13347   0.13547

 Mulliken charges:
               1
     1  O   -0.535983
     2  O   -0.561895
     3  C   -0.073079
     4  C   -0.060494
     5  C   -0.200696
     6  C   -0.188051
     7  C    0.191039
     8  C    0.173667
     9  C    0.119043
    10  C    0.123269
    11  C   -0.205796
    12  C   -0.222177
    13  C    0.025948
    14  C    0.016704
    15  C   -0.285590
    16  C   -0.303450
    17  C   -0.295104
    18  C   -0.267445
    19  C   -0.118461
    20  C   -0.134953
    21  C   -0.374758
    22  C   -0.324491
    23  C   -0.131864
    24  C   -0.101680
    25  C    0.055967
    26  C    0.104964
    27  C   -0.378888
    28  C   -0.350117
    29  C   -0.122455
    30  C   -0.051159
    31  C   -0.051722
    32  C   -0.106937
    33  C   -0.135623
    34  C   -0.112976
    35  C    0.100381
    36  C    0.132796
    37  C   -0.356930
    38  C   -0.376634
    39  C   -0.121365
    40  C   -0.131294
    41  C   -0.078800
    42  C   -0.073641
    43  H    0.096386
    44  H    0.083225
    45  H    0.067103
    46  H    0.105227
    47  H    0.064594
    48  H    0.088952
    49  H    0.089872
    50  H    0.105790
    51  H    0.130089
    52  H    0.097885
    53  H    0.104322
    54  H    0.104987
    55  H    0.105912
    56  H    0.109205
    57  H    0.080808
    58  H    0.108027
    59  H    0.094836
    60  H    0.108642
    61  H    0.083823
    62  H    0.087004
    63  H    0.085426
    64  H    0.096038
    65  H    0.090056
    66  H    0.072392
    67  H    0.116925
    68  H    0.124960
    69  H    0.098620
    70  H    0.092955
    71  H    0.137255
    72  H    0.062648
    73  H    0.293130
    74  H    0.293476
    75  H    0.089422
    76  H    0.105462
    77  H    0.110969
    78  H    0.142008
    79  H    0.138880
    80  H    0.122956
    81  H    0.087130
    82  H    0.126105
    83  H    0.085260
    84  H    0.045632
    85  H    0.066608
    86  H    0.068419
    87  H    0.081117
    88  H    0.045096
    89  H    0.116983
    90  H    0.116977
    91  H    0.103992
    92  H    0.129132
    93  H    0.112352
    94  H    0.096221
    95  H    0.093250
    96  H    0.081075
    97  H    0.069966
    98  H    0.075145
 Sum of Mulliken charges =  -0.00000

 Dipole moment (field-independent basis, Debye):
    X=              0.1258    Y=             -1.6333    Z=              1.2511  Tot=              2.0612
 Quadrupole moment (field-independent basis, Debye-Ang):
   XX=           -272.5272   YY=           -241.5019   ZZ=           -264.0413
   XY=             16.7125   XZ=              0.1014   YZ=              0.6851

 Normal termination of Gaussian 16 at Sat Jul 13 15:11:33 2019.
