 Gaussian 16, Revision A.03,
 Gaussian 16:  ES64L-G16RevA.03 25-Dec-2016

 -------------------------------------
 # td=(NStates=1) CAM-B3LYP/6-31G(d,p)
 -------------------------------------

 --
 TD
 --
 Symbolic Z-matrix:
 Charge =  0 Multiplicity = 1

                         Standard orientation:
 ---------------------------------------------------------------------
 Center     Atomic      Atomic             Coordinates (Angstroms)
 Number     Number       Type             X           Y           Z
 ---------------------------------------------------------------------
      1          8           0       14.710042   -2.286608   -0.110676
      2          8           0      -14.698587    1.970599    0.825728
      3          6           0       11.173632   -1.419496    0.935851
      4          6           0      -12.296477   -1.095695    0.713095
      5          6           0       12.610555   -1.922323    1.121472
      6          6           0      -13.727976   -0.259400    0.632102
      7          6           0       13.410989   -1.916221   -0.258397
      8          6           0      -13.557800    1.240796    0.946681
      9          6           0       10.993755   -0.262712    0.075147
     10          6           0      -11.252714   -0.242986   -0.060138
     11          6           0       13.278846   -0.624259   -0.929217
     12          6           0      -12.590999    1.853091   -0.125283
     13          6           0       11.826218    0.152460   -0.842577
     14          6           0      -11.441115    0.971892   -0.534325
     15          6           0       10.529511   -1.099356    2.321277
     16          6           0       10.310182   -2.614385    0.443599
     17          6           0      -11.905310   -1.261238    2.136202
     18          6           0      -12.575176   -2.410191   -0.022656
     19          6           0        9.670794    0.425228    0.083600
     20          6           0      -10.015207   -1.009450   -0.376732
     21          6           0       11.853579    1.301604   -1.788621
     22          6           0      -10.405813    1.804263   -1.413030
     23          6           0        9.329242    1.735059    0.053250
     24          6           0       -8.782132   -0.623297   -0.255372
     25          6           0        8.032749    2.282120    0.274275
     26          6           0       -7.568260   -1.307918   -0.609474
     27          6           0        7.800106    3.796041    0.550848
     28          6           0       -7.640192   -2.788550   -0.822552
     29          6           0        6.896481    1.484829    0.161148
     30          6           0       -6.378202   -0.575488   -0.471979
     31          6           0        5.573664    1.970121    0.256402
     32          6           0       -5.011305   -1.057938   -0.528530
     33          6           0        4.427750    1.279499   -0.126532
     34          6           0       -3.973039   -0.241971   -0.341128
     35          6           0        3.108854    1.697776   -0.015519
     36          6           0       -2.656273   -0.674472   -0.639275
     37          6           0        2.890035    3.039126    0.713405
     38          6           0       -2.415615   -2.148473   -1.098614
     39          6           0        2.071220    0.863882   -0.403721
     40          6           0       -1.561016    0.185146   -0.443861
     41          6           0        0.702655    0.971739   -0.227118
     42          6           0       -0.219273    0.000298   -0.516304
     43          1           0       13.157745   -1.086320    1.810321
     44          1           0       12.496897   -2.903413    1.550045
     45          1           0      -14.554905   -0.428582    1.125457
     46          1           0      -14.177835   -0.226741   -0.303191
     47          1           0       12.810225   -2.688592   -0.815268
     48          1           0      -12.981825    1.234894    1.870160
     49          1           0       14.053753   -0.020551   -0.534685
     50          1           0       13.542882   -0.724539   -1.944400
     51          1           0      -13.240771    1.892241   -0.947675
     52          1           0      -12.251014    2.792890    0.103810
     53          1           0       10.705139   -1.966355    3.161843
     54          1           0        9.576510   -0.924456    2.489429
     55          1           0       11.340693   -0.374013    2.891232
     56          1           0       10.502702   -2.992426   -0.583367
     57          1           0       10.530465   -3.445262    1.165696
     58          1           0        9.395942   -2.234020    0.492314
     59          1           0      -11.782634   -0.393701    2.688452
     60          1           0      -10.661047   -1.529343    1.863582
     61          1           0      -12.226368   -2.192961    2.788868
     62          1           0      -13.504545   -2.797126    0.365733
     63          1           0      -11.937249   -3.259166    0.126160
     64          1           0      -13.070476   -2.318934   -1.172737
     65          1           0        8.910716   -0.348939    0.329403
     66          1           0      -10.033040   -2.025072   -0.585759
     67          1           0       10.881180    1.510334   -1.982549
     68          1           0       12.281116    2.014159   -1.367525
     69          1           0       12.413069    0.813385   -2.607047
     70          1           0      -10.943414    2.206713   -2.240633
     71          1           0       -9.839044    0.948172   -2.076481
     72          1           0       -9.956355    2.682137   -0.755425
     73          1           0       14.772868   -3.249934    0.128217
     74          1           0      -15.277169    1.457982    1.459045
     75          1           0       10.015076    2.468339    0.010656
     76          1           0       -8.640290    0.337643    0.072678
     77          1           0        8.783932    4.184773    0.483605
     78          1           0        7.220158    4.191640   -0.166319
     79          1           0        7.387663    4.252827    1.480887
     80          1           0       -7.825205   -3.197115    0.247033
     81          1           0       -8.417931   -2.921087   -1.609380
     82          1           0       -6.811113   -3.238947   -1.165438
     83          1           0        6.948120    0.502394   -0.338086
     84          1           0       -6.563758    0.618155   -0.390002
     85          1           0        5.438283    2.974429    0.541087
     86          1           0       -4.986531   -2.104924   -0.879172
     87          1           0        4.740816    0.351604   -0.587253
     88          1           0       -4.132736    0.794375    0.026811
     89          1           0        3.424601    2.993850    1.669036
     90          1           0        1.801416    3.107122    0.944219
     91          1           0        3.250000    3.977207   -0.057702
     92          1           0       -2.415564   -2.753840   -0.090132
     93          1           0       -3.194366   -2.509854   -1.895160
     94          1           0       -1.189122   -2.114031   -1.832163
     95          1           0        2.448477    0.000681   -0.779701
     96          1           0       -1.809544    1.098049   -0.196733
     97          1           0        0.280568    2.023638   -0.071103
     98          1           0        0.119662   -0.926227   -1.035491
 ---------------------------------------------------------------------

 SCF Done:  E(RCAM-B3LYP) =  -1706.88943077     A.U. after   15 cycles

 Excitation energies and oscillator strengths:

 Excited State   1:      Singlet-A      2.1697 eV  571.43 nm  f=3.7052  <S**2>=0.000
     155 ->158        -0.14900
     156 ->157         0.69233
 This state for optimization and/or second-order correction.
 Total Energy, E(TD-HF/TD-DFT) =  -1706.80969461
 Copying the excited state density for this state as the 1-particle RhoCI density.

 The electronic state is 1-A.
 Alpha  occ. eigenvalues --  -19.22790 -19.21845 -10.30187 -10.29992 -10.29381
 Alpha  occ. eigenvalues --  -10.29162 -10.27583 -10.27393 -10.27166 -10.27022
 Alpha  occ. eigenvalues --  -10.27002 -10.26964 -10.26931 -10.26720 -10.26492
 Alpha  occ. eigenvalues --  -10.26471 -10.26452 -10.26316 -10.26276 -10.26176
 Alpha  occ. eigenvalues --  -10.26063 -10.25820 -10.25734 -10.25628 -10.25594
 Alpha  occ. eigenvalues --  -10.25503 -10.25502 -10.25327 -10.25272 -10.25255
 Alpha  occ. eigenvalues --  -10.25139 -10.25036 -10.24892 -10.24745 -10.24262
 Alpha  occ. eigenvalues --  -10.24059 -10.23935 -10.23924 -10.23639 -10.23029
 Alpha  occ. eigenvalues --  -10.22990 -10.22803  -1.12275  -1.11162  -0.94204
 Alpha  occ. eigenvalues --   -0.93129  -0.92177  -0.91459  -0.90578  -0.89912
 Alpha  occ. eigenvalues --   -0.87900  -0.87519  -0.86335  -0.85346  -0.84502
 Alpha  occ. eigenvalues --   -0.83362  -0.81809  -0.80806  -0.80110  -0.78155
 Alpha  occ. eigenvalues --   -0.78039  -0.76318  -0.76308  -0.75949  -0.75574
 Alpha  occ. eigenvalues --   -0.75441  -0.75390  -0.74672  -0.73374  -0.70920
 Alpha  occ. eigenvalues --   -0.69368  -0.67092  -0.65896  -0.65604  -0.64908
 Alpha  occ. eigenvalues --   -0.64487  -0.63045  -0.61812  -0.60428  -0.59972
 Alpha  occ. eigenvalues --   -0.59783  -0.59416  -0.59211  -0.58029  -0.56652
 Alpha  occ. eigenvalues --   -0.56117  -0.55374  -0.55333  -0.54280  -0.53775
 Alpha  occ. eigenvalues --   -0.52960  -0.52638  -0.52088  -0.51840  -0.51697
 Alpha  occ. eigenvalues --   -0.50470  -0.50450  -0.50279  -0.49934  -0.49782
 Alpha  occ. eigenvalues --   -0.49332  -0.48786  -0.48675  -0.48344  -0.48224
 Alpha  occ. eigenvalues --   -0.48009  -0.47694  -0.47406  -0.47315  -0.46383
 Alpha  occ. eigenvalues --   -0.46316  -0.45880  -0.45711  -0.45632  -0.44948
 Alpha  occ. eigenvalues --   -0.44508  -0.44503  -0.44312  -0.44015  -0.43120
 Alpha  occ. eigenvalues --   -0.42936  -0.42695  -0.42404  -0.42319  -0.42223
 Alpha  occ. eigenvalues --   -0.41967  -0.41722  -0.41333  -0.40743  -0.40321
 Alpha  occ. eigenvalues --   -0.40149  -0.39861  -0.39617  -0.39397  -0.38917
 Alpha  occ. eigenvalues --   -0.38795  -0.38585  -0.38557  -0.38186  -0.38018
 Alpha  occ. eigenvalues --   -0.37191  -0.37025  -0.36691  -0.36141  -0.35314
 Alpha  occ. eigenvalues --   -0.35211  -0.34723  -0.33758  -0.32394  -0.31731
 Alpha  occ. eigenvalues --   -0.30864  -0.30127  -0.28886  -0.26533  -0.23439
 Alpha  occ. eigenvalues --   -0.19030
 Alpha virt. eigenvalues --   -0.05772  -0.00647   0.03037   0.06885   0.08670
 Alpha virt. eigenvalues --    0.09504   0.10402   0.11463   0.11666   0.12425
 Alpha virt. eigenvalues --    0.12526   0.12879   0.13329   0.13387   0.14130

 Mulliken charges:
               1
     1  O   -0.545466
     2  O   -0.525672
     3  C   -0.066299
     4  C    0.015822
     5  C   -0.182331
     6  C   -0.188754
     7  C    0.182002
     8  C    0.126898
     9  C    0.147819
    10  C    0.071077
    11  C   -0.231283
    12  C   -0.210421
    13  C   -0.017626
    14  C    0.022436
    15  C   -0.291547
    16  C   -0.280273
    17  C   -0.289063
    18  C   -0.312053
    19  C   -0.133823
    20  C   -0.154368
    21  C   -0.316006
    22  C   -0.358190
    23  C   -0.079969
    24  C   -0.044233
    25  C    0.055115
    26  C    0.074727
    27  C   -0.373296
    28  C   -0.361016
    29  C   -0.119531
    30  C   -0.139923
    31  C   -0.081682
    32  C   -0.088215
    33  C   -0.119381
    34  C   -0.087538
    35  C    0.103051
    36  C    0.081979
    37  C   -0.358106
    38  C   -0.329482
    39  C   -0.104126
    40  C   -0.098689
    41  C   -0.102410
    42  C   -0.061202
    43  H    0.072095
    44  H    0.081223
    45  H    0.059223
    46  H    0.095608
    47  H    0.054782
    48  H    0.066758
    49  H    0.118790
    50  H    0.102690
    51  H    0.120970
    52  H    0.105861
    53  H    0.065125
    54  H    0.124716
    55  H    0.082078
    56  H    0.097653
    57  H    0.096036
    58  H    0.105564
    59  H    0.125866
    60  H    0.058035
    61  H    0.100811
    62  H    0.108760
    63  H    0.109845
    64  H    0.085226
    65  H    0.080476
    66  H    0.072720
    67  H    0.119005
    68  H    0.136345
    69  H    0.105048
    70  H    0.119711
    71  H    0.108672
    72  H    0.113783
    73  H    0.314492
    74  H    0.305730
    75  H    0.071666
    76  H    0.071905
    77  H    0.103299
    78  H    0.140210
    79  H    0.121747
    80  H    0.123376
    81  H    0.120761
    82  H    0.114334
    83  H    0.078366
    84  H    0.069772
    85  H    0.075799
    86  H    0.086092
    87  H    0.071034
    88  H    0.094321
    89  H    0.130326
    90  H    0.105692
    91  H    0.092378
    92  H    0.129693
    93  H    0.116025
    94  H    0.051727
    95  H    0.072293
    96  H    0.057475
    97  H    0.084231
    98  H    0.074824
 Sum of Mulliken charges =  -0.00000

 Dipole moment (field-independent basis, Debye):
    X=             -0.7311    Y=             -2.0230    Z=              0.6540  Tot=              2.2483
 Quadrupole moment (field-independent basis, Debye-Ang):
   XX=           -252.5204   YY=           -241.5389   ZZ=           -260.9868
   XY=              9.4699   XZ=            -12.4122   YZ=              2.3171

 Normal termination of Gaussian 16 at Tue Jul 16 19:08:36 2019.
