 Gaussian 16, Revision A.03,
 Gaussian 16:  ES64L-G16RevA.03 25-Dec-2016

 -------------------------------------
 # td=(NStates=1) CAM-B3LYP/6-31G(d,p)
 -------------------------------------

 --
 TD
 --
 Symbolic Z-matrix:
 Charge =  0 Multiplicity = 1

                         Standard orientation:
 ---------------------------------------------------------------------
 Center     Atomic      Atomic             Coordinates (Angstroms)
 Number     Number       Type             X           Y           Z
 ---------------------------------------------------------------------
      1          8           0       14.679714   -2.282689   -0.108057
      2          8           0      -14.560298    2.064649    1.236480
      3          6           0       11.099957   -1.444622    1.077322
      4          6           0      -12.289496   -0.949812    0.751722
      5          6           0       12.646728   -1.962441    1.139922
      6          6           0      -13.651399   -0.136729    0.888061
      7          6           0       13.323039   -1.898014   -0.236449
      8          6           0      -13.433862    1.300263    1.178088
      9          6           0       10.966881   -0.225021    0.078734
     10          6           0      -11.218598   -0.234515   -0.044375
     11          6           0       13.361287   -0.468698   -0.652826
     12          6           0      -12.662887    1.813563   -0.201863
     13          6           0       11.988201    0.180040   -0.789386
     14          6           0      -11.494989    1.015612   -0.558427
     15          6           0       10.769185   -1.085587    2.463578
     16          6           0       10.296356   -2.637406    0.632807
     17          6           0      -11.817427   -1.272834    2.212291
     18          6           0      -12.744123   -2.310426    0.138299
     19          6           0        9.587134    0.369880    0.166866
     20          6           0       -9.981904   -1.106431   -0.320615
     21          6           0       11.742945    1.240466   -1.740932
     22          6           0      -10.532019    1.758382   -1.442582
     23          6           0        9.374734    1.697333   -0.023839
     24          6           0       -8.764368   -0.619301   -0.324819
     25          6           0        8.041065    2.281324    0.205067
     26          6           0       -7.583862   -1.348219   -0.664170
     27          6           0        7.979292    3.702311    0.585655
     28          6           0       -7.668839   -2.781545   -1.076286
     29          6           0        6.824089    1.588460   -0.057170
     30          6           0       -6.395651   -0.677210   -0.539399
     31          6           0        5.567466    2.191451    0.113744
     32          6           0       -5.102461   -1.104085   -1.013003
     33          6           0        4.469611    1.384163   -0.130998
     34          6           0       -3.962911   -0.418805   -0.608372
     35          6           0        3.074784    1.755229    0.067757
     36          6           0       -2.670768   -0.802280   -0.838744
     37          6           0        2.715005    3.113466    0.410699
     38          6           0       -2.385054   -2.279706   -1.281254
     39          6           0        2.098489    0.812919   -0.125821
     40          6           0       -1.538874    0.078399   -0.590890
     41          6           0        0.673635    0.932188   -0.359287
     42          6           0       -0.200564   -0.097192   -0.557231
     43          1           0       13.388511   -1.375495    2.011916
     44          1           0       12.678638   -2.866493    1.616799
     45          1           0      -14.414001   -0.574881    1.572737
     46          1           0      -14.156352   -0.177939   -0.010166
     47          1           0       12.781049   -2.471375   -0.816560
     48          1           0      -12.817285    1.529011    2.049878
     49          1           0       14.009042    0.081461   -0.291237
     50          1           0       13.854497   -0.487312   -1.730081
     51          1           0      -13.550988    1.678305   -0.852159
     52          1           0      -12.449126    2.923441   -0.217515
     53          1           0       11.113079   -2.011705    3.030371
     54          1           0        9.679073   -0.751821    2.622920
     55          1           0       11.225977   -0.162815    2.538836
     56          1           0       10.450030   -3.271686   -0.268527
     57          1           0       10.397004   -3.429037    1.349387
     58          1           0        9.150476   -2.429400    0.573881
     59          1           0      -11.601577   -0.310268    2.835077
     60          1           0      -10.880548   -1.727167    2.272212
     61          1           0      -12.564750   -1.863283    2.833037
     62          1           0      -13.463949   -2.862770    0.605918
     63          1           0      -11.755495   -2.790190    0.174759
     64          1           0      -13.228785   -2.135080   -0.905205
     65          1           0        8.761315   -0.244366    0.624277
     66          1           0      -10.129787   -2.054604   -0.624942
     67          1           0       10.721084    1.303927   -2.053716
     68          1           0       11.988595    2.265672   -1.254988
     69          1           0       12.441957    0.990870   -2.574960
     70          1           0      -10.955941    2.241952   -2.364473
     71          1           0       -9.579365    1.081539   -1.998122
     72          1           0       -9.897997    2.373846   -0.987896
     73          1           0       14.537369   -3.265465    0.220267
     74          1           0      -15.057067    1.370759    2.135090
     75          1           0       10.244685    2.530124    0.077613
     76          1           0       -8.604355    0.446505   -0.248166
     77          1           0        8.895243    4.252379    0.766741
     78          1           0        7.640522    4.199063   -0.503414
     79          1           0        6.926512    3.890085    1.285393
     80          1           0       -8.072657   -3.431490   -0.181967
     81          1           0       -8.264449   -2.770275   -1.847206
     82          1           0       -6.740656   -3.264866   -1.487637
     83          1           0        6.920468    0.528782   -0.397942
     84          1           0       -6.440595    0.295818   -0.453803
     85          1           0        5.343666    3.168950    0.479744
     86          1           0       -4.986937   -2.114303   -1.173671
     87          1           0        4.597204    0.335216   -0.302303
     88          1           0       -4.080301    0.771413   -0.542634
     89          1           0        3.883416    3.540884    0.868192
     90          1           0        1.520868    3.002710    1.124755
     91          1           0        2.454808    4.025496   -0.797994
     92          1           0       -2.809026   -2.980282   -0.586754
     93          1           0       -2.778299   -2.539701   -2.168406
     94          1           0       -1.266420   -2.500344   -1.307229
     95          1           0        2.444710   -0.273538   -0.209194
     96          1           0       -1.991814    1.070843   -0.401206
     97          1           0        0.286266    1.957442   -0.099233
     98          1           0        0.248163   -1.101641   -0.629130
 ---------------------------------------------------------------------

 SCF Done:  E(RCAM-B3LYP) =  -1706.78602009     A.U. after   15 cycles

 Excitation energies and oscillator strengths:

 Excited State   1:      Singlet-A      2.0349 eV  609.30 nm  f=3.4825  <S**2>=0.000
     155 ->158         0.15041
     156 ->157         0.69102
 This state for optimization and/or second-order correction.
 Total Energy, E(TD-HF/TD-DFT) =  -1706.71123965
 Copying the excited state density for this state as the 1-particle RhoCI density.

 The electronic state is 1-A.
 Alpha  occ. eigenvalues --  -19.23345 -19.22164 -10.32510 -10.29878 -10.29411
 Alpha  occ. eigenvalues --  -10.28395 -10.28019 -10.27852 -10.27833 -10.27743
 Alpha  occ. eigenvalues --  -10.27693 -10.27368 -10.27244 -10.27232 -10.27178
 Alpha  occ. eigenvalues --  -10.27066 -10.26986 -10.26852 -10.26826 -10.26750
 Alpha  occ. eigenvalues --  -10.26719 -10.26697 -10.26674 -10.26612 -10.26344
 Alpha  occ. eigenvalues --  -10.26174 -10.26002 -10.25884 -10.25599 -10.25542
 Alpha  occ. eigenvalues --  -10.25502 -10.25341 -10.25244 -10.25240 -10.25137
 Alpha  occ. eigenvalues --  -10.24998 -10.24865 -10.24668 -10.24613 -10.24600
 Alpha  occ. eigenvalues --  -10.24502 -10.24379  -1.09319  -1.09218  -0.93305
 Alpha  occ. eigenvalues --   -0.93200  -0.92308  -0.91897  -0.90965  -0.90003
 Alpha  occ. eigenvalues --   -0.88272  -0.87946  -0.86510  -0.85734  -0.84743
 Alpha  occ. eigenvalues --   -0.83342  -0.81926  -0.80670  -0.80011  -0.77983
 Alpha  occ. eigenvalues --   -0.77452  -0.76964  -0.76283  -0.76066  -0.75578
 Alpha  occ. eigenvalues --   -0.75177  -0.74862  -0.73861  -0.73440  -0.70736
 Alpha  occ. eigenvalues --   -0.68583  -0.67442  -0.66182  -0.65197  -0.64280
 Alpha  occ. eigenvalues --   -0.63773  -0.63115  -0.62078  -0.61278  -0.60125
 Alpha  occ. eigenvalues --   -0.59808  -0.59518  -0.58816  -0.56980  -0.56125
 Alpha  occ. eigenvalues --   -0.55381  -0.55082  -0.54717  -0.54247  -0.53177
 Alpha  occ. eigenvalues --   -0.53073  -0.52853  -0.52075  -0.51566  -0.51389
 Alpha  occ. eigenvalues --   -0.50947  -0.50350  -0.50079  -0.49665  -0.49357
 Alpha  occ. eigenvalues --   -0.49238  -0.48667  -0.48583  -0.48360  -0.47938
 Alpha  occ. eigenvalues --   -0.47525  -0.47338  -0.46857  -0.46524  -0.46189
 Alpha  occ. eigenvalues --   -0.46132  -0.45932  -0.45779  -0.45273  -0.45174
 Alpha  occ. eigenvalues --   -0.44778  -0.44741  -0.44520  -0.44230  -0.43886
 Alpha  occ. eigenvalues --   -0.43263  -0.42940  -0.42715  -0.42265  -0.41899
 Alpha  occ. eigenvalues --   -0.41848  -0.41656  -0.41596  -0.41275  -0.40337
 Alpha  occ. eigenvalues --   -0.40112  -0.39912  -0.39518  -0.39217  -0.38941
 Alpha  occ. eigenvalues --   -0.38880  -0.38630  -0.38542  -0.38411  -0.38222
 Alpha  occ. eigenvalues --   -0.37808  -0.37046  -0.36880  -0.36470  -0.36273
 Alpha  occ. eigenvalues --   -0.35654  -0.34404  -0.33730  -0.31959  -0.31912
 Alpha  occ. eigenvalues --   -0.31673  -0.29525  -0.27984  -0.26406  -0.23304
 Alpha  occ. eigenvalues --   -0.19361
 Alpha virt. eigenvalues --   -0.06730  -0.01630   0.01825   0.04759   0.05376
 Alpha virt. eigenvalues --    0.06136   0.07030   0.08320   0.09144   0.10626
 Alpha virt. eigenvalues --    0.10841   0.12106   0.12386   0.12707   0.12879

 Mulliken charges:
               1
     1  O   -0.556473
     2  O   -0.523620
     3  C   -0.026553
     4  C   -0.038483
     5  C   -0.202788
     6  C   -0.186070
     7  C    0.188917
     8  C    0.173382
     9  C    0.048952
    10  C    0.049848
    11  C   -0.182956
    12  C   -0.269130
    13  C    0.039692
    14  C    0.101909
    15  C   -0.270398
    16  C   -0.300239
    17  C   -0.304216
    18  C   -0.290645
    19  C   -0.121596
    20  C   -0.131867
    21  C   -0.359338
    22  C   -0.375776
    23  C   -0.111270
    24  C   -0.070608
    25  C    0.082674
    26  C    0.098405
    27  C   -0.363851
    28  C   -0.368152
    29  C   -0.119710
    30  C   -0.105094
    31  C   -0.075423
    32  C   -0.106789
    33  C   -0.095937
    34  C   -0.115830
    35  C    0.142821
    36  C    0.102262
    37  C   -0.287580
    38  C   -0.378984
    39  C   -0.144150
    40  C   -0.121317
    41  C   -0.078698
    42  C   -0.059931
    43  H    0.059094
    44  H    0.081918
    45  H    0.063100
    46  H    0.106259
    47  H    0.093883
    48  H    0.078108
    49  H    0.127043
    50  H    0.073742
    51  H    0.123459
    52  H    0.106023
    53  H    0.095693
    54  H    0.084997
    55  H    0.121555
    56  H    0.100730
    57  H    0.098936
    58  H    0.085406
    59  H    0.086727
    60  H    0.112316
    61  H    0.091790
    62  H    0.112591
    63  H    0.095984
    64  H    0.088533
    65  H    0.108122
    66  H    0.096849
    67  H    0.137856
    68  H    0.104471
    69  H    0.098200
    70  H    0.110706
    71  H    0.067290
    72  H    0.140376
    73  H    0.302477
    74  H    0.275500
    75  H    0.089491
    76  H    0.083600
    77  H    0.118973
    78  H    0.104463
    79  H    0.100780
    80  H    0.109522
    81  H    0.139348
    82  H    0.105386
    83  H    0.088050
    84  H    0.070527
    85  H    0.085047
    86  H    0.080666
    87  H    0.081710
    88  H    0.070797
    89  H    0.072222
    90  H    0.085024
    91  H    0.033951
    92  H    0.122211
    93  H    0.133358
    94  H    0.097103
    95  H    0.066665
    96  H    0.075048
    97  H    0.079289
    98  H    0.091646
 Sum of Mulliken charges =  -0.00000

 Dipole moment (field-independent basis, Debye):
    X=              0.2758    Y=             -2.9588    Z=              0.7815  Tot=              3.0727
 Quadrupole moment (field-independent basis, Debye-Ang):
   XX=           -274.4975   YY=           -245.8990   ZZ=           -264.2516
   XY=             13.8567   XZ=             -3.6293   YZ=              0.1423

 Normal termination of Gaussian 16 at Fri Jul 12 09:48:38 2019.
