 Gaussian 16, Revision A.03,
 Gaussian 16:  ES64L-G16RevA.03 25-Dec-2016

 -------------------------------------
 # td=(NStates=1) CAM-B3LYP/6-31G(d,p)
 -------------------------------------

 --
 TD
 --
 Symbolic Z-matrix:
 Charge =  0 Multiplicity = 1

                         Standard orientation:
 ---------------------------------------------------------------------
 Center     Atomic      Atomic             Coordinates (Angstroms)
 Number     Number       Type             X           Y           Z
 ---------------------------------------------------------------------
      1          8           0       14.659905   -2.278018   -0.022130
      2          8           0      -14.697634    1.928616    1.058515
      3          6           0       11.045872   -1.489398    0.917487
      4          6           0      -12.339538   -1.133477    0.685544
      5          6           0       12.519242   -1.961451    1.089708
      6          6           0      -13.613357   -0.309037    0.863551
      7          6           0       13.299901   -1.966541   -0.205609
      8          6           0      -13.488699    1.252306    0.890093
      9          6           0       10.949721   -0.273284   -0.064117
     10          6           0      -11.374419   -0.323951   -0.131025
     11          6           0       13.243474   -0.649124   -0.969851
     12          6           0      -12.829955    1.768209   -0.356219
     13          6           0       11.930871    0.049914   -0.920619
     14          6           0      -11.524158    0.945910   -0.625539
     15          6           0       10.520833   -1.181298    2.266479
     16          6           0       10.338224   -2.754489    0.375380
     17          6           0      -11.753900   -1.298019    2.146386
     18          6           0      -12.677522   -2.518303    0.077986
     19          6           0        9.594366    0.367010    0.004738
     20          6           0      -10.062237   -1.075704   -0.409432
     21          6           0       11.773069    1.222190   -1.849107
     22          6           0      -10.574503    1.702847   -1.561246
     23          6           0        9.377562    1.603764    0.116731
     24          6           0       -8.767538   -0.447732   -0.286084
     25          6           0        8.165271    2.264612    0.207413
     26          6           0       -7.517892   -1.235265   -0.679477
     27          6           0        8.129006    3.766121    0.601578
     28          6           0       -7.673650   -2.588780   -1.081963
     29          6           0        6.959918    1.568921    0.106501
     30          6           0       -6.396596   -0.556941   -0.463632
     31          6           0        5.622373    2.148198    0.294746
     32          6           0       -5.107200   -0.961437   -0.671214
     33          6           0        4.477271    1.402895    0.072933
     34          6           0       -3.909231   -0.303792   -0.577968
     35          6           0        3.188115    1.800340    0.098584
     36          6           0       -2.590393   -0.691022   -0.615225
     37          6           0        2.831785    3.182873    0.545651
     38          6           0       -2.249882   -2.056776   -0.997678
     39          6           0        2.114283    0.841303   -0.033967
     40          6           0       -1.587846    0.213512   -0.383363
     41          6           0        0.700656    1.031298   -0.059550
     42          6           0       -0.135147    0.076491   -0.450514
     43          1           0       12.986457   -1.170175    1.749939
     44          1           0       12.871234   -2.901321    1.574866
     45          1           0      -14.310544   -0.596737    1.886211
     46          1           0      -14.391517   -0.325252    0.031932
     47          1           0       12.958575   -2.755400   -0.884314
     48          1           0      -12.797132    1.448513    1.912756
     49          1           0       13.947014   -0.005299   -0.549579
     50          1           0       13.544561   -0.642847   -2.023733
     51          1           0      -13.371219    1.778408   -1.343797
     52          1           0      -12.530225    2.850827   -0.245008
     53          1           0       10.802495   -2.038455    3.089553
     54          1           0        9.437828   -1.106275    2.208467
     55          1           0       10.850058   -0.143672    2.733386
     56          1           0       10.727560   -2.874614   -0.680604
     57          1           0       10.673589   -3.817722    0.871628
     58          1           0        9.115637   -2.617797    0.266738
     59          1           0      -11.521510   -0.369043    2.602706
     60          1           0      -10.787712   -1.778364    2.037361
     61          1           0      -12.325498   -1.869714    2.790098
     62          1           0      -13.209630   -3.128339    0.908820
     63          1           0      -11.671396   -2.977643   -0.154554
     64          1           0      -13.416634   -2.485002   -0.996632
     65          1           0        8.764700   -0.356534    0.281456
     66          1           0      -10.107815   -2.163661   -0.532181
     67          1           0       10.614641    1.539476   -1.880417
     68          1           0       12.343997    2.175430   -1.542867
     69          1           0       12.059634    1.093430   -2.840377
     70          1           0      -11.144860    2.330245   -2.220251
     71          1           0      -10.188129    0.969386   -2.350721
     72          1           0       -9.860484    2.138069   -0.977071
     73          1           0       14.774342   -2.978573    0.713131
     74          1           0      -15.211193    1.509841    1.792050
     75          1           0       10.182446    2.289272    0.225086
     76          1           0       -8.687960    0.472782    0.129512
     77          1           0        9.236656    4.104155    0.999152
     78          1           0        7.735566    4.393280   -0.255125
     79          1           0        7.581322    4.031512    1.386202
     80          1           0       -8.324811   -2.971272   -0.158239
     81          1           0       -8.283957   -2.583990   -2.018863
     82          1           0       -6.741321   -3.144424   -1.013948
     83          1           0        6.803803    0.595148   -0.266716
     84          1           0       -6.497915    0.514516   -0.187168
     85          1           0        5.616533    3.097439    0.523210
     86          1           0       -4.982143   -1.934432   -0.988898
     87          1           0        4.614847    0.278917   -0.057294
     88          1           0       -3.981596    0.749201   -0.368490
     89          1           0        3.143982    3.335703    1.651622
     90          1           0        1.781092    3.547351    0.425928
     91          1           0        3.362736    4.060926    0.019155
     92          1           0       -3.071120   -3.009948   -0.693198
     93          1           0       -2.316420   -2.151999   -2.159244
     94          1           0       -1.136927   -2.378821   -0.599362
     95          1           0        2.416238   -0.116131   -0.445208
     96          1           0       -1.946792    1.269326   -0.052394
     97          1           0        0.180115    1.919377    0.232369
     98          1           0        0.341726   -0.901217   -0.656693
 ---------------------------------------------------------------------

 SCF Done:  E(RCAM-B3LYP) =  -1707.01379144     A.U. after   15 cycles

 Excitation energies and oscillator strengths:

 Excited State   1:      Singlet-A      2.2704 eV  546.09 nm  f=3.7624  <S**2>=0.000
     155 ->158        -0.16063
     156 ->157         0.68729
 This state for optimization and/or second-order correction.
 Total Energy, E(TD-HF/TD-DFT) =  -1706.93035651
 Copying the excited state density for this state as the 1-particle RhoCI density.

 The electronic state is 1-A.
 Alpha  occ. eigenvalues --  -19.21570 -19.20893 -10.31730 -10.29782 -10.28598
 Alpha  occ. eigenvalues --  -10.28252 -10.28005 -10.27835 -10.27668 -10.27306
 Alpha  occ. eigenvalues --  -10.27223 -10.27203 -10.27147 -10.27047 -10.27031
 Alpha  occ. eigenvalues --  -10.27023 -10.26896 -10.26828 -10.26660 -10.26601
 Alpha  occ. eigenvalues --  -10.26598 -10.26590 -10.26573 -10.26511 -10.26434
 Alpha  occ. eigenvalues --  -10.26284 -10.26135 -10.26100 -10.26053 -10.25910
 Alpha  occ. eigenvalues --  -10.25708 -10.25699 -10.25539 -10.25415 -10.25335
 Alpha  occ. eigenvalues --  -10.25261 -10.25109 -10.24987 -10.24778 -10.24376
 Alpha  occ. eigenvalues --  -10.24066 -10.23767  -1.09845  -1.08618  -0.93820
 Alpha  occ. eigenvalues --   -0.93177  -0.92710  -0.92103  -0.91375  -0.90717
 Alpha  occ. eigenvalues --   -0.88203  -0.87330  -0.86577  -0.85400  -0.84596
 Alpha  occ. eigenvalues --   -0.82831  -0.82172  -0.80183  -0.79371  -0.77818
 Alpha  occ. eigenvalues --   -0.76669  -0.76100  -0.76055  -0.75951  -0.75553
 Alpha  occ. eigenvalues --   -0.75406  -0.74728  -0.74417  -0.73455  -0.71199
 Alpha  occ. eigenvalues --   -0.69369  -0.67515  -0.66243  -0.65434  -0.64426
 Alpha  occ. eigenvalues --   -0.63498  -0.63267  -0.62238  -0.61474  -0.60127
 Alpha  occ. eigenvalues --   -0.59915  -0.58204  -0.57677  -0.56952  -0.56414
 Alpha  occ. eigenvalues --   -0.56102  -0.55328  -0.54871  -0.54374  -0.53978
 Alpha  occ. eigenvalues --   -0.52875  -0.52314  -0.51645  -0.51475  -0.51152
 Alpha  occ. eigenvalues --   -0.50914  -0.50561  -0.49914  -0.49621  -0.49210
 Alpha  occ. eigenvalues --   -0.49134  -0.48569  -0.48306  -0.48048  -0.47770
 Alpha  occ. eigenvalues --   -0.47587  -0.47376  -0.47126  -0.46771  -0.46637
 Alpha  occ. eigenvalues --   -0.46203  -0.45997  -0.45609  -0.45226  -0.44811
 Alpha  occ. eigenvalues --   -0.44417  -0.44191  -0.43760  -0.43682  -0.42981
 Alpha  occ. eigenvalues --   -0.42348  -0.42187  -0.41981  -0.41794  -0.41715
 Alpha  occ. eigenvalues --   -0.41512  -0.41306  -0.41068  -0.41033  -0.40697
 Alpha  occ. eigenvalues --   -0.40305  -0.40242  -0.40191  -0.40087  -0.39838
 Alpha  occ. eigenvalues --   -0.39635  -0.39474  -0.39177  -0.38492  -0.38204
 Alpha  occ. eigenvalues --   -0.37910  -0.37876  -0.37193  -0.36429  -0.35542
 Alpha  occ. eigenvalues --   -0.35383  -0.34765  -0.33852  -0.32059  -0.31566
 Alpha  occ. eigenvalues --   -0.30890  -0.30289  -0.28396  -0.26683  -0.23452
 Alpha  occ. eigenvalues --   -0.19799
 Alpha virt. eigenvalues --   -0.05851  -0.01320   0.02578   0.05397   0.08236
 Alpha virt. eigenvalues --    0.09375   0.10817   0.11135   0.11387   0.11795
 Alpha virt. eigenvalues --    0.12359   0.12865   0.13024   0.13344   0.13996

 Mulliken charges:
               1
     1  O   -0.578834
     2  O   -0.551552
     3  C   -0.008396
     4  C   -0.008730
     5  C   -0.206001
     6  C   -0.183196
     7  C    0.195339
     8  C    0.192727
     9  C    0.041607
    10  C    0.079328
    11  C   -0.218360
    12  C   -0.211913
    13  C    0.072997
    14  C    0.004018
    15  C   -0.281389
    16  C   -0.280968
    17  C   -0.305097
    18  C   -0.275592
    19  C   -0.135592
    20  C   -0.168956
    21  C   -0.375759
    22  C   -0.350166
    23  C   -0.052388
    24  C   -0.082975
    25  C    0.074428
    26  C    0.121032
    27  C   -0.371361
    28  C   -0.371987
    29  C   -0.120305
    30  C   -0.102565
    31  C   -0.062043
    32  C   -0.083150
    33  C   -0.127617
    34  C   -0.132178
    35  C    0.143264
    36  C    0.193422
    37  C   -0.383376
    38  C   -0.372410
    39  C   -0.160129
    40  C   -0.166806
    41  C   -0.046740
    42  C   -0.074489
    43  H    0.094323
    44  H    0.075331
    45  H    0.034609
    46  H    0.092955
    47  H    0.077618
    48  H    0.035693
    49  H    0.130770
    50  H    0.106110
    51  H    0.118091
    52  H    0.111521
    53  H    0.080029
    54  H    0.101704
    55  H    0.091363
    56  H    0.106985
    57  H    0.088008
    58  H    0.073029
    59  H    0.115122
    60  H    0.100307
    61  H    0.107697
    62  H    0.101398
    63  H    0.097457
    64  H    0.079619
    65  H    0.087462
    66  H    0.085584
    67  H    0.107573
    68  H    0.103946
    69  H    0.114341
    70  H    0.108822
    71  H    0.116394
    72  H    0.133182
    73  H    0.302587
    74  H    0.306526
    75  H    0.085827
    76  H    0.085906
    77  H    0.083864
    78  H    0.122181
    79  H    0.141304
    80  H    0.109922
    81  H    0.135415
    82  H    0.118727
    83  H    0.080089
    84  H    0.070949
    85  H    0.064399
    86  H    0.055586
    87  H    0.078543
    88  H    0.061156
    89  H    0.115900
    90  H    0.112270
    91  H    0.104506
    92  H    0.078731
    93  H    0.121960
    94  H    0.097987
    95  H    0.081176
    96  H    0.076801
    97  H    0.082454
    98  H    0.081047
 Sum of Mulliken charges =  -0.00000

 Dipole moment (field-independent basis, Debye):
    X=             -0.7109    Y=             -0.9773    Z=              1.2551  Tot=              1.7423
 Quadrupole moment (field-independent basis, Debye-Ang):
   XX=           -278.8718   YY=           -246.2824   ZZ=           -259.7203
   XY=             15.4973   XZ=              4.9269   YZ=             -0.6199

 Normal termination of Gaussian 16 at Wed Jul 17 23:54:09 2019.
