 Gaussian 16, Revision A.03,
 Gaussian 16:  ES64L-G16RevA.03 25-Dec-2016

 -------------------------------------
 # td=(NStates=1) CAM-B3LYP/6-31G(d,p)
 -------------------------------------

 --
 TD
 --
 Symbolic Z-matrix:
 Charge =  0 Multiplicity = 1

                         Standard orientation:
 ---------------------------------------------------------------------
 Center     Atomic      Atomic             Coordinates (Angstroms)
 Number     Number       Type             X           Y           Z
 ---------------------------------------------------------------------
      1          8           0       14.602479   -2.356905   -0.645242
      2          8           0      -14.890026    1.850941    0.502103
      3          6           0       11.233207   -1.429999    0.926583
      4          6           0      -12.402553   -0.923988    0.662513
      5          6           0       12.742693   -1.890065    0.838333
      6          6           0      -13.740903   -0.218266    0.570776
      7          6           0       13.237512   -1.980495   -0.602233
      8          6           0      -13.643756    1.211376    0.543770
      9          6           0       10.934568   -0.188371    0.026706
     10          6           0      -11.339960   -0.255015   -0.214872
     11          6           0       13.209026   -0.661015   -1.186806
     12          6           0      -12.792963    1.722873   -0.584553
     13          6           0       11.854122    0.159779   -0.938483
     14          6           0      -11.472637    0.977652   -0.622805
     15          6           0       10.980287   -1.128626    2.434001
     16          6           0       10.329955   -2.563609    0.470606
     17          6           0      -11.958949   -1.030697    2.160516
     18          6           0      -12.642591   -2.389633    0.130691
     19          6           0        9.683280    0.386183    0.235806
     20          6           0      -10.005404   -0.930659   -0.370809
     21          6           0       11.581184    1.320435   -1.949841
     22          6           0      -10.467369    1.682859   -1.605184
     23          6           0        9.331419    1.646087    0.212588
     24          6           0       -8.757042   -0.553912   -0.408252
     25          6           0        8.030350    2.313776    0.391901
     26          6           0       -7.508224   -1.262445   -0.394680
     27          6           0        7.980148    3.817058    0.542886
     28          6           0       -7.662145   -2.665368   -0.865603
     29          6           0        6.931670    1.518776    0.096057
     30          6           0       -6.338025   -0.595302   -0.365749
     31          6           0        5.548806    2.115613    0.271979
     32          6           0       -5.025953   -1.160089   -0.543453
     33          6           0        4.511203    1.304873    0.062665
     34          6           0       -3.892403   -0.388400   -0.233224
     35          6           0        3.224063    1.770205    0.253243
     36          6           0       -2.568012   -0.859497   -0.314438
     37          6           0        2.888597    3.137587    0.593326
     38          6           0       -2.357158   -2.260992   -0.660343
     39          6           0        2.137348    0.755460   -0.031442
     40          6           0       -1.556031    0.129746   -0.008166
     41          6           0        0.733034    0.996352    0.080781
     42          6           0       -0.132644   -0.019708   -0.105350
     43          1           0       13.170910   -1.247188    1.541060
     44          1           0       12.831315   -2.852243    1.444378
     45          1           0      -14.246011   -0.735993    1.422591
     46          1           0      -14.319856   -0.391296   -0.254409
     47          1           0       12.460117   -2.718984   -1.185409
     48          1           0      -13.387497    1.566773    1.518498
     49          1           0       14.072074    0.039185   -1.013110
     50          1           0       13.177298   -0.615624   -2.347975
     51          1           0      -13.431330    1.605352   -1.375734
     52          1           0      -12.492740    2.864188   -0.383603
     53          1           0       11.181115   -1.955742    3.184611
     54          1           0        9.758749   -0.963954    2.536298
     55          1           0       11.679576   -0.223934    2.840195
     56          1           0       10.824776   -2.928975   -0.489076
     57          1           0       10.515227   -3.359548    1.267112
     58          1           0        9.380947   -2.347577    0.262879
     59          1           0      -11.817779   -0.222579    2.682791
     60          1           0      -10.941809   -1.614295    2.228183
     61          1           0      -12.763893   -1.879340    2.627182
     62          1           0      -13.720443   -2.723884    0.437649
     63          1           0      -11.824443   -3.145873    0.491227
     64          1           0      -12.534900   -2.300611   -1.050373
     65          1           0        8.754075   -0.257934    0.410786
     66          1           0      -10.053923   -2.105260   -0.458526
     67          1           0       10.579985    1.384541   -2.161217
     68          1           0       11.809040    2.225864   -1.486962
     69          1           0       12.313923    1.330683   -2.982923
     70          1           0      -10.888684    2.137591   -2.360206
     71          1           0       -9.743524    1.044098   -2.456517
     72          1           0       -9.821251    2.384796   -1.159757
     73          1           0       14.997293   -3.117850    0.073394
     74          1           0      -15.533127    1.749395    1.312708
     75          1           0       10.009575    2.349310    0.250997
     76          1           0       -8.605191    0.415678   -0.009310
     77          1           0        8.857258    4.239612    0.320901
     78          1           0        7.038074    4.335065    0.070521
     79          1           0        7.899209    4.186440    1.557544
     80          1           0       -8.015901   -3.301678    0.002363
     81          1           0       -8.316862   -2.858268   -1.745341
     82          1           0       -6.554990   -3.206512   -1.258905
     83          1           0        6.949870    0.430532    0.068441
     84          1           0       -6.364200    0.551505   -0.234346
     85          1           0        5.562542    3.044488    0.538208
     86          1           0       -4.776282   -2.115813   -0.753276
     87          1           0        4.775704    0.439017    0.017415
     88          1           0       -3.968752    0.587128    0.319561
     89          1           0        3.476221    3.407139    1.428664
     90          1           0        1.773766    3.337914    0.609719
     91          1           0        3.227036    3.903591   -0.163172
     92          1           0       -3.260821   -2.829644   -0.149489
     93          1           0       -2.368281   -2.447841   -1.891443
     94          1           0       -1.310883   -2.631432   -0.242759
     95          1           0        2.448002   -0.250148   -0.147596
     96          1           0       -1.952994    1.195197    0.132383
     97          1           0        0.396870    2.005689    0.532272
     98          1           0        0.369689   -1.026278   -0.220653
 ---------------------------------------------------------------------

 SCF Done:  E(RCAM-B3LYP) =  -1706.85664059     A.U. after   15 cycles

 Excitation energies and oscillator strengths:

 Excited State   1:      Singlet-A      2.2456 eV  552.13 nm  f=3.5588  <S**2>=0.000
     155 ->158        -0.14676
     156 ->157         0.69168
 This state for optimization and/or second-order correction.
 Total Energy, E(TD-HF/TD-DFT) =  -1706.77411797
 Copying the excited state density for this state as the 1-particle RhoCI density.

 The electronic state is 1-A.
 Alpha  occ. eigenvalues --  -19.21839 -19.20028 -10.31812 -10.28560 -10.28428
 Alpha  occ. eigenvalues --  -10.27891 -10.27860 -10.27657 -10.27587 -10.27502
 Alpha  occ. eigenvalues --  -10.27354 -10.27309 -10.27274 -10.26905 -10.26888
 Alpha  occ. eigenvalues --  -10.26875 -10.26706 -10.26672 -10.26476 -10.26384
 Alpha  occ. eigenvalues --  -10.26283 -10.26175 -10.26116 -10.26093 -10.26034
 Alpha  occ. eigenvalues --  -10.25961 -10.25866 -10.25839 -10.25770 -10.25618
 Alpha  occ. eigenvalues --  -10.25572 -10.25457 -10.25424 -10.25421 -10.25001
 Alpha  occ. eigenvalues --  -10.24815 -10.24552 -10.24101 -10.24073 -10.23954
 Alpha  occ. eigenvalues --  -10.23525 -10.23295  -1.08064  -1.07168  -0.93814
 Alpha  occ. eigenvalues --   -0.93359  -0.92541  -0.91718  -0.90482  -0.90061
 Alpha  occ. eigenvalues --   -0.88007  -0.86555  -0.86104  -0.85338  -0.85015
 Alpha  occ. eigenvalues --   -0.83250  -0.82263  -0.80562  -0.79351  -0.77978
 Alpha  occ. eigenvalues --   -0.77257  -0.76407  -0.76394  -0.75963  -0.75748
 Alpha  occ. eigenvalues --   -0.75054  -0.74537  -0.74253  -0.73265  -0.70707
 Alpha  occ. eigenvalues --   -0.68771  -0.67399  -0.65994  -0.65220  -0.64394
 Alpha  occ. eigenvalues --   -0.63973  -0.63004  -0.62456  -0.61418  -0.60139
 Alpha  occ. eigenvalues --   -0.59282  -0.58774  -0.58096  -0.57374  -0.56461
 Alpha  occ. eigenvalues --   -0.55901  -0.55589  -0.55021  -0.54332  -0.54049
 Alpha  occ. eigenvalues --   -0.52993  -0.52591  -0.51848  -0.51542  -0.51147
 Alpha  occ. eigenvalues --   -0.50974  -0.50498  -0.49590  -0.49339  -0.49090
 Alpha  occ. eigenvalues --   -0.48883  -0.48623  -0.48053  -0.47909  -0.47798
 Alpha  occ. eigenvalues --   -0.47326  -0.47242  -0.46723  -0.46629  -0.46488
 Alpha  occ. eigenvalues --   -0.45940  -0.45670  -0.45530  -0.45216  -0.44973
 Alpha  occ. eigenvalues --   -0.44716  -0.44173  -0.43728  -0.43243  -0.43100
 Alpha  occ. eigenvalues --   -0.42446  -0.42101  -0.42074  -0.41785  -0.41337
 Alpha  occ. eigenvalues --   -0.41268  -0.40969  -0.40947  -0.40769  -0.40456
 Alpha  occ. eigenvalues --   -0.40190  -0.39565  -0.39432  -0.39327  -0.39067
 Alpha  occ. eigenvalues --   -0.38807  -0.38442  -0.38214  -0.38196  -0.37896
 Alpha  occ. eigenvalues --   -0.37453  -0.36882  -0.36782  -0.35606  -0.35346
 Alpha  occ. eigenvalues --   -0.35258  -0.34689  -0.34141  -0.31987  -0.31452
 Alpha  occ. eigenvalues --   -0.30786  -0.30248  -0.28488  -0.26079  -0.23560
 Alpha  occ. eigenvalues --   -0.19297
 Alpha virt. eigenvalues --   -0.05547  -0.00467   0.02694   0.05559   0.08136
 Alpha virt. eigenvalues --    0.08837   0.09294   0.11006   0.11586   0.11731
 Alpha virt. eigenvalues --    0.11914   0.12200   0.12807   0.13137   0.13267

 Mulliken charges:
               1
     1  O   -0.592385
     2  O   -0.604332
     3  C   -0.036339
     4  C   -0.008091
     5  C   -0.197611
     6  C   -0.167632
     7  C    0.229544
     8  C    0.181935
     9  C    0.082117
    10  C    0.101764
    11  C   -0.201876
    12  C   -0.205758
    13  C    0.009333
    14  C    0.005120
    15  C   -0.294779
    16  C   -0.273858
    17  C   -0.276786
    18  C   -0.300069
    19  C   -0.093404
    20  C   -0.122275
    21  C   -0.358184
    22  C   -0.348447
    23  C   -0.090649
    24  C   -0.085004
    25  C    0.075024
    26  C    0.117380
    27  C   -0.380493
    28  C   -0.367430
    29  C   -0.134585
    30  C   -0.120529
    31  C   -0.072801
    32  C   -0.088363
    33  C   -0.022014
    34  C   -0.110131
    35  C    0.092270
    36  C    0.133016
    37  C   -0.381271
    38  C   -0.367074
    39  C   -0.142987
    40  C   -0.146205
    41  C   -0.062450
    42  C   -0.090743
    43  H    0.105623
    44  H    0.068828
    45  H    0.079020
    46  H    0.101537
    47  H    0.070964
    48  H    0.067680
    49  H    0.127024
    50  H    0.101172
    51  H    0.130287
    52  H    0.097147
    53  H    0.097838
    54  H    0.079964
    55  H    0.087848
    56  H    0.086848
    57  H    0.089275
    58  H    0.110201
    59  H    0.118026
    60  H    0.096275
    61  H    0.067564
    62  H    0.090907
    63  H    0.096281
    64  H    0.097847
    65  H    0.072513
    66  H    0.053663
    67  H    0.137379
    68  H    0.130777
    69  H    0.073626
    70  H    0.120772
    71  H    0.075033
    72  H    0.119251
    73  H    0.309872
    74  H    0.309804
    75  H    0.055000
    76  H    0.066639
    77  H    0.122408
    78  H    0.114453
    79  H    0.125569
    80  H    0.114852
    81  H    0.131950
    82  H    0.062642
    83  H    0.085359
    84  H    0.085038
    85  H    0.057622
    86  H    0.076077
    87  H    0.044133
    88  H    0.082734
    89  H    0.129686
    90  H    0.110351
    91  H    0.117563
    92  H    0.111439
    93  H    0.109762
    94  H    0.104718
    95  H    0.080770
    96  H    0.085009
    97  H    0.086781
    98  H    0.085650
 Sum of Mulliken charges =  -0.00000

 Dipole moment (field-independent basis, Debye):
    X=              1.3200    Y=              0.0292    Z=              2.7405  Tot=              3.0420
 Quadrupole moment (field-independent basis, Debye-Ang):
   XX=           -260.0279   YY=           -243.0096   ZZ=           -262.6796
   XY=              7.5218   XZ=              1.0824   YZ=              0.9128

 Normal termination of Gaussian 16 at Tue Jul 16 20:33:53 2019.
