 Gaussian 16, Revision A.03,
 Gaussian 16:  ES64L-G16RevA.03 25-Dec-2016

 -------------------------------------
 # td=(NStates=1) CAM-B3LYP/6-31G(d,p)
 -------------------------------------

 --
 TD
 --
 Symbolic Z-matrix:
 Charge =  0 Multiplicity = 1

                         Standard orientation:
 ---------------------------------------------------------------------
 Center     Atomic      Atomic             Coordinates (Angstroms)
 Number     Number       Type             X           Y           Z
 ---------------------------------------------------------------------
      1          8           0       14.519086   -2.524547   -0.296725
      2          8           0      -14.759805    1.726096    1.094025
      3          6           0       11.205337   -1.551675    0.964319
      4          6           0      -12.434811   -1.099774    0.448099
      5          6           0       12.633124   -1.959255    1.065604
      6          6           0      -13.739571   -0.400807    0.535390
      7          6           0       13.228610   -2.046860   -0.399606
      8          6           0      -13.580581    1.065273    0.931916
      9          6           0       10.868731   -0.423485   -0.030670
     10          6           0      -11.353840   -0.370141   -0.196046
     11          6           0       13.202099   -0.626314   -1.041212
     12          6           0      -12.783563    1.654408   -0.191758
     13          6           0       11.887604    0.042120   -0.850691
     14          6           0      -11.638327    0.941667   -0.515395
     15          6           0       10.789595   -1.094078    2.494129
     16          6           0       10.291240   -2.686418    0.578515
     17          6           0      -11.852730   -1.487114    1.933225
     18          6           0      -12.764646   -2.496499   -0.161402
     19          6           0        9.598007    0.352170    0.168021
     20          6           0       -9.993132   -0.984116   -0.430407
     21          6           0       11.747554    1.140512   -1.845229
     22          6           0      -10.499962    1.837526   -1.284916
     23          6           0        9.428056    1.676408    0.068863
     24          6           0       -8.786746   -0.327479   -0.172947
     25          6           0        8.130459    2.357395    0.157193
     26          6           0       -7.586001   -1.023639   -0.457767
     27          6           0        8.056735    3.761452    0.409399
     28          6           0       -7.692238   -2.428335   -0.915347
     29          6           0        6.996299    1.565116    0.058688
     30          6           0       -6.369451   -0.447777   -0.251211
     31          6           0        5.643035    2.128182    0.250370
     32          6           0       -5.075660   -0.993262   -0.580226
     33          6           0        4.557867    1.339188    0.089473
     34          6           0       -3.992222   -0.146195   -0.438374
     35          6           0        3.284558    1.804359    0.185660
     36          6           0       -2.610701   -0.537264   -0.631615
     37          6           0        2.977208    3.145282    0.694789
     38          6           0       -2.247210   -1.927668   -1.106795
     39          6           0        2.238899    0.812990   -0.139979
     40          6           0       -1.617483    0.283163   -0.249314
     41          6           0        0.853156    1.084849   -0.168949
     42          6           0       -0.113681    0.174532   -0.542690
     43          1           0       13.096935   -1.094179    1.564308
     44          1           0       12.528645   -2.913283    1.600802
     45          1           0      -14.380222   -1.036475    1.193058
     46          1           0      -14.167529   -0.505794   -0.376667
     47          1           0       12.432406   -2.890850   -0.776939
     48          1           0      -12.742055    1.242897    1.634237
     49          1           0       13.684701    0.145390   -0.436707
     50          1           0       13.542633   -0.733566   -2.123818
     51          1           0      -13.510729    1.737397   -0.986861
     52          1           0      -12.390426    2.769290    0.060895
     53          1           0       11.127964   -1.924080    3.127546
     54          1           0        9.504385   -1.068912    2.826172
     55          1           0       11.253815   -0.254361    3.034197
     56          1           0       10.728664   -3.162695   -0.300296
     57          1           0       10.300112   -3.412648    1.448326
     58          1           0        9.307833   -2.331699    0.157753
     59          1           0      -11.752246   -0.418998    2.230744
     60          1           0      -11.082182   -2.128508    1.902561
     61          1           0      -12.644835   -2.163705    2.598045
     62          1           0      -13.556247   -3.026670    0.122003
     63          1           0      -12.009875   -3.281006    0.023452
     64          1           0      -13.324324   -2.084699   -1.172856
     65          1           0        8.728006   -0.423221    0.392339
     66          1           0      -10.078978   -2.071988   -0.645024
     67          1           0       10.800103    1.322242   -1.982872
     68          1           0       12.122313    2.097917   -1.511286
     69          1           0       12.150751    1.135829   -2.808264
     70          1           0      -11.035757    2.495821   -1.968910
     71          1           0       -9.850643    1.297626   -1.747681
     72          1           0       -9.820774    2.443227   -0.707600
     73          1           0       14.629386   -3.265022    0.263399
     74          1           0      -15.203784    1.183506    1.745936
     75          1           0       10.313224    2.416711   -0.102995
     76          1           0       -8.634298    0.738375    0.153778
     77          1           0        9.182464    4.204860    0.611389
     78          1           0        7.569814    4.265374   -0.421505
     79          1           0        7.306982    3.804468    1.113311
     80          1           0       -8.337211   -3.084142   -0.389180
     81          1           0       -8.104084   -2.475715   -2.057269
     82          1           0       -6.708535   -3.036577   -1.033350
     83          1           0        7.068012    0.324527   -0.157344
     84          1           0       -6.426702    0.440397    0.159601
     85          1           0        5.647392    3.301952    0.337848
     86          1           0       -4.827655   -1.859018   -1.149684
     87          1           0        4.453373    0.244220   -0.069344
     88          1           0       -4.107613    0.541166    0.177732
     89          1           0        3.286945    3.427667    1.820396
     90          1           0        2.118989    3.435098    0.536826
     91          1           0        3.558970    3.841003    0.015656
     92          1           0       -2.724768   -2.774825   -0.656066
     93          1           0       -2.630458   -2.081526   -2.012790
     94          1           0       -1.069492   -2.060482   -1.059135
     95          1           0        2.530794    0.012952   -0.723422
     96          1           0       -1.869022    1.239326    0.278952
     97          1           0        0.597193    2.070453    0.180798
     98          1           0        0.029696   -0.878091   -0.899233
 ---------------------------------------------------------------------

 SCF Done:  E(RCAM-B3LYP) =  -1706.83350790     A.U. after   15 cycles

 Excitation energies and oscillator strengths:

 Excited State   1:      Singlet-A      2.3569 eV  526.04 nm  f=3.5214  <S**2>=0.000
     155 ->158         0.16936
     156 ->157         0.68241
 This state for optimization and/or second-order correction.
 Total Energy, E(TD-HF/TD-DFT) =  -1706.74689267
 Copying the excited state density for this state as the 1-particle RhoCI density.

 The electronic state is 1-A.
 Alpha  occ. eigenvalues --  -19.22381 -19.20764 -10.32033 -10.30018 -10.27589
 Alpha  occ. eigenvalues --  -10.27243 -10.27227 -10.27200 -10.27118 -10.26859
 Alpha  occ. eigenvalues --  -10.26855 -10.26854 -10.26830 -10.26818 -10.26615
 Alpha  occ. eigenvalues --  -10.26565 -10.26532 -10.26460 -10.26429 -10.26414
 Alpha  occ. eigenvalues --  -10.26385 -10.26366 -10.26332 -10.26278 -10.26168
 Alpha  occ. eigenvalues --  -10.26049 -10.25828 -10.25820 -10.25739 -10.25349
 Alpha  occ. eigenvalues --  -10.25097 -10.25051 -10.25043 -10.25014 -10.24948
 Alpha  occ. eigenvalues --  -10.24910 -10.24906 -10.24893 -10.24429 -10.24365
 Alpha  occ. eigenvalues --  -10.23234 -10.22618  -1.12718  -1.10817  -0.94965
 Alpha  occ. eigenvalues --   -0.93662  -0.92413  -0.92154  -0.90831  -0.90422
 Alpha  occ. eigenvalues --   -0.87892  -0.87308  -0.86837  -0.85346  -0.84542
 Alpha  occ. eigenvalues --   -0.83201  -0.81818  -0.80475  -0.79122  -0.78412
 Alpha  occ. eigenvalues --   -0.77341  -0.77262  -0.77000  -0.76448  -0.75987
 Alpha  occ. eigenvalues --   -0.75762  -0.75266  -0.74422  -0.73430  -0.70777
 Alpha  occ. eigenvalues --   -0.69671  -0.68366  -0.66807  -0.65257  -0.64078
 Alpha  occ. eigenvalues --   -0.63976  -0.63384  -0.62245  -0.61009  -0.60205
 Alpha  occ. eigenvalues --   -0.59689  -0.58988  -0.58310  -0.57325  -0.56493
 Alpha  occ. eigenvalues --   -0.56491  -0.56187  -0.55072  -0.54951  -0.54413
 Alpha  occ. eigenvalues --   -0.53428  -0.53325  -0.52744  -0.52074  -0.51283
 Alpha  occ. eigenvalues --   -0.50716  -0.50163  -0.49859  -0.49526  -0.49410
 Alpha  occ. eigenvalues --   -0.48910  -0.48695  -0.48369  -0.48200  -0.48031
 Alpha  occ. eigenvalues --   -0.47816  -0.47610  -0.47161  -0.47076  -0.46776
 Alpha  occ. eigenvalues --   -0.46470  -0.45681  -0.45550  -0.45257  -0.45019
 Alpha  occ. eigenvalues --   -0.44951  -0.44504  -0.44220  -0.44066  -0.43995
 Alpha  occ. eigenvalues --   -0.43549  -0.43084  -0.42943  -0.42813  -0.42325
 Alpha  occ. eigenvalues --   -0.41926  -0.41659  -0.41535  -0.41269  -0.40951
 Alpha  occ. eigenvalues --   -0.40814  -0.40500  -0.40026  -0.39893  -0.39629
 Alpha  occ. eigenvalues --   -0.38967  -0.38756  -0.38714  -0.38202  -0.37920
 Alpha  occ. eigenvalues --   -0.37223  -0.37174  -0.36200  -0.35768  -0.35212
 Alpha  occ. eigenvalues --   -0.34395  -0.34237  -0.33922  -0.32285  -0.31459
 Alpha  occ. eigenvalues --   -0.30276  -0.29179  -0.27669  -0.25780  -0.22952
 Alpha  occ. eigenvalues --   -0.19637
 Alpha virt. eigenvalues --   -0.05054  -0.01238   0.02516   0.05323   0.08013
 Alpha virt. eigenvalues --    0.09264   0.10781   0.11224   0.11649   0.12242
 Alpha virt. eigenvalues --    0.12657   0.13064   0.13321   0.13430   0.13688

 Mulliken charges:
               1
     1  O   -0.551590
     2  O   -0.539873
     3  C   -0.006882
     4  C   -0.069645
     5  C   -0.210524
     6  C   -0.199546
     7  C    0.205778
     8  C    0.171793
     9  C    0.048962
    10  C    0.112766
    11  C   -0.214587
    12  C   -0.247103
    13  C    0.006207
    14  C    0.044678
    15  C   -0.299743
    16  C   -0.298240
    17  C   -0.280296
    18  C   -0.305151
    19  C   -0.078812
    20  C   -0.153091
    21  C   -0.373354
    22  C   -0.360940
    23  C   -0.116455
    24  C   -0.097306
    25  C    0.094039
    26  C    0.156604
    27  C   -0.386076
    28  C   -0.381848
    29  C   -0.098886
    30  C   -0.124372
    31  C   -0.139897
    32  C   -0.080074
    33  C   -0.078809
    34  C   -0.086196
    35  C    0.097484
    36  C    0.118275
    37  C   -0.339201
    38  C   -0.376458
    39  C   -0.143600
    40  C   -0.153528
    41  C   -0.083435
    42  C   -0.090296
    43  H    0.106158
    44  H    0.087559
    45  H    0.086027
    46  H    0.105377
    47  H    0.049122
    48  H    0.080505
    49  H    0.133904
    50  H    0.119580
    51  H    0.119812
    52  H    0.096004
    53  H    0.091855
    54  H    0.056198
    55  H    0.109999
    56  H    0.104124
    57  H    0.092886
    58  H    0.105701
    59  H    0.102865
    60  H    0.116257
    61  H    0.054905
    62  H    0.116586
    63  H    0.094516
    64  H    0.069861
    65  H    0.080745
    66  H    0.100296
    67  H    0.133828
    68  H    0.107767
    69  H    0.110768
    70  H    0.099875
    71  H    0.129554
    72  H    0.104431
    73  H    0.303960
    74  H    0.310340
    75  H    0.080199
    76  H    0.097027
    77  H    0.097177
    78  H    0.131496
    79  H    0.144460
    80  H    0.126893
    81  H    0.095584
    82  H    0.095487
    83  H    0.071030
    84  H    0.065424
    85  H    0.088135
    86  H    0.083821
    87  H    0.093027
    88  H    0.070631
    89  H    0.108638
    90  H    0.111246
    91  H    0.107676
    92  H    0.120467
    93  H    0.131073
    94  H    0.096247
    95  H    0.087062
    96  H    0.070984
    97  H    0.084783
    98  H    0.069297
 Sum of Mulliken charges =  -0.00000

 Dipole moment (field-independent basis, Debye):
    X=              0.4764    Y=             -1.2031    Z=              1.1401  Tot=              1.7246
 Quadrupole moment (field-independent basis, Debye-Ang):
   XX=           -255.8801   YY=           -240.8400   ZZ=           -264.2898
   XY=             21.7841   XZ=             -2.8231   YZ=             -0.7735

 Normal termination of Gaussian 16 at Sat Jul 20 06:09:34 2019.
