 Gaussian 16, Revision A.03,
 Gaussian 16:  ES64L-G16RevA.03 25-Dec-2016

 -------------------------------------
 # td=(NStates=1) CAM-B3LYP/6-31G(d,p)
 -------------------------------------

 --
 TD
 --
 Symbolic Z-matrix:
 Charge =  0 Multiplicity = 1

                         Standard orientation:
 ---------------------------------------------------------------------
 Center     Atomic      Atomic             Coordinates (Angstroms)
 Number     Number       Type             X           Y           Z
 ---------------------------------------------------------------------
      1          8           0       14.745728   -2.285715   -0.558322
      2          8           0      -14.764132    1.994165    0.669322
      3          6           0       11.272916   -1.458234    0.960726
      4          6           0      -12.436635   -0.935304    0.570067
      5          6           0       12.910588   -1.599898    0.980836
      6          6           0      -13.771704   -0.129863    0.389944
      7          6           0       13.386056   -1.862277   -0.436523
      8          6           0      -13.535989    1.276333    0.718601
      9          6           0       10.959674   -0.202469   -0.063539
     10          6           0      -11.281764   -0.206417   -0.262723
     11          6           0       13.214005   -0.592539   -1.181771
     12          6           0      -12.720021    1.867336   -0.322345
     13          6           0       11.900508    0.115734   -0.996304
     14          6           0      -11.482825    1.094495   -0.712209
     15          6           0       10.986166   -0.949414    2.359530
     16          6           0       10.420818   -2.576237    0.572563
     17          6           0      -12.104130   -1.072626    2.052435
     18          6           0      -12.806157   -2.317510   -0.166639
     19          6           0        9.655199    0.444631    0.169143
     20          6           0       -9.997978   -1.055975   -0.392706
     21          6           0       11.571598    1.223920   -1.978788
     22          6           0      -10.566163    1.699206   -1.697612
     23          6           0        9.416438    1.727974   -0.014408
     24          6           0       -8.730497   -0.482762   -0.283672
     25          6           0        8.095860    2.305213    0.089932
     26          6           0       -7.572757   -1.176175   -0.444286
     27          6           0        8.048356    3.820066    0.315629
     28          6           0       -7.758452   -2.741818   -0.591236
     29          6           0        6.952377    1.524545    0.062885
     30          6           0       -6.320321   -0.635705   -0.397218
     31          6           0        5.571104    1.969358    0.423729
     32          6           0       -5.082226   -1.184080   -0.394088
     33          6           0        4.457561    1.283891    0.256996
     34          6           0       -3.941941   -0.485616   -0.471617
     35          6           0        3.092450    1.686098    0.376267
     36          6           0       -2.556559   -0.912634   -0.449156
     37          6           0        2.771583    3.034890    0.734026
     38          6           0       -2.317560   -2.366177   -0.698301
     39          6           0        2.094969    0.651444    0.240153
     40          6           0       -1.511774   -0.034670   -0.111659
     41          6           0        0.742257    0.823723    0.238911
     42          6           0       -0.172064   -0.187345   -0.091763
     43          1           0       13.389481   -0.659008    1.284619
     44          1           0       13.141662   -2.328275    1.842070
     45          1           0      -14.563627   -0.502293    1.205634
     46          1           0      -14.370146   -0.111857   -0.672154
     47          1           0       12.567878   -2.409902   -0.990053
     48          1           0      -13.086209    1.435508    1.757644
     49          1           0       13.893103    0.037210   -0.701646
     50          1           0       13.626335   -0.624440   -2.210513
     51          1           0      -13.403677    1.836860   -1.171428
     52          1           0      -12.557164    2.868397   -0.156419
     53          1           0       11.214606   -1.803318    3.010805
     54          1           0        9.735416   -0.849102    2.315847
     55          1           0       11.717371   -0.081936    2.606520
     56          1           0       10.806813   -3.153657   -0.563160
     57          1           0       10.578170   -3.479752    1.228403
     58          1           0        9.379287   -2.419827    0.586231
     59          1           0      -12.186430   -0.120051    2.620157
     60          1           0      -10.915702   -1.194618    2.035410
     61          1           0      -12.746282   -1.795454    2.693410
     62          1           0      -13.744029   -2.653613    0.137074
     63          1           0      -12.170578   -3.172925    0.230108
     64          1           0      -12.614049   -2.458257   -1.304003
     65          1           0        8.727530   -0.375376    0.334835
     66          1           0      -10.301927   -2.002729   -0.689215
     67          1           0       10.494669    1.655909   -2.074796
     68          1           0       12.193583    2.134069   -1.821868
     69          1           0       11.912895    0.810676   -2.963383
     70          1           0      -11.227852    1.972071   -2.523861
     71          1           0       -9.848695    1.145191   -2.055942
     72          1           0      -10.234834    2.576805   -1.376418
     73          1           0       14.818288   -3.022392   -0.018747
     74          1           0      -15.572578    1.497279    1.373700
     75          1           0       10.325843    2.234652   -0.237992
     76          1           0       -8.601575    0.453048    0.101996
     77          1           0        9.119995    4.310706    0.081160
     78          1           0        7.364232    4.196765   -0.422750
     79          1           0        7.791808    4.019340    1.163445
     80          1           0       -8.477593   -3.133629    0.213240
     81          1           0       -8.195940   -2.788285   -1.618353
     82          1           0       -6.984186   -3.403928   -0.508356
     83          1           0        6.898341    0.545850   -0.271590
     84          1           0       -6.255958    0.467038   -0.389810
     85          1           0        5.402796    2.847597    0.777790
     86          1           0       -4.967869   -2.238986   -0.302933
     87          1           0        4.446906    0.176797   -0.130528
     88          1           0       -4.029709    0.704052   -0.243531
     89          1           0        3.431027    3.178228    1.532161
     90          1           0        1.849958    3.165746    0.925128
     91          1           0        3.285991    3.748640    0.003681
     92          1           0       -2.794652   -2.963819    0.125649
     93          1           0       -2.838550   -2.790690   -1.549108
     94          1           0       -1.408360   -2.752862   -0.659486
     95          1           0        2.551451   -0.346984   -0.005397
     96          1           0       -1.790109    1.008743    0.241048
     97          1           0        0.231113    1.842907    0.459545
     98          1           0        0.021149   -1.198388   -0.264728
 ---------------------------------------------------------------------

 SCF Done:  E(RCAM-B3LYP) =  -1706.91069811     A.U. after   15 cycles

 Excitation energies and oscillator strengths:

 Excited State   1:      Singlet-A      2.1494 eV  576.84 nm  f=3.8478  <S**2>=0.000
     155 ->158         0.14614
     156 ->157         0.69232
 This state for optimization and/or second-order correction.
 Total Energy, E(TD-HF/TD-DFT) =  -1706.83170984
 Copying the excited state density for this state as the 1-particle RhoCI density.

 The electronic state is 1-A.
 Alpha  occ. eigenvalues --  -19.21710 -19.21594 -10.30504 -10.28954 -10.28308
 Alpha  occ. eigenvalues --  -10.27902 -10.27825 -10.27724 -10.27594 -10.27506
 Alpha  occ. eigenvalues --  -10.27242 -10.26934 -10.26910 -10.26845 -10.26622
 Alpha  occ. eigenvalues --  -10.26617 -10.26574 -10.26568 -10.26435 -10.26411
 Alpha  occ. eigenvalues --  -10.26193 -10.26153 -10.26139 -10.26104 -10.26029
 Alpha  occ. eigenvalues --  -10.26004 -10.25910 -10.25807 -10.25461 -10.25313
 Alpha  occ. eigenvalues --  -10.25261 -10.25211 -10.25149 -10.25120 -10.25074
 Alpha  occ. eigenvalues --  -10.25019 -10.24839 -10.24685 -10.24605 -10.24120
 Alpha  occ. eigenvalues --  -10.23733 -10.22202  -1.10869  -1.06479  -0.93480
 Alpha  occ. eigenvalues --   -0.92856  -0.92621  -0.91950  -0.90913  -0.90381
 Alpha  occ. eigenvalues --   -0.88158  -0.87475  -0.86563  -0.86307  -0.85195
 Alpha  occ. eigenvalues --   -0.83753  -0.82980  -0.81063  -0.80442  -0.79475
 Alpha  occ. eigenvalues --   -0.77199  -0.76538  -0.76456  -0.76199  -0.75606
 Alpha  occ. eigenvalues --   -0.75411  -0.74913  -0.74539  -0.73634  -0.71550
 Alpha  occ. eigenvalues --   -0.68950  -0.67909  -0.65553  -0.64479  -0.63940
 Alpha  occ. eigenvalues --   -0.62923  -0.62314  -0.61820  -0.61191  -0.60457
 Alpha  occ. eigenvalues --   -0.60260  -0.59527  -0.58552  -0.57878  -0.56428
 Alpha  occ. eigenvalues --   -0.56349  -0.55927  -0.54967  -0.54418  -0.53946
 Alpha  occ. eigenvalues --   -0.53262  -0.53000  -0.52464  -0.52278  -0.51339
 Alpha  occ. eigenvalues --   -0.51055  -0.50638  -0.50008  -0.49774  -0.49423
 Alpha  occ. eigenvalues --   -0.48870  -0.48593  -0.48534  -0.48278  -0.48108
 Alpha  occ. eigenvalues --   -0.47720  -0.47188  -0.46970  -0.46809  -0.46452
 Alpha  occ. eigenvalues --   -0.46391  -0.46056  -0.45776  -0.45494  -0.45138
 Alpha  occ. eigenvalues --   -0.45024  -0.44335  -0.44187  -0.43892  -0.43598
 Alpha  occ. eigenvalues --   -0.43487  -0.43088  -0.42873  -0.42729  -0.42197
 Alpha  occ. eigenvalues --   -0.41640  -0.41463  -0.41275  -0.41176  -0.40916
 Alpha  occ. eigenvalues --   -0.40541  -0.40318  -0.40196  -0.39356  -0.39306
 Alpha  occ. eigenvalues --   -0.39076  -0.38932  -0.38792  -0.38661  -0.38386
 Alpha  occ. eigenvalues --   -0.38307  -0.37709  -0.36207  -0.35925  -0.35377
 Alpha  occ. eigenvalues --   -0.35158  -0.34560  -0.33481  -0.32312  -0.32139
 Alpha  occ. eigenvalues --   -0.31087  -0.29542  -0.28289  -0.25828  -0.23629
 Alpha  occ. eigenvalues --   -0.19160
 Alpha virt. eigenvalues --   -0.06113  -0.01022   0.01850   0.06358   0.07771
 Alpha virt. eigenvalues --    0.08401   0.09872   0.10912   0.11908   0.12574
 Alpha virt. eigenvalues --    0.13029   0.13414   0.13783   0.14033   0.14262

 Mulliken charges:
               1
     1  O   -0.548953
     2  O   -0.579558
     3  C   -0.015105
     4  C    0.023044
     5  C   -0.209316
     6  C   -0.172887
     7  C    0.166806
     8  C    0.189181
     9  C    0.026727
    10  C   -0.012915
    11  C   -0.229751
    12  C   -0.210740
    13  C    0.064962
    14  C    0.046697
    15  C   -0.270640
    16  C   -0.284549
    17  C   -0.311918
    18  C   -0.325878
    19  C   -0.064100
    20  C   -0.121708
    21  C   -0.383318
    22  C   -0.341256
    23  C   -0.128613
    24  C   -0.092633
    25  C    0.054196
    26  C    0.106487
    27  C   -0.344816
    28  C   -0.360629
    29  C   -0.109070
    30  C   -0.135477
    31  C   -0.080293
    32  C   -0.047927
    33  C   -0.102096
    34  C   -0.128349
    35  C    0.110103
    36  C    0.106557
    37  C   -0.356348
    38  C   -0.387789
    39  C   -0.125775
    40  C   -0.133215
    41  C   -0.106697
    42  C   -0.040948
    43  H    0.106657
    44  H    0.076771
    45  H    0.046528
    46  H    0.091284
    47  H    0.081248
    48  H    0.073089
    49  H    0.123369
    50  H    0.114457
    51  H    0.119020
    52  H    0.114000
    53  H    0.095715
    54  H    0.077167
    55  H    0.105592
    56  H    0.064557
    57  H    0.094763
    58  H    0.120851
    59  H    0.107539
    60  H    0.100949
    61  H    0.097522
    62  H    0.112477
    63  H    0.083618
    64  H    0.104817
    65  H    0.071701
    66  H    0.102941
    67  H    0.126301
    68  H    0.110631
    69  H    0.100261
    70  H    0.103784
    71  H    0.122705
    72  H    0.117367
    73  H    0.303421
    74  H    0.288902
    75  H    0.102540
    76  H    0.094770
    77  H    0.089963
    78  H    0.125379
    79  H    0.138519
    80  H    0.106997
    81  H    0.120290
    82  H    0.108208
    83  H    0.080427
    84  H    0.067944
    85  H    0.047484
    86  H    0.078081
    87  H    0.060413
    88  H    0.065145
    89  H    0.134489
    90  H    0.108375
    91  H    0.116886
    92  H    0.114298
    93  H    0.124301
    94  H    0.117608
    95  H    0.084542
    96  H    0.063043
    97  H    0.088665
    98  H    0.070136
 Sum of Mulliken charges =  -0.00000

 Dipole moment (field-independent basis, Debye):
    X=              0.8479    Y=             -1.2550    Z=              1.6795  Tot=              2.2616
 Quadrupole moment (field-independent basis, Debye-Ang):
   XX=           -265.9512   YY=           -243.3836   ZZ=           -263.3935
   XY=             14.5375   XZ=              1.0970   YZ=             -0.6318

 Normal termination of Gaussian 16 at Fri Jul 19 20:56:38 2019.
