 Gaussian 16, Revision A.03,
 Gaussian 16:  ES64L-G16RevA.03 25-Dec-2016

 -------------------------------------
 # td=(NStates=1) CAM-B3LYP/6-31G(d,p)
 -------------------------------------

 --
 TD
 --
 Symbolic Z-matrix:
 Charge =  0 Multiplicity = 1

                         Standard orientation:
 ---------------------------------------------------------------------
 Center     Atomic      Atomic             Coordinates (Angstroms)
 Number     Number       Type             X           Y           Z
 ---------------------------------------------------------------------
      1          8           0       14.720244   -2.371116   -0.394334
      2          8           0      -14.942182    1.793703    0.654473
      3          6           0       11.315590   -1.450018    0.925779
      4          6           0      -12.463133   -1.068552    0.543466
      5          6           0       12.751010   -1.845426    0.916136
      6          6           0      -13.786750   -0.282729    0.502056
      7          6           0       13.369190   -1.962562   -0.381313
      8          6           0      -13.700000    1.125958    0.803858
      9          6           0       11.024265   -0.262360   -0.013030
     10          6           0      -11.355073   -0.305376   -0.227401
     11          6           0       13.246574   -0.581998   -1.115049
     12          6           0      -12.786421    1.906327   -0.306874
     13          6           0       11.927485    0.117374   -0.949510
     14          6           0      -11.554176    1.096169   -0.563725
     15          6           0       10.970914   -1.052830    2.390674
     16          6           0       10.409619   -2.665516    0.512319
     17          6           0      -11.912067   -1.270795    1.960491
     18          6           0      -12.718075   -2.415887   -0.053071
     19          6           0        9.787860    0.385281    0.129053
     20          6           0      -10.087704   -0.923222   -0.447563
     21          6           0       11.778966    1.339682   -1.933633
     22          6           0      -10.624753    1.688787   -1.485407
     23          6           0        9.461862    1.730673    0.019292
     24          6           0       -8.793801   -0.425515   -0.205232
     25          6           0        8.155103    2.273803    0.182989
     26          6           0       -7.537149   -1.235217   -0.509732
     27          6           0        7.969889    3.707052    0.602283
     28          6           0       -7.599717   -2.634766   -0.988009
     29          6           0        6.931230    1.554226    0.047143
     30          6           0       -6.366541   -0.634553   -0.275130
     31          6           0        5.620912    2.005308    0.267177
     32          6           0       -5.020602   -1.089461   -0.625443
     33          6           0        4.483147    1.268172    0.077786
     34          6           0       -3.984155   -0.324017   -0.082240
     35          6           0        3.109254    1.659052    0.218631
     36          6           0       -2.596024   -0.747773   -0.300592
     37          6           0        2.850131    3.066051    0.584538
     38          6           0       -2.354722   -2.148157   -0.816272
     39          6           0        2.107568    0.871586   -0.191769
     40          6           0       -1.601135    0.133463   -0.007962
     41          6           0        0.717269    0.985544    0.004397
     42          6           0       -0.344160    0.009872   -0.153848
     43          1           0       13.457671   -1.228196    1.413558
     44          1           0       12.636638   -2.749383    1.605661
     45          1           0      -14.619076   -0.794244    1.228576
     46          1           0      -14.325547   -0.529923   -0.369979
     47          1           0       12.650019   -2.657890   -0.990508
     48          1           0      -13.240234    1.537298    1.815871
     49          1           0       14.032724   -0.063975   -0.711405
     50          1           0       13.545896   -0.398997   -2.018741
     51          1           0      -13.317522    2.260993   -1.253658
     52          1           0      -12.393752    2.876941    0.026738
     53          1           0       11.169119   -1.932523    3.130345
     54          1           0        9.857708   -0.820192    2.375694
     55          1           0       11.581266   -0.193269    2.648832
     56          1           0       10.586394   -3.119405   -0.441137
     57          1           0       10.633473   -3.354406    1.221298
     58          1           0        9.364195   -2.363618    0.659800
     59          1           0      -11.690282   -0.385268    2.396214
     60          1           0      -10.986682   -1.777694    1.963899
     61          1           0      -12.447480   -1.986928    2.729251
     62          1           0      -13.696187   -2.800539    0.181105
     63          1           0      -11.782930   -3.186375    0.173077
     64          1           0      -13.052898   -2.182438   -1.151042
     65          1           0        8.851399   -0.147820    0.348671
     66          1           0      -10.208822   -1.953757   -0.794305
     67          1           0       10.649422    1.679066   -2.325710
     68          1           0       12.142555    2.354470   -1.469945
     69          1           0       12.293922    1.164162   -2.886105
     70          1           0      -11.109645    2.371913   -2.226639
     71          1           0       -9.677157    1.024308   -1.788372
     72          1           0      -10.156829    2.324064   -0.821970
     73          1           0       14.698497   -3.249426    0.010351
     74          1           0      -15.335747    1.400591    1.461503
     75          1           0       10.239224    2.387481   -0.234371
     76          1           0       -8.507244    0.537421    0.072889
     77          1           0        8.952487    4.171623    0.627488
     78          1           0        7.215815    4.246170   -0.140321
     79          1           0        7.518131    3.733957    1.631144
     80          1           0       -8.277651   -3.086536   -0.167672
     81          1           0       -8.041038   -2.826345   -1.977320
     82          1           0       -6.496459   -3.065899   -0.820200
     83          1           0        7.106396    0.540802   -0.373067
     84          1           0       -6.281214    0.414935   -0.103822
     85          1           0        5.489787    2.896454    0.807467
     86          1           0       -4.772989   -2.052687   -1.035201
     87          1           0        4.604424    0.251721   -0.184171
     88          1           0       -4.255124    0.663949    0.339740
     89          1           0        3.303636    3.188361    1.636032
     90          1           0        1.809646    3.253936    0.753237
     91          1           0        3.120238    3.925814   -0.172308
     92          1           0       -2.737288   -2.604094   -0.163920
     93          1           0       -2.895489   -2.326417   -1.727158
     94          1           0       -1.303296   -2.232361   -1.109879
     95          1           0        2.551765   -0.077324   -0.566798
     96          1           0       -2.038498    1.047931    0.380067
     97          1           0        0.476769    1.841989    0.383922
     98          1           0        0.073283   -0.915022   -0.409408
 ---------------------------------------------------------------------

 SCF Done:  E(RCAM-B3LYP) =  -1706.96039325     A.U. after   15 cycles

 Excitation energies and oscillator strengths:

 Excited State   1:      Singlet-A      2.1260 eV  583.19 nm  f=3.7169  <S**2>=0.000
     155 ->158         0.15810
     156 ->157         0.68764
 This state for optimization and/or second-order correction.
 Total Energy, E(TD-HF/TD-DFT) =  -1706.88226508
 Copying the excited state density for this state as the 1-particle RhoCI density.

 The electronic state is 1-A.
 Alpha  occ. eigenvalues --  -19.22279 -19.21559 -10.31915 -10.31146 -10.27692
 Alpha  occ. eigenvalues --  -10.27604 -10.27544 -10.27492 -10.27254 -10.27055
 Alpha  occ. eigenvalues --  -10.26959 -10.26893 -10.26876 -10.26829 -10.26699
 Alpha  occ. eigenvalues --  -10.26529 -10.26512 -10.26355 -10.26349 -10.26294
 Alpha  occ. eigenvalues --  -10.26178 -10.26055 -10.25882 -10.25776 -10.25733
 Alpha  occ. eigenvalues --  -10.25685 -10.25584 -10.25518 -10.25415 -10.25408
 Alpha  occ. eigenvalues --  -10.25406 -10.25361 -10.25304 -10.25254 -10.25189
 Alpha  occ. eigenvalues --  -10.24477 -10.24385 -10.24172 -10.23966 -10.23588
 Alpha  occ. eigenvalues --  -10.23541 -10.23492  -1.10712  -1.10501  -0.94396
 Alpha  occ. eigenvalues --   -0.93471  -0.92975  -0.91819  -0.90579  -0.90049
 Alpha  occ. eigenvalues --   -0.88046  -0.87481  -0.87104  -0.86058  -0.84867
 Alpha  occ. eigenvalues --   -0.83706  -0.82337  -0.80312  -0.80185  -0.79396
 Alpha  occ. eigenvalues --   -0.77049  -0.77041  -0.76474  -0.76074  -0.75859
 Alpha  occ. eigenvalues --   -0.75758  -0.75548  -0.75113  -0.73226  -0.70714
 Alpha  occ. eigenvalues --   -0.69061  -0.67448  -0.66354  -0.65217  -0.64324
 Alpha  occ. eigenvalues --   -0.63540  -0.63326  -0.62569  -0.61256  -0.60260
 Alpha  occ. eigenvalues --   -0.59599  -0.59422  -0.58313  -0.57615  -0.56704
 Alpha  occ. eigenvalues --   -0.56264  -0.56005  -0.55190  -0.54686  -0.54349
 Alpha  occ. eigenvalues --   -0.53541  -0.53152  -0.52706  -0.52307  -0.51853
 Alpha  occ. eigenvalues --   -0.50946  -0.50632  -0.50022  -0.49763  -0.49376
 Alpha  occ. eigenvalues --   -0.49244  -0.48661  -0.48494  -0.48265  -0.48230
 Alpha  occ. eigenvalues --   -0.47928  -0.47827  -0.47173  -0.46722  -0.46610
 Alpha  occ. eigenvalues --   -0.46484  -0.46282  -0.45695  -0.45091  -0.45033
 Alpha  occ. eigenvalues --   -0.44522  -0.44448  -0.44018  -0.43751  -0.43452
 Alpha  occ. eigenvalues --   -0.43285  -0.43074  -0.42888  -0.42726  -0.42491
 Alpha  occ. eigenvalues --   -0.42261  -0.41998  -0.41928  -0.41353  -0.41130
 Alpha  occ. eigenvalues --   -0.40988  -0.40745  -0.39766  -0.39603  -0.39442
 Alpha  occ. eigenvalues --   -0.39170  -0.38708  -0.38693  -0.38353  -0.37996
 Alpha  occ. eigenvalues --   -0.37883  -0.37585  -0.37019  -0.36801  -0.36340
 Alpha  occ. eigenvalues --   -0.34992  -0.34441  -0.33478  -0.33202  -0.32386
 Alpha  occ. eigenvalues --   -0.32367  -0.29334  -0.28121  -0.24968  -0.22888
 Alpha  occ. eigenvalues --   -0.18975
 Alpha virt. eigenvalues --   -0.05852  -0.01126   0.01724   0.05381   0.07554
 Alpha virt. eigenvalues --    0.09850   0.11162   0.11249   0.12158   0.12255
 Alpha virt. eigenvalues --    0.12769   0.13293   0.13633   0.13952   0.14024

 Mulliken charges:
               1
     1  O   -0.549533
     2  O   -0.538735
     3  C   -0.058704
     4  C    0.009211
     5  C   -0.164743
     6  C   -0.178272
     7  C    0.155222
     8  C    0.141449
     9  C    0.097458
    10  C    0.048746
    11  C   -0.207952
    12  C   -0.236405
    13  C    0.049081
    14  C    0.063064
    15  C   -0.290942
    16  C   -0.298097
    17  C   -0.294498
    18  C   -0.309610
    19  C   -0.124503
    20  C   -0.153097
    21  C   -0.372102
    22  C   -0.370589
    23  C   -0.101868
    24  C   -0.088629
    25  C    0.071557
    26  C    0.113507
    27  C   -0.367271
    28  C   -0.364680
    29  C   -0.122951
    30  C   -0.140022
    31  C   -0.074427
    32  C   -0.097785
    33  C   -0.113931
    34  C   -0.118234
    35  C    0.124606
    36  C    0.056959
    37  C   -0.374974
    38  C   -0.342406
    39  C   -0.120429
    40  C   -0.065216
    41  C   -0.085422
    42  C   -0.093613
    43  H    0.102475
    44  H    0.072211
    45  H    0.057178
    46  H    0.121326
    47  H    0.054464
    48  H    0.083293
    49  H    0.124751
    50  H    0.101597
    51  H    0.120911
    52  H    0.108307
    53  H    0.085459
    54  H    0.103139
    55  H    0.116417
    56  H    0.113242
    57  H    0.105122
    58  H    0.104502
    59  H    0.107260
    60  H    0.110078
    61  H    0.074508
    62  H    0.110570
    63  H    0.090385
    64  H    0.089222
    65  H    0.080437
    66  H    0.089970
    67  H    0.104909
    68  H    0.114402
    69  H    0.110199
    70  H    0.104836
    71  H    0.114951
    72  H    0.125791
    73  H    0.310917
    74  H    0.299622
    75  H    0.076709
    76  H    0.083554
    77  H    0.102216
    78  H    0.111334
    79  H    0.125352
    80  H    0.109783
    81  H    0.130000
    82  H    0.094993
    83  H    0.071218
    84  H    0.078510
    85  H    0.083629
    86  H    0.086201
    87  H    0.071431
    88  H    0.089570
    89  H    0.104501
    90  H    0.111171
    91  H    0.115851
    92  H    0.135216
    93  H    0.122015
    94  H    0.112076
    95  H    0.062758
    96  H    0.071075
    97  H    0.054367
    98  H    0.072798
 Sum of Mulliken charges =  -0.00000

 Dipole moment (field-independent basis, Debye):
    X=             -0.2707    Y=             -1.5272    Z=              1.5131  Tot=              2.1668
 Quadrupole moment (field-independent basis, Debye-Ang):
   XX=           -262.8833   YY=           -244.6609   ZZ=           -261.2329
   XY=              3.8765   XZ=             -4.8347   YZ=              1.4999

 Normal termination of Gaussian 16 at Wed Jul 17 07:24:44 2019.
