 Gaussian 16, Revision A.03,
 Gaussian 16:  ES64L-G16RevA.03 25-Dec-2016

 -------------------------------------
 # td=(NStates=1) CAM-B3LYP/6-31G(d,p)
 -------------------------------------

 --
 TD
 --
 Symbolic Z-matrix:
 Charge =  0 Multiplicity = 1

                         Standard orientation:
 ---------------------------------------------------------------------
 Center     Atomic      Atomic             Coordinates (Angstroms)
 Number     Number       Type             X           Y           Z
 ---------------------------------------------------------------------
      1          8           0       14.765339   -2.174743   -0.251167
      2          8           0      -14.693721    2.048727    0.994085
      3          6           0       11.188016   -1.491282    1.014327
      4          6           0      -12.433572   -1.000676    0.413893
      5          6           0       12.726489   -1.773595    1.019511
      6          6           0      -13.808952   -0.201017    0.508455
      7          6           0       13.376279   -1.894322   -0.327324
      8          6           0      -13.516445    1.276685    0.970793
      9          6           0       10.959826   -0.365166   -0.126018
     10          6           0      -11.312553   -0.203205   -0.259605
     11          6           0       13.295726   -0.551816   -1.116641
     12          6           0      -12.674366    1.779324   -0.212497
     13          6           0       11.912622    0.072137   -1.032718
     14          6           0      -11.433737    1.083502   -0.540547
     15          6           0       10.886675   -0.921525    2.437865
     16          6           0       10.381100   -2.664947    0.553851
     17          6           0      -11.895327   -1.453953    1.796966
     18          6           0      -12.760661   -2.281858   -0.290112
     19          6           0        9.675757    0.366352    0.085798
     20          6           0      -10.108768   -1.096454   -0.472568
     21          6           0       11.617839    1.141172   -2.062192
     22          6           0      -10.455578    1.853964   -1.403243
     23          6           0        9.421854    1.632273   -0.072098
     24          6           0       -8.844954   -0.576114   -0.427596
     25          6           0        8.161509    2.277346    0.108149
     26          6           0       -7.656808   -1.324561   -0.654045
     27          6           0        8.155104    3.835540    0.363247
     28          6           0       -7.719137   -2.824325   -1.099625
     29          6           0        6.948458    1.551285    0.116173
     30          6           0       -6.495377   -0.693347   -0.362784
     31          6           0        5.625325    2.087251    0.146847
     32          6           0       -5.131455   -1.081781   -0.489882
     33          6           0        4.483721    1.178290    0.042015
     34          6           0       -4.008706   -0.306913   -0.188795
     35          6           0        3.142284    1.685747    0.205991
     36          6           0       -2.563700   -0.714522   -0.231816
     37          6           0        2.842994    3.065960    0.461503
     38          6           0       -2.420493   -2.171582   -0.458267
     39          6           0        2.147145    0.718832    0.085955
     40          6           0       -1.613503    0.229307    0.069013
     41          6           0        0.720925    0.782541    0.156783
     42          6           0       -0.255167   -0.062931   -0.128513
     43          1           0       13.216960   -1.053996    1.463136
     44          1           0       13.024018   -2.610684    1.762602
     45          1           0      -14.433425   -0.678492    1.145835
     46          1           0      -14.429885   -0.064280   -0.506719
     47          1           0       12.926051   -2.700031   -0.724989
     48          1           0      -12.903130    1.426249    1.767684
     49          1           0       13.927570    0.298067   -0.679863
     50          1           0       13.604307   -0.671422   -2.294579
     51          1           0      -13.306478    1.956634   -1.268031
     52          1           0      -12.346883    2.837276    0.086366
     53          1           0       11.372544   -1.612787    3.244592
     54          1           0        9.893597   -0.723320    2.674753
     55          1           0       11.131335    0.006332    2.657584
     56          1           0       10.760777   -3.344190   -0.290950
     57          1           0       10.137058   -3.281453    1.330576
     58          1           0        9.327939   -2.479452    0.237887
     59          1           0      -11.980040   -0.512996    2.563313
     60          1           0      -10.872762   -1.806734    1.788647
     61          1           0      -12.629436   -1.947612    2.441334
     62          1           0      -13.670459   -2.739855    0.232376
     63          1           0      -11.894584   -2.938102   -0.176059
     64          1           0      -12.959438   -1.971262   -1.358214
     65          1           0        8.843422   -0.306005    0.258657
     66          1           0      -10.289874   -2.081333   -0.778969
     67          1           0       10.643317    1.350230   -2.277066
     68          1           0       11.893563    2.120518   -1.588649
     69          1           0       12.151484    0.850085   -2.972472
     70          1           0      -11.117720    2.455769   -2.306162
     71          1           0       -9.826730    1.172068   -2.020818
     72          1           0       -9.766099    2.674424   -0.873177
     73          1           0       14.775501   -3.033612    0.044307
     74          1           0      -15.389272    1.533578    1.608564
     75          1           0       10.360590    2.013144   -0.533924
     76          1           0       -8.791577    0.560061   -0.173630
     77          1           0        9.167821    4.163505    0.525961
     78          1           0        7.565571    4.222447   -0.591384
     79          1           0        7.379190    4.326563    1.180345
     80          1           0       -7.900219   -3.416699   -0.213346
     81          1           0       -8.364597   -2.908022   -1.947939
     82          1           0       -6.726607   -3.366284   -1.326270
     83          1           0        6.771546    0.385014   -0.029749
     84          1           0       -6.624449    0.542834   -0.097240
     85          1           0        5.414370    3.106345    0.306877
     86          1           0       -4.811046   -2.076498   -0.822881
     87          1           0        4.672673    0.058126   -0.031951
     88          1           0       -4.313838    0.784256   -0.044204
     89          1           0        3.362556    3.284765    1.491786
     90          1           0        1.708360    3.076725    0.914363
     91          1           0        3.078467    3.875393   -0.318709
     92          1           0       -2.990203   -2.805190    0.341211
     93          1           0       -2.494030   -2.396258   -1.565940
     94          1           0       -1.320272   -2.375205    0.115413
     95          1           0        2.728073   -0.097616   -0.306251
     96          1           0       -2.034511    1.257935    0.592127
     97          1           0        0.413077    1.893825    0.608922
     98          1           0        0.000556   -0.994348   -0.809904
 ---------------------------------------------------------------------

 SCF Done:  E(RCAM-B3LYP) =  -1706.91895732     A.U. after   15 cycles

 Excitation energies and oscillator strengths:

 Excited State   1:      Singlet-A      2.3493 eV  527.75 nm  f=3.5659  <S**2>=0.000
     155 ->158         0.17167
     156 ->157         0.68250
 This state for optimization and/or second-order correction.
 Total Energy, E(TD-HF/TD-DFT) =  -1706.83262290
 Copying the excited state density for this state as the 1-particle RhoCI density.

 The electronic state is 1-A.
 Alpha  occ. eigenvalues --  -19.21785 -19.20466 -10.29666 -10.29432 -10.28677
 Alpha  occ. eigenvalues --  -10.28646 -10.28197 -10.28190 -10.27774 -10.27735
 Alpha  occ. eigenvalues --  -10.27715 -10.27656 -10.27617 -10.27606 -10.27432
 Alpha  occ. eigenvalues --  -10.27422 -10.27331 -10.27292 -10.27167 -10.26972
 Alpha  occ. eigenvalues --  -10.26949 -10.26938 -10.26921 -10.26854 -10.26461
 Alpha  occ. eigenvalues --  -10.26427 -10.26201 -10.26113 -10.25964 -10.25706
 Alpha  occ. eigenvalues --  -10.25674 -10.25447 -10.25413 -10.25347 -10.25172
 Alpha  occ. eigenvalues --  -10.25011 -10.24858 -10.24847 -10.24822 -10.24670
 Alpha  occ. eigenvalues --  -10.23994 -10.23958  -1.11004  -1.08187  -0.93433
 Alpha  occ. eigenvalues --   -0.92952  -0.92178  -0.91219  -0.90298  -0.89897
 Alpha  occ. eigenvalues --   -0.87197  -0.86906  -0.86733  -0.85270  -0.84269
 Alpha  occ. eigenvalues --   -0.82680  -0.81845  -0.80154  -0.79076  -0.78104
 Alpha  occ. eigenvalues --   -0.78060  -0.76521  -0.76228  -0.75648  -0.75256
 Alpha  occ. eigenvalues --   -0.75233  -0.74473  -0.74215  -0.73250  -0.70322
 Alpha  occ. eigenvalues --   -0.69060  -0.67520  -0.66231  -0.64981  -0.64416
 Alpha  occ. eigenvalues --   -0.63226  -0.62465  -0.60604  -0.60408  -0.60153
 Alpha  occ. eigenvalues --   -0.58876  -0.58593  -0.57795  -0.57404  -0.55734
 Alpha  occ. eigenvalues --   -0.55660  -0.55050  -0.54711  -0.53660  -0.53258
 Alpha  occ. eigenvalues --   -0.52490  -0.52230  -0.51545  -0.51185  -0.50899
 Alpha  occ. eigenvalues --   -0.50782  -0.50553  -0.50046  -0.49848  -0.49529
 Alpha  occ. eigenvalues --   -0.49191  -0.49115  -0.48683  -0.48145  -0.47625
 Alpha  occ. eigenvalues --   -0.47326  -0.47213  -0.46849  -0.46215  -0.45975
 Alpha  occ. eigenvalues --   -0.45555  -0.45218  -0.45158  -0.44744  -0.44555
 Alpha  occ. eigenvalues --   -0.44334  -0.43668  -0.43329  -0.43214  -0.42812
 Alpha  occ. eigenvalues --   -0.42644  -0.42453  -0.42209  -0.42091  -0.41914
 Alpha  occ. eigenvalues --   -0.41371  -0.41214  -0.41196  -0.41136  -0.40912
 Alpha  occ. eigenvalues --   -0.40524  -0.40347  -0.39597  -0.39534  -0.39263
 Alpha  occ. eigenvalues --   -0.38822  -0.38397  -0.38199  -0.37880  -0.37701
 Alpha  occ. eigenvalues --   -0.36976  -0.36507  -0.36317  -0.36091  -0.35387
 Alpha  occ. eigenvalues --   -0.34919  -0.34487  -0.33913  -0.32457  -0.32175
 Alpha  occ. eigenvalues --   -0.31877  -0.29850  -0.28191  -0.26329  -0.23122
 Alpha  occ. eigenvalues --   -0.19988
 Alpha virt. eigenvalues --   -0.05404  -0.01259   0.02659   0.05801   0.07822
 Alpha virt. eigenvalues --    0.09714   0.10802   0.10931   0.11577   0.11926
 Alpha virt. eigenvalues --    0.12357   0.12779   0.12806   0.13254   0.13346

 Mulliken charges:
               1
     1  O   -0.539097
     2  O   -0.565200
     3  C    0.020493
     4  C   -0.032684
     5  C   -0.194993
     6  C   -0.198917
     7  C    0.159063
     8  C    0.188213
     9  C    0.016457
    10  C    0.094813
    11  C   -0.207328
    12  C   -0.228734
    13  C    0.027584
    14  C    0.071455
    15  C   -0.313708
    16  C   -0.314602
    17  C   -0.304853
    18  C   -0.275963
    19  C   -0.083568
    20  C   -0.153361
    21  C   -0.374942
    22  C   -0.361780
    23  C   -0.093952
    24  C   -0.101059
    25  C    0.046847
    26  C    0.111149
    27  C   -0.351683
    28  C   -0.372675
    29  C   -0.107990
    30  C   -0.127423
    31  C   -0.081938
    32  C   -0.091116
    33  C   -0.145278
    34  C   -0.115055
    35  C    0.143303
    36  C    0.097284
    37  C   -0.385975
    38  C   -0.381270
    39  C   -0.115287
    40  C   -0.098524
    41  C   -0.087316
    42  C   -0.093226
    43  H    0.116002
    44  H    0.062967
    45  H    0.076380
    46  H    0.093804
    47  H    0.087325
    48  H    0.095470
    49  H    0.122999
    50  H    0.087632
    51  H    0.088598
    52  H    0.091286
    53  H    0.086404
    54  H    0.105660
    55  H    0.124488
    56  H    0.100795
    57  H    0.110178
    58  H    0.100922
    59  H    0.061723
    60  H    0.128309
    61  H    0.100393
    62  H    0.092410
    63  H    0.097283
    64  H    0.097445
    65  H    0.076001
    66  H    0.094540
    67  H    0.142755
    68  H    0.121871
    69  H    0.105904
    70  H    0.072642
    71  H    0.130009
    72  H    0.101122
    73  H    0.291916
    74  H    0.305759
    75  H    0.060871
    76  H    0.099564
    77  H    0.123820
    78  H    0.115545
    79  H    0.104275
    80  H    0.133024
    81  H    0.129515
    82  H    0.105267
    83  H    0.078893
    84  H    0.056870
    85  H    0.083530
    86  H    0.077436
    87  H    0.095804
    88  H    0.067414
    89  H    0.111516
    90  H    0.094196
    91  H    0.132408
    92  H    0.135306
    93  H    0.135343
    94  H    0.087546
    95  H    0.069528
    96  H    0.094062
    97  H    0.058780
    98  H    0.101330
 Sum of Mulliken charges =  -0.00000

 Dipole moment (field-independent basis, Debye):
    X=              0.4863    Y=             -2.3071    Z=              0.9638  Tot=              2.5472
 Quadrupole moment (field-independent basis, Debye-Ang):
   XX=           -283.4867   YY=           -245.2119   ZZ=           -260.8045
   XY=             17.4521   XZ=             -8.0217   YZ=              1.5234

 Normal termination of Gaussian 16 at Fri Jul 19 01:27:27 2019.
