 Gaussian 16, Revision A.03,
 Gaussian 16:  ES64L-G16RevA.03 25-Dec-2016

 -------------------------------------
 # td=(NStates=1) CAM-B3LYP/6-31G(d,p)
 -------------------------------------

 --
 TD
 --
 Symbolic Z-matrix:
 Charge =  0 Multiplicity = 1

                         Standard orientation:
 ---------------------------------------------------------------------
 Center     Atomic      Atomic             Coordinates (Angstroms)
 Number     Number       Type             X           Y           Z
 ---------------------------------------------------------------------
      1          8           0       14.699901   -2.129563   -0.213446
      2          8           0      -14.703850    1.807097    0.981046
      3          6           0       11.227819   -1.424161    0.994011
      4          6           0      -12.307639   -1.077329    0.593043
      5          6           0       12.740977   -1.701683    1.205627
      6          6           0      -13.597360   -0.307097    0.805624
      7          6           0       13.360636   -1.820691   -0.241345
      8          6           0      -13.492129    1.227761    0.991503
      9          6           0       10.991661   -0.306744    0.093594
     10          6           0      -11.214178   -0.206209   -0.117504
     11          6           0       13.208332   -0.491848   -0.940220
     12          6           0      -12.673645    1.864399   -0.090762
     13          6           0       11.874907    0.116322   -0.850219
     14          6           0      -11.386017    1.063035   -0.451109
     15          6           0       10.572943   -1.132111    2.510688
     16          6           0       10.457626   -2.673243    0.601371
     17          6           0      -11.798993   -1.415013    2.018650
     18          6           0      -12.545628   -2.361844   -0.196988
     19          6           0        9.604801    0.284802    0.185765
     20          6           0       -9.973663   -0.973610   -0.353535
     21          6           0       11.648729    1.109406   -1.857604
     22          6           0      -10.575092    2.017301   -1.224317
     23          6           0        9.321512    1.641919    0.171296
     24          6           0       -8.828972   -0.499755   -0.274416
     25          6           0        8.165744    2.220326    0.250912
     26          6           0       -7.655492   -1.275174   -0.608124
     27          6           0        7.964161    3.642250    0.537600
     28          6           0       -7.694217   -2.695599   -1.003473
     29          6           0        6.862095    1.585688    0.036648
     30          6           0       -6.370222   -0.587654   -0.438198
     31          6           0        5.527600    2.045248    0.196125
     32          6           0       -5.084649   -1.146209   -0.652063
     33          6           0        4.346087    1.268897   -0.081153
     34          6           0       -3.916230   -0.414367   -0.415072
     35          6           0        3.044682    1.677557   -0.035412
     36          6           0       -2.569795   -0.742700   -0.799410
     37          6           0        2.783707    3.147432    0.381709
     38          6           0       -2.249473   -2.132180   -1.051335
     39          6           0        2.013959    0.745670   -0.283255
     40          6           0       -1.650491    0.153904   -0.418987
     41          6           0        0.649633    0.908068   -0.292381
     42          6           0       -0.237948    0.011813   -0.525949
     43          1           0       13.045667   -0.847750    1.649306
     44          1           0       12.933229   -2.681856    1.825954
     45          1           0      -14.174005   -0.764574    1.574729
     46          1           0      -14.282243   -0.245515    0.027630
     47          1           0       12.555491   -2.416275   -0.877017
     48          1           0      -12.899942    1.292489    1.887148
     49          1           0       14.022536    0.175619   -0.502877
     50          1           0       13.473958   -0.547519   -2.030497
     51          1           0      -13.452316    1.972128   -0.810715
     52          1           0      -12.548372    2.961411    0.101059
     53          1           0       10.708198   -1.965306    3.034040
     54          1           0        9.553877   -1.022312    2.466161
     55          1           0       11.084186   -0.309583    2.859656
     56          1           0       10.642016   -2.985583   -0.497155
     57          1           0       10.636541   -3.337864    1.345556
     58          1           0        9.148097   -2.465321    0.290364
     59          1           0      -11.499502   -0.536242    2.618312
     60          1           0      -10.968615   -2.060397    2.053787
     61          1           0      -12.535446   -1.842736    2.551490
     62          1           0      -13.509283   -2.834456   -0.021487
     63          1           0      -11.630311   -3.078241   -0.169203
     64          1           0      -12.710165   -2.275370   -1.300811
     65          1           0        8.799978   -0.404184    0.330278
     66          1           0      -10.102720   -1.983943   -0.481895
     67          1           0       10.505220    1.026757   -2.205270
     68          1           0       11.863714    2.141386   -1.571528
     69          1           0       12.087352    1.031026   -2.793152
     70          1           0      -11.176241    2.934226   -1.592905
     71          1           0       -9.803143    1.421453   -1.771060
     72          1           0       -9.713820    2.376311   -0.527765
     73          1           0       14.675468   -3.124220    0.101408
     74          1           0      -15.241532    1.407944    1.511707
     75          1           0       10.207187    2.186512    0.279339
     76          1           0       -8.559594    0.528898    0.017948
     77          1           0        8.794256    4.242806    0.671890
     78          1           0        7.309552    4.285411   -0.106644
     79          1           0        7.589454    3.982076    1.498913
     80          1           0       -8.355758   -3.091254   -0.257024
     81          1           0       -8.062428   -2.762825   -1.637101
     82          1           0       -6.665097   -3.107415   -1.036455
     83          1           0        6.917532    0.495658   -0.257727
     84          1           0       -6.597082    0.538886   -0.292179
     85          1           0        5.492234    3.019525    0.501809
     86          1           0       -4.801770   -2.065806   -0.926868
     87          1           0        4.499203    0.330046   -0.388760
     88          1           0       -3.787054    0.525971    0.097716
     89          1           0        3.323604    3.250149    1.358743
     90          1           0        1.849704    3.227986    0.426669
     91          1           0        3.366243    3.830415   -0.248561
     92          1           0       -2.242261   -2.903464   -0.182457
     93          1           0       -2.757962   -2.576016   -1.912390
     94          1           0       -1.242538   -2.102798   -1.417066
     95          1           0        2.328220   -0.299992   -0.585056
     96          1           0       -1.745878    1.145749   -0.018372
     97          1           0        0.241366    1.821072    0.018940
     98          1           0        0.167907   -1.012828   -1.049344
 ---------------------------------------------------------------------

 SCF Done:  E(RCAM-B3LYP) =  -1706.74775469     A.U. after   15 cycles

 Excitation energies and oscillator strengths:

 Excited State   1:      Singlet-A      1.9827 eV  625.34 nm  f=3.4215  <S**2>=0.000
     155 ->158        -0.15253
     156 ->157         0.69397
     156 <-157        -0.10444
 This state for optimization and/or second-order correction.
 Total Energy, E(TD-HF/TD-DFT) =  -1706.67489315
 Copying the excited state density for this state as the 1-particle RhoCI density.

 The electronic state is 1-A.
 Alpha  occ. eigenvalues --  -19.23071 -19.21072 -10.30821 -10.28973 -10.27632
 Alpha  occ. eigenvalues --  -10.27148 -10.27132 -10.27117 -10.26844 -10.26697
 Alpha  occ. eigenvalues --  -10.26584 -10.26561 -10.26459 -10.26198 -10.26136
 Alpha  occ. eigenvalues --  -10.26110 -10.26091 -10.26042 -10.25934 -10.25928
 Alpha  occ. eigenvalues --  -10.25795 -10.25671 -10.25613 -10.25536 -10.25381
 Alpha  occ. eigenvalues --  -10.25346 -10.25298 -10.25236 -10.25192 -10.24848
 Alpha  occ. eigenvalues --  -10.24745 -10.24693 -10.24436 -10.24392 -10.24327
 Alpha  occ. eigenvalues --  -10.24139 -10.24050 -10.23880 -10.23322 -10.23052
 Alpha  occ. eigenvalues --  -10.22495 -10.22356  -1.14829  -1.10769  -0.94192
 Alpha  occ. eigenvalues --   -0.93906  -0.93201  -0.91837  -0.91469  -0.90963
 Alpha  occ. eigenvalues --   -0.88445  -0.87579  -0.87271  -0.86232  -0.84683
 Alpha  occ. eigenvalues --   -0.83941  -0.82380  -0.82114  -0.80308  -0.79086
 Alpha  occ. eigenvalues --   -0.77928  -0.77332  -0.77073  -0.76850  -0.76268
 Alpha  occ. eigenvalues --   -0.76013  -0.75865  -0.75558  -0.73806  -0.71271
 Alpha  occ. eigenvalues --   -0.69690  -0.67942  -0.66502  -0.65340  -0.64920
 Alpha  occ. eigenvalues --   -0.64556  -0.63655  -0.62046  -0.61339  -0.61144
 Alpha  occ. eigenvalues --   -0.60715  -0.60107  -0.59283  -0.58477  -0.57496
 Alpha  occ. eigenvalues --   -0.56544  -0.55740  -0.55311  -0.54856  -0.54696
 Alpha  occ. eigenvalues --   -0.53536  -0.53389  -0.53130  -0.52037  -0.51644
 Alpha  occ. eigenvalues --   -0.51539  -0.50854  -0.50618  -0.50344  -0.49587
 Alpha  occ. eigenvalues --   -0.49358  -0.49179  -0.48639  -0.48582  -0.48325
 Alpha  occ. eigenvalues --   -0.47801  -0.47713  -0.47437  -0.46990  -0.46925
 Alpha  occ. eigenvalues --   -0.46825  -0.46642  -0.46523  -0.46191  -0.45749
 Alpha  occ. eigenvalues --   -0.45201  -0.45013  -0.44920  -0.44501  -0.44375
 Alpha  occ. eigenvalues --   -0.43759  -0.43540  -0.42471  -0.42422  -0.42250
 Alpha  occ. eigenvalues --   -0.41720  -0.41576  -0.41532  -0.41347  -0.40701
 Alpha  occ. eigenvalues --   -0.40539  -0.40236  -0.40149  -0.39537  -0.39357
 Alpha  occ. eigenvalues --   -0.39258  -0.38528  -0.38286  -0.38229  -0.37973
 Alpha  occ. eigenvalues --   -0.37859  -0.37477  -0.36990  -0.36496  -0.35721
 Alpha  occ. eigenvalues --   -0.35640  -0.34807  -0.34171  -0.32388  -0.31494
 Alpha  occ. eigenvalues --   -0.31047  -0.29211  -0.28132  -0.26558  -0.22241
 Alpha  occ. eigenvalues --   -0.18641
 Alpha virt. eigenvalues --   -0.06366  -0.01514   0.02885   0.06335   0.08108
 Alpha virt. eigenvalues --    0.09572   0.10568   0.11626   0.12129   0.12803
 Alpha virt. eigenvalues --    0.13356   0.13549   0.13860   0.13964   0.14532

 Mulliken charges:
               1
     1  O   -0.544555
     2  O   -0.503180
     3  C   -0.074839
     4  C   -0.006810
     5  C   -0.171197
     6  C   -0.220637
     7  C    0.170521
     8  C    0.155054
     9  C    0.069540
    10  C    0.059785
    11  C   -0.233524
    12  C   -0.246990
    13  C    0.090329
    14  C    0.081837
    15  C   -0.300592
    16  C   -0.258209
    17  C   -0.301327
    18  C   -0.317242
    19  C   -0.122478
    20  C   -0.119363
    21  C   -0.382529
    22  C   -0.386593
    23  C   -0.114303
    24  C   -0.053204
    25  C    0.160327
    26  C    0.033182
    27  C   -0.411607
    28  C   -0.243909
    29  C   -0.146991
    30  C   -0.132749
    31  C   -0.071950
    32  C   -0.093360
    33  C   -0.096753
    34  C   -0.098118
    35  C    0.098193
    36  C    0.091985
    37  C   -0.339701
    38  C   -0.373859
    39  C   -0.144346
    40  C   -0.113910
    41  C   -0.066126
    42  C   -0.075302
    43  H    0.113453
    44  H    0.065916
    45  H    0.078373
    46  H    0.096402
    47  H    0.063731
    48  H    0.067785
    49  H    0.107821
    50  H    0.101915
    51  H    0.121242
    52  H    0.103443
    53  H    0.098604
    54  H    0.112955
    55  H    0.105561
    56  H    0.098294
    57  H    0.111154
    58  H    0.043992
    59  H    0.103843
    60  H    0.101402
    61  H    0.106435
    62  H    0.104169
    63  H    0.090960
    64  H    0.107884
    65  H    0.089210
    66  H    0.060697
    67  H    0.105131
    68  H    0.121572
    69  H    0.115197
    70  H    0.122214
    71  H    0.120282
    72  H    0.107663
    73  H    0.312428
    74  H    0.283756
    75  H    0.083888
    76  H    0.079232
    77  H    0.104577
    78  H    0.116393
    79  H    0.118459
    80  H    0.105212
    81  H    0.083073
    82  H    0.105624
    83  H    0.059642
    84  H    0.077275
    85  H    0.068974
    86  H    0.080368
    87  H    0.069381
    88  H    0.072681
    89  H    0.119337
    90  H    0.103459
    91  H    0.124914
    92  H    0.123882
    93  H    0.112387
    94  H    0.109167
    95  H    0.076622
    96  H    0.084578
    97  H    0.073326
    98  H    0.059571
 Sum of Mulliken charges =  -0.00000

 Dipole moment (field-independent basis, Debye):
    X=             -0.6662    Y=             -1.9510    Z=              1.2194  Tot=              2.3952
 Quadrupole moment (field-independent basis, Debye-Ang):
   XX=           -250.2385   YY=           -240.0877   ZZ=           -261.1043
   XY=              6.5427   XZ=             -4.8062   YZ=              2.4359

 Normal termination of Gaussian 16 at Fri Jul 19 02:51:22 2019.
