 Gaussian 16, Revision A.03,
 Gaussian 16:  ES64L-G16RevA.03 25-Dec-2016

 -------------------------------------
 # td=(NStates=1) CAM-B3LYP/6-31G(d,p)
 -------------------------------------

 --
 TD
 --
 Symbolic Z-matrix:
 Charge =  0 Multiplicity = 1

                         Standard orientation:
 ---------------------------------------------------------------------
 Center     Atomic      Atomic             Coordinates (Angstroms)
 Number     Number       Type             X           Y           Z
 ---------------------------------------------------------------------
      1          8           0       14.611271   -2.203145   -0.221594
      2          8           0      -14.801953    2.059515    0.887529
      3          6           0       11.142806   -1.422410    1.023869
      4          6           0      -12.322117   -0.927554    0.637972
      5          6           0       12.592527   -1.745824    1.060007
      6          6           0      -13.700505   -0.227357    0.661626
      7          6           0       13.230364   -1.880455   -0.374635
      8          6           0      -13.547721    1.301954    0.824772
      9          6           0       10.970252   -0.245216    0.062665
     10          6           0      -11.198753   -0.266127   -0.083685
     11          6           0       13.268931   -0.544437   -0.995106
     12          6           0      -12.658107    1.869628   -0.211440
     13          6           0       11.925482    0.050531   -0.879097
     14          6           0      -11.441009    1.046784   -0.504245
     15          6           0       10.711094   -1.077980    2.445321
     16          6           0       10.341555   -2.602715    0.500422
     17          6           0      -11.773922   -1.224136    2.021346
     18          6           0      -12.713352   -2.257626   -0.059735
     19          6           0        9.627612    0.392901    0.155637
     20          6           0      -10.049768   -0.926029   -0.441021
     21          6           0       11.844316    1.260360   -1.786628
     22          6           0      -10.525268    1.687927   -1.502379
     23          6           0        9.417275    1.717796    0.133608
     24          6           0       -8.722811   -0.488297   -0.390782
     25          6           0        8.097542    2.339472    0.127545
     26          6           0       -7.570750   -1.319683   -0.559760
     27          6           0        7.965155    3.812593    0.403088
     28          6           0       -7.753757   -2.712960   -0.865826
     29          6           0        6.949537    1.586353    0.050844
     30          6           0       -6.397274   -0.664165   -0.473001
     31          6           0        5.580675    2.100957    0.154120
     32          6           0       -5.122355   -1.191558   -0.619702
     33          6           0        4.548457    1.229954    0.068554
     34          6           0       -3.924273   -0.349888   -0.405309
     35          6           0        3.159897    1.600777    0.109034
     36          6           0       -2.571995   -0.839903   -0.584627
     37          6           0        2.696985    3.108116    0.459857
     38          6           0       -2.307527   -2.291894   -0.912300
     39          6           0        2.154081    0.612536   -0.089086
     40          6           0       -1.511540    0.002862   -0.284284
     41          6           0        0.773569    0.746636    0.015968
     42          6           0       -0.195208   -0.274149   -0.278887
     43          1           0       13.022749   -1.007465    1.777940
     44          1           0       12.329811   -2.811838    1.514786
     45          1           0      -14.351485   -0.815081    1.369876
     46          1           0      -13.949800   -0.262354   -0.263828
     47          1           0       12.669401   -2.646670   -1.075343
     48          1           0      -13.144444    1.470982    1.883873
     49          1           0       14.079727    0.044553   -0.305039
     50          1           0       13.784592   -0.529551   -2.082260
     51          1           0      -13.113071    2.130389   -1.325085
     52          1           0      -12.240140    2.804922    0.208490
     53          1           0       11.022953   -1.921086    3.112511
     54          1           0        9.607018   -0.753047    2.472902
     55          1           0       10.907196   -0.011099    2.508534
     56          1           0       10.522797   -2.713551   -0.534468
     57          1           0       10.522726   -3.539958    0.930794
     58          1           0        9.236601   -2.193498    0.421963
     59          1           0      -11.444629   -0.259514    2.739645
     60          1           0      -10.915907   -1.938548    1.976832
     61          1           0      -12.775883   -1.554871    2.534994
     62          1           0      -13.493202   -2.894018    0.621546
     63          1           0      -11.972975   -2.941199    0.063375
     64          1           0      -13.037725   -2.266298   -1.044206
     65          1           0        8.794480   -0.343373    0.499403
     66          1           0      -10.019368   -2.001434   -0.463021
     67          1           0       10.627821    1.448890   -1.914781
     68          1           0       12.150750    2.116876   -1.291228
     69          1           0       12.266555    1.086600   -2.805935
     70          1           0      -11.094056    2.379518   -2.253579
     71          1           0       -9.787652    1.211032   -2.100811
     72          1           0       -9.886410    2.365117   -0.688794
     73          1           0       14.624787   -3.077252    0.282915
     74          1           0      -15.189268    1.724818    1.923668
     75          1           0        9.955783    2.305543   -0.000697
     76          1           0       -8.602609    0.540304   -0.302831
     77          1           0        9.008985    4.260589    0.015208
     78          1           0        7.060762    4.317610   -0.301804
     79          1           0        7.837396    4.122427    1.530884
     80          1           0       -7.920051   -3.301362   -0.040548
     81          1           0       -8.368286   -2.928028   -1.614608
     82          1           0       -6.783043   -3.183873   -1.291262
     83          1           0        7.208192    0.469401   -0.065800
     84          1           0       -6.462454    0.518082   -0.359516
     85          1           0        5.671827    3.231100    0.055265
     86          1           0       -4.969325   -2.127239   -0.988253
     87          1           0        4.633084    0.033369   -0.097447
     88          1           0       -4.109253    0.910028   -0.395339
     89          1           0        2.666139    3.387840    1.597728
     90          1           0        1.497755    3.108853    0.064786
     91          1           0        3.097213    3.823315   -0.061053
     92          1           0       -2.510300   -3.006012    0.034033
     93          1           0       -3.029343   -2.416215   -1.745994
     94          1           0       -1.275536   -2.440665   -1.204295
     95          1           0        2.421903   -0.348938   -0.441738
     96          1           0       -1.711467    0.921758    0.162766
     97          1           0        0.469826    1.822228    0.468941
     98          1           0        0.043704   -1.099709   -0.729885
 ---------------------------------------------------------------------

 SCF Done:  E(RCAM-B3LYP) =  -1706.77060965     A.U. after   16 cycles

 Excitation energies and oscillator strengths:

 Excited State   1:      Singlet-A      1.9138 eV  647.83 nm  f=3.7421  <S**2>=0.000
     155 ->158         0.14258
     156 ->157         0.69477
     156 <-157        -0.10187
 This state for optimization and/or second-order correction.
 Total Energy, E(TD-HF/TD-DFT) =  -1706.70027748
 Copying the excited state density for this state as the 1-particle RhoCI density.

 The electronic state is 1-A.
 Alpha  occ. eigenvalues --  -19.22171 -19.21179 -10.31161 -10.30819 -10.28928
 Alpha  occ. eigenvalues --  -10.28812 -10.28670 -10.27861 -10.27715 -10.27461
 Alpha  occ. eigenvalues --  -10.27203 -10.27154 -10.27107 -10.27073 -10.27037
 Alpha  occ. eigenvalues --  -10.26947 -10.26880 -10.26733 -10.26705 -10.26585
 Alpha  occ. eigenvalues --  -10.26508 -10.26484 -10.26397 -10.26279 -10.26132
 Alpha  occ. eigenvalues --  -10.26126 -10.26120 -10.26098 -10.25929 -10.25812
 Alpha  occ. eigenvalues --  -10.25315 -10.25305 -10.25300 -10.25110 -10.25064
 Alpha  occ. eigenvalues --  -10.24943 -10.24608 -10.24425 -10.24382 -10.24233
 Alpha  occ. eigenvalues --  -10.24077 -10.23916  -1.08616  -1.05564  -0.94563
 Alpha  occ. eigenvalues --   -0.94506  -0.92303  -0.91738  -0.91446  -0.89690
 Alpha  occ. eigenvalues --   -0.87808  -0.87556  -0.86959  -0.85975  -0.84772
 Alpha  occ. eigenvalues --   -0.83204  -0.81756  -0.80042  -0.79789  -0.78175
 Alpha  occ. eigenvalues --   -0.77430  -0.77111  -0.76195  -0.76175  -0.75821
 Alpha  occ. eigenvalues --   -0.75324  -0.75132  -0.75000  -0.73079  -0.70777
 Alpha  occ. eigenvalues --   -0.69298  -0.67700  -0.65508  -0.65007  -0.63610
 Alpha  occ. eigenvalues --   -0.63318  -0.63005  -0.62680  -0.60641  -0.60335
 Alpha  occ. eigenvalues --   -0.58486  -0.58320  -0.58011  -0.57289  -0.56995
 Alpha  occ. eigenvalues --   -0.56787  -0.55285  -0.54650  -0.54413  -0.53130
 Alpha  occ. eigenvalues --   -0.52956  -0.52318  -0.51870  -0.51781  -0.51339
 Alpha  occ. eigenvalues --   -0.51126  -0.50639  -0.50399  -0.50000  -0.49407
 Alpha  occ. eigenvalues --   -0.49038  -0.48929  -0.48791  -0.48422  -0.48353
 Alpha  occ. eigenvalues --   -0.48044  -0.47789  -0.47436  -0.47085  -0.46698
 Alpha  occ. eigenvalues --   -0.46531  -0.46297  -0.44881  -0.44705  -0.44184
 Alpha  occ. eigenvalues --   -0.44020  -0.43885  -0.43458  -0.43181  -0.43054
 Alpha  occ. eigenvalues --   -0.42813  -0.42715  -0.42370  -0.41862  -0.41495
 Alpha  occ. eigenvalues --   -0.41389  -0.41168  -0.40784  -0.40765  -0.40316
 Alpha  occ. eigenvalues --   -0.40252  -0.39974  -0.39802  -0.39772  -0.39550
 Alpha  occ. eigenvalues --   -0.39067  -0.38719  -0.38522  -0.38240  -0.38090
 Alpha  occ. eigenvalues --   -0.37571  -0.37301  -0.37021  -0.36876  -0.36276
 Alpha  occ. eigenvalues --   -0.35546  -0.34898  -0.33697  -0.32512  -0.31981
 Alpha  occ. eigenvalues --   -0.30884  -0.29830  -0.28147  -0.25470  -0.22858
 Alpha  occ. eigenvalues --   -0.18461
 Alpha virt. eigenvalues --   -0.06701  -0.01355   0.01643   0.05188   0.07174
 Alpha virt. eigenvalues --    0.07649   0.09457   0.11059   0.11355   0.11488
 Alpha virt. eigenvalues --    0.11544   0.12135   0.12786   0.12910   0.13100

 Mulliken charges:
               1
     1  O   -0.562505
     2  O   -0.563868
     3  C   -0.027191
     4  C   -0.067745
     5  C   -0.183820
     6  C   -0.152927
     7  C    0.173958
     8  C    0.159899
     9  C    0.041867
    10  C    0.143169
    11  C   -0.204718
    12  C   -0.218942
    13  C    0.051846
    14  C    0.019190
    15  C   -0.301009
    16  C   -0.293649
    17  C   -0.270979
    18  C   -0.298693
    19  C   -0.144227
    20  C   -0.165118
    21  C   -0.361949
    22  C   -0.341867
    23  C    0.093635
    24  C   -0.093313
    25  C    0.035387
    26  C    0.136164
    27  C   -0.360948
    28  C   -0.389612
    29  C   -0.092564
    30  C   -0.118216
    31  C   -0.092829
    32  C   -0.104877
    33  C   -0.103066
    34  C   -0.120477
    35  C    0.080766
    36  C    0.071953
    37  C   -0.344934
    38  C   -0.354605
    39  C   -0.108379
    40  C   -0.086128
    41  C   -0.099568
    42  C   -0.068028
    43  H    0.110799
    44  H    0.057050
    45  H    0.087842
    46  H    0.113487
    47  H    0.079855
    48  H    0.067637
    49  H    0.112292
    50  H    0.099024
    51  H    0.106343
    52  H    0.124724
    53  H    0.107414
    54  H    0.088369
    55  H    0.114444
    56  H    0.111622
    57  H    0.104576
    58  H    0.080158
    59  H    0.081110
    60  H    0.110938
    61  H    0.073842
    62  H    0.067323
    63  H    0.105433
    64  H    0.121821
    65  H    0.095752
    66  H    0.068717
    67  H    0.084866
    68  H    0.136079
    69  H    0.105145
    70  H    0.090340
    71  H    0.134551
    72  H    0.085780
    73  H    0.301609
    74  H    0.295329
    75  H   -0.033025
    76  H    0.069062
    77  H    0.087660
    78  H    0.095605
    79  H    0.126566
    80  H    0.137663
    81  H    0.138690
    82  H    0.091815
    83  H    0.065905
    84  H    0.075373
    85  H    0.091128
    86  H    0.085331
    87  H    0.089021
    88  H    0.076966
    89  H    0.115824
    90  H    0.074871
    91  H    0.132614
    92  H    0.115721
    93  H    0.119085
    94  H    0.114681
    95  H    0.078065
    96  H    0.074344
    97  H    0.078392
    98  H    0.063291
 Sum of Mulliken charges =  -0.00000

 Dipole moment (field-independent basis, Debye):
    X=             -0.0716    Y=             -1.9363    Z=              0.8683  Tot=              2.1233
 Quadrupole moment (field-independent basis, Debye-Ang):
   XX=           -295.0672   YY=           -243.7551   ZZ=           -260.6802
   XY=             16.0477   XZ=             -4.3530   YZ=              2.7582

 Normal termination of Gaussian 16 at Wed Jul 17 17:24:46 2019.
