 Gaussian 16, Revision A.03,
 Gaussian 16:  ES64L-G16RevA.03 25-Dec-2016

 -------------------------------------
 # td=(NStates=1) CAM-B3LYP/6-31G(d,p)
 -------------------------------------

 --
 TD
 --
 Symbolic Z-matrix:
 Charge =  0 Multiplicity = 1

                         Standard orientation:
 ---------------------------------------------------------------------
 Center     Atomic      Atomic             Coordinates (Angstroms)
 Number     Number       Type             X           Y           Z
 ---------------------------------------------------------------------
      1          8           0       14.834164   -2.159500   -0.217767
      2          8           0      -14.652257    2.024030    0.804702
      3          6           0       11.210013   -1.402365    0.932060
      4          6           0      -12.386994   -0.894152    0.579982
      5          6           0       12.690163   -1.819201    0.955210
      6          6           0      -13.742048   -0.094430    0.589113
      7          6           0       13.461668   -1.783570   -0.351945
      8          6           0      -13.469231    1.340293    0.835872
      9          6           0       10.968993   -0.159281    0.059517
     10          6           0      -11.310101   -0.206603   -0.233451
     11          6           0       13.291222   -0.432181   -0.994003
     12          6           0      -12.595181    1.901356   -0.313088
     13          6           0       11.910346    0.232277   -0.877135
     14          6           0      -11.458720    1.032512   -0.659960
     15          6           0       10.668325   -1.083907    2.358926
     16          6           0       10.457427   -2.579834    0.334829
     17          6           0      -11.965343   -1.120308    2.107403
     18          6           0      -12.640463   -2.326004    0.084053
     19          6           0        9.636312    0.406723    0.096477
     20          6           0      -10.128078   -1.011836   -0.411664
     21          6           0       11.658340    1.287762   -1.829519
     22          6           0      -10.385487    1.807065   -1.560581
     23          6           0        9.395731    1.754113    0.096315
     24          6           0       -8.780609   -0.597411   -0.300410
     25          6           0        8.015169    2.312095    0.081932
     26          6           0       -7.579842   -1.329323   -0.582731
     27          6           0        7.929027    3.786878    0.373021
     28          6           0       -7.693940   -2.739124   -1.037092
     29          6           0        6.900860    1.502942    0.069885
     30          6           0       -6.363424   -0.681205   -0.375426
     31          6           0        5.518343    1.906013    0.229401
     32          6           0       -5.104519   -1.335592   -0.457402
     33          6           0        4.421602    1.192181    0.009623
     34          6           0       -4.019074   -0.450787   -0.398416
     35          6           0        3.069909    1.593187    0.211657
     36          6           0       -2.597353   -0.883372   -0.415365
     37          6           0        2.820853    2.999805    0.737199
     38          6           0       -2.332064   -2.297807   -0.826904
     39          6           0        2.074696    0.661250   -0.080413
     40          6           0       -1.629863    0.089276   -0.134836
     41          6           0        0.675352    0.861193    0.039162
     42          6           0       -0.218531   -0.189696   -0.248870
     43          1           0       13.203904   -1.322162    1.707266
     44          1           0       12.770460   -2.770283    1.451049
     45          1           0      -14.602638   -0.482391    1.265575
     46          1           0      -14.238903   -0.226011   -0.331777
     47          1           0       12.795844   -2.522417   -0.759227
     48          1           0      -12.766020    1.376780    1.777229
     49          1           0       14.150222    0.132806   -0.671090
     50          1           0       13.672078   -0.571614   -2.226244
     51          1           0      -13.275240    2.100988   -1.120342
     52          1           0      -12.158001    3.006775    0.007838
     53          1           0       10.644895   -2.233614    3.005764
     54          1           0        9.685098   -0.618004    2.343060
     55          1           0       11.374310   -0.591482    2.896901
     56          1           0       10.674192   -2.864682   -0.651605
     57          1           0       10.368849   -3.584149    0.987981
     58          1           0        9.525689   -2.256294    0.250439
     59          1           0      -11.899260   -0.207581    2.539349
     60          1           0      -10.925674   -1.748446    2.209659
     61          1           0      -12.579890   -1.838866    2.646015
     62          1           0      -13.574869   -2.826344    0.598789
     63          1           0      -11.901251   -3.204556    0.164048
     64          1           0      -12.779201   -2.230456   -1.017133
     65          1           0        8.797943   -0.094657    0.328400
     66          1           0      -10.475353   -2.086656   -0.610029
     67          1           0       10.444320    1.554562   -1.875606
     68          1           0       12.241560    2.226815   -1.446549
     69          1           0       12.118952    0.953280   -2.882798
     70          1           0      -10.729871    2.667558   -2.336026
     71          1           0       -9.845181    1.117363   -2.262120
     72          1           0       -9.791073    2.390484   -0.935568
     73          1           0       14.779027   -3.148314    0.130359
     74          1           0      -15.344747    1.429633    1.243400
     75          1           0       10.057283    2.446363    0.094112
     76          1           0       -8.524152    0.495040    0.016718
     77          1           0        8.989296    4.273994    0.317620
     78          1           0        7.166436    4.216907   -0.447422
     79          1           0        7.724007    3.976960    1.339507
     80          1           0       -8.070195   -3.312339   -0.225036
     81          1           0       -8.308289   -2.726233   -1.894998
     82          1           0       -6.730490   -3.087625   -1.388527
     83          1           0        7.035236    0.436320    0.051078
     84          1           0       -6.498721    0.342115   -0.102949
     85          1           0        5.224343    2.812647    0.517191
     86          1           0       -5.011630   -2.484535   -0.352481
     87          1           0        4.633778    0.116486   -0.259731
     88          1           0       -4.083736    0.634211   -0.210357
     89          1           0        3.642227    3.353376    1.629532
     90          1           0        1.781201    2.953311    1.178081
     91          1           0        3.087859    3.627056   -0.064822
     92          1           0       -2.985998   -2.760098   -0.226293
     93          1           0       -2.522678   -2.410451   -1.923215
     94          1           0       -1.266699   -2.538115   -0.695873
     95          1           0        2.427539   -0.219362   -0.557481
     96          1           0       -2.103630    1.260567    0.188144
     97          1           0        0.216367    1.730905    0.404150
     98          1           0        0.064298   -1.075393   -0.663995
 ---------------------------------------------------------------------

 SCF Done:  E(RCAM-B3LYP) =  -1706.97518868     A.U. after   14 cycles

 Excitation energies and oscillator strengths:

 Excited State   1:      Singlet-A      2.3894 eV  518.88 nm  f=3.7477  <S**2>=0.000
     155 ->158        -0.18217
     156 ->157         0.67798
 This state for optimization and/or second-order correction.
 Total Energy, E(TD-HF/TD-DFT) =  -1706.88737816
 Copying the excited state density for this state as the 1-particle RhoCI density.

 The electronic state is 1-A.
 Alpha  occ. eigenvalues --  -19.22625 -19.22095 -10.30469 -10.29868 -10.28314
 Alpha  occ. eigenvalues --  -10.28111 -10.27650 -10.27468 -10.27441 -10.27429
 Alpha  occ. eigenvalues --  -10.27397 -10.27298 -10.27192 -10.27180 -10.27123
 Alpha  occ. eigenvalues --  -10.27004 -10.26869 -10.26624 -10.26609 -10.26536
 Alpha  occ. eigenvalues --  -10.26514 -10.26381 -10.26368 -10.26321 -10.26190
 Alpha  occ. eigenvalues --  -10.26183 -10.25831 -10.25802 -10.25750 -10.25728
 Alpha  occ. eigenvalues --  -10.25684 -10.25493 -10.25482 -10.25473 -10.25395
 Alpha  occ. eigenvalues --  -10.25318 -10.25184 -10.24576 -10.24436 -10.24207
 Alpha  occ. eigenvalues --  -10.23731 -10.23217  -1.11160  -1.08424  -0.93885
 Alpha  occ. eigenvalues --   -0.93696  -0.92143  -0.91542  -0.90507  -0.89877
 Alpha  occ. eigenvalues --   -0.87499  -0.86924  -0.86072  -0.85468  -0.84791
 Alpha  occ. eigenvalues --   -0.83421  -0.82304  -0.80631  -0.78880  -0.78483
 Alpha  occ. eigenvalues --   -0.76915  -0.76851  -0.76183  -0.75701  -0.75594
 Alpha  occ. eigenvalues --   -0.75369  -0.75254  -0.75107  -0.73675  -0.70660
 Alpha  occ. eigenvalues --   -0.69038  -0.67766  -0.65575  -0.65486  -0.64381
 Alpha  occ. eigenvalues --   -0.63876  -0.63207  -0.62402  -0.60848  -0.60275
 Alpha  occ. eigenvalues --   -0.59761  -0.59070  -0.58636  -0.56871  -0.56010
 Alpha  occ. eigenvalues --   -0.55753  -0.55176  -0.54734  -0.54030  -0.53763
 Alpha  occ. eigenvalues --   -0.53103  -0.52559  -0.51785  -0.51546  -0.50912
 Alpha  occ. eigenvalues --   -0.50660  -0.50448  -0.50177  -0.49990  -0.49805
 Alpha  occ. eigenvalues --   -0.49427  -0.49220  -0.48987  -0.48575  -0.48441
 Alpha  occ. eigenvalues --   -0.48223  -0.47853  -0.47281  -0.46448  -0.46341
 Alpha  occ. eigenvalues --   -0.46298  -0.45869  -0.45655  -0.45333  -0.45019
 Alpha  occ. eigenvalues --   -0.44821  -0.44059  -0.43927  -0.43770  -0.43502
 Alpha  occ. eigenvalues --   -0.43285  -0.42803  -0.42652  -0.42047  -0.41870
 Alpha  occ. eigenvalues --   -0.41689  -0.41355  -0.40971  -0.40918  -0.40752
 Alpha  occ. eigenvalues --   -0.40551  -0.40002  -0.39982  -0.39764  -0.39392
 Alpha  occ. eigenvalues --   -0.39113  -0.38955  -0.38730  -0.38581  -0.38349
 Alpha  occ. eigenvalues --   -0.37556  -0.37488  -0.36906  -0.36391  -0.36214
 Alpha  occ. eigenvalues --   -0.34979  -0.34853  -0.34089  -0.32215  -0.31997
 Alpha  occ. eigenvalues --   -0.31254  -0.29948  -0.28542  -0.25780  -0.23156
 Alpha  occ. eigenvalues --   -0.19883
 Alpha virt. eigenvalues --   -0.05092  -0.01295   0.01784   0.05535   0.07503
 Alpha virt. eigenvalues --    0.09623   0.10517   0.10708   0.11269   0.11825
 Alpha virt. eigenvalues --    0.12305   0.12719   0.12824   0.13475   0.13891

 Mulliken charges:
               1
     1  O   -0.562170
     2  O   -0.554731
     3  C   -0.028682
     4  C   -0.022873
     5  C   -0.208325
     6  C   -0.205329
     7  C    0.182642
     8  C    0.200890
     9  C    0.075811
    10  C    0.089767
    11  C   -0.213341
    12  C   -0.221789
    13  C    0.080318
    14  C    0.046244
    15  C   -0.285339
    16  C   -0.287631
    17  C   -0.285657
    18  C   -0.326020
    19  C   -0.108703
    20  C   -0.143060
    21  C   -0.361400
    22  C   -0.361485
    23  C   -0.082639
    24  C   -0.109764
    25  C    0.068802
    26  C    0.097905
    27  C   -0.362842
    28  C   -0.364046
    29  C   -0.121280
    30  C   -0.110246
    31  C   -0.068595
    32  C   -0.121686
    33  C   -0.102498
    34  C   -0.097850
    35  C    0.094947
    36  C    0.066387
    37  C   -0.363947
    38  C   -0.348043
    39  C   -0.119207
    40  C   -0.126220
    41  C   -0.083192
    42  C   -0.081292
    43  H    0.089391
    44  H    0.072987
    45  H    0.066008
    46  H    0.108841
    47  H    0.084521
    48  H    0.060726
    49  H    0.132877
    50  H    0.062291
    51  H    0.125292
    52  H    0.084463
    53  H    0.042386
    54  H    0.114860
    55  H    0.123749
    56  H    0.110734
    57  H    0.079121
    58  H    0.104484
    59  H    0.107849
    60  H    0.078715
    61  H    0.102213
    62  H    0.087404
    63  H    0.103691
    64  H    0.101085
    65  H    0.086066
    66  H    0.084397
    67  H    0.109102
    68  H    0.107310
    69  H    0.093800
    70  H    0.080762
    71  H    0.120856
    72  H    0.128272
    73  H    0.314377
    74  H    0.308092
    75  H    0.069647
    76  H    0.077178
    77  H    0.090597
    78  H    0.111133
    79  H    0.145304
    80  H    0.127390
    81  H    0.127528
    82  H    0.102216
    83  H    0.077091
    84  H    0.082147
    85  H    0.048834
    86  H    0.111454
    87  H    0.062079
    88  H    0.087672
    89  H    0.090693
    90  H    0.115180
    91  H    0.146110
    92  H    0.130047
    93  H    0.128645
    94  H    0.104454
    95  H    0.085688
    96  H    0.064365
    97  H    0.086397
    98  H    0.087599
 Sum of Mulliken charges =  -0.00000

 Dipole moment (field-independent basis, Debye):
    X=             -1.3716    Y=             -2.0914    Z=              0.9686  Tot=              2.6820
 Quadrupole moment (field-independent basis, Debye-Ang):
   XX=           -282.6674   YY=           -244.6089   ZZ=           -265.5554
   XY=             15.9922   XZ=              2.2541   YZ=              2.0803

 Normal termination of Gaussian 16 at Tue Jul  9 02:31:08 2019.
