 Gaussian 16, Revision A.03,
 Gaussian 16:  ES64L-G16RevA.03 25-Dec-2016

 -------------------------------------
 # td=(NStates=1) CAM-B3LYP/6-31G(d,p)
 -------------------------------------

 --
 TD
 --
 Symbolic Z-matrix:
 Charge =  0 Multiplicity = 1

                         Standard orientation:
 ---------------------------------------------------------------------
 Center     Atomic      Atomic             Coordinates (Angstroms)
 Number     Number       Type             X           Y           Z
 ---------------------------------------------------------------------
      1          8           0       14.688169   -2.291517   -0.222237
      2          8           0      -14.730453    1.862660    1.319060
      3          6           0       11.205677   -1.322125    1.091970
      4          6           0      -12.372963   -1.092963    0.532941
      5          6           0       12.697857   -1.731146    1.244030
      6          6           0      -13.699311   -0.318216    0.618689
      7          6           0       13.345466   -1.871269   -0.202696
      8          6           0      -13.494482    1.123909    1.140242
      9          6           0       10.998162   -0.196933    0.013049
     10          6           0      -11.282836   -0.199299   -0.099032
     11          6           0       13.204202   -0.612655   -0.937902
     12          6           0      -12.771989    1.883178   -0.044034
     13          6           0       11.851956    0.013893   -0.972973
     14          6           0      -11.541620    1.083702   -0.473530
     15          6           0       10.924260   -0.766904    2.570316
     16          6           0       10.242993   -2.558962    0.896345
     17          6           0      -11.794859   -1.393072    1.922861
     18          6           0      -12.619925   -2.367692   -0.234098
     19          6           0        9.633232    0.372153    0.223672
     20          6           0      -10.095614   -0.918648   -0.407474
     21          6           0       11.684645    1.120772   -2.049577
     22          6           0      -10.488572    1.915941   -1.323241
     23          6           0        9.359959    1.669239   -0.050255
     24          6           0       -8.828946   -0.464284   -0.411079
     25          6           0        8.045568    2.209248   -0.063701
     26          6           0       -7.564718   -1.189476   -0.632921
     27          6           0        7.987835    3.670441    0.247282
     28          6           0       -7.710072   -2.559476   -1.176408
     29          6           0        6.957312    1.435560   -0.124016
     30          6           0       -6.369513   -0.584262   -0.471105
     31          6           0        5.637523    1.949224    0.018541
     32          6           0       -5.067114   -1.035291   -0.548820
     33          6           0        4.409205    1.265241   -0.137659
     34          6           0       -3.858854   -0.309092   -0.434903
     35          6           0        3.127829    1.570433    0.004114
     36          6           0       -2.655519   -0.772774   -0.697718
     37          6           0        2.860310    3.005964    0.689054
     38          6           0       -2.397451   -2.191166   -1.106814
     39          6           0        2.096762    0.674684   -0.074925
     40          6           0       -1.587390    0.105629   -0.337034
     41          6           0        0.738177    0.935593   -0.024937
     42          6           0       -0.209367   -0.094471   -0.250829
     43          1           0       13.334179   -0.971657    1.833788
     44          1           0       12.782681   -2.847614    1.617562
     45          1           0      -14.439195   -0.816739    1.495380
     46          1           0      -14.104045   -0.295436   -0.542657
     47          1           0       12.814969   -2.607593   -0.874097
     48          1           0      -12.793687    1.096410    1.993074
     49          1           0       13.954406    0.151014   -0.383797
     50          1           0       13.532563   -0.819533   -1.917722
     51          1           0      -13.160111    1.905204   -0.924995
     52          1           0      -12.506092    3.012610    0.142319
     53          1           0       11.347404   -1.468654    3.393788
     54          1           0        9.796409   -0.758065    2.872775
     55          1           0       11.166671    0.275726    2.697579
     56          1           0       10.643921   -3.119279    0.024159
     57          1           0       10.671445   -3.122184    1.832607
     58          1           0        9.220457   -2.367737    1.221129
     59          1           0      -11.677236   -0.510046    2.435470
     60          1           0      -10.927313   -1.647016    2.103702
     61          1           0      -12.521753   -1.947759    2.537114
     62          1           0      -13.689555   -2.649648    0.196159
     63          1           0      -11.780263   -2.839936   -0.072606
     64          1           0      -12.645151   -2.213976   -1.354415
     65          1           0        9.029350   -0.465989    0.722829
     66          1           0       -9.995197   -2.011953   -0.764212
     67          1           0       10.501855    1.095968   -2.390585
     68          1           0       11.923164    2.273633   -1.904830
     69          1           0       12.233109    0.799568   -2.920167
     70          1           0      -10.993125    2.700678   -1.852941
     71          1           0       -9.782885    1.209159   -2.013313
     72          1           0       -9.874911    2.361176   -0.697442
     73          1           0       14.502952   -3.161840    0.143394
     74          1           0      -15.307045    1.397150    1.821893
     75          1           0       10.051572    2.381973   -0.178191
     76          1           0       -8.710084    0.623307    0.035396
     77          1           0        8.830170    4.372611   -0.051939
     78          1           0        7.245374    4.267096   -0.356427
     79          1           0        7.894119    3.882494    1.383327
     80          1           0       -8.374190   -3.397585   -0.569536
     81          1           0       -8.412713   -2.562464   -2.097455
     82          1           0       -6.773495   -3.018664   -1.492107
     83          1           0        6.965462    0.290649   -0.518795
     84          1           0       -6.389218    0.359600   -0.066957
     85          1           0        5.437633    3.004795    0.431335
     86          1           0       -5.053151   -2.061384   -1.089373
     87          1           0        4.612324    0.082172   -0.422746
     88          1           0       -3.918566    0.731217    0.108148
     89          1           0        3.444951    3.070044    1.460541
     90          1           0        1.726371    3.168190    0.837006
     91          1           0        2.975020    3.945641   -0.031867
     92          1           0       -2.653119   -3.094119   -0.155130
     93          1           0       -3.311829   -2.405748   -1.995033
     94          1           0       -1.238438   -2.113110   -1.673338
     95          1           0        2.442963   -0.252609   -0.153570
     96          1           0       -1.836969    0.997189    0.038437
     97          1           0        0.254383    1.925715    0.345674
     98          1           0        0.284838   -1.129564   -0.585472
 ---------------------------------------------------------------------

 SCF Done:  E(RCAM-B3LYP) =  -1706.82196480     A.U. after   15 cycles

 Excitation energies and oscillator strengths:

 Excited State   1:      Singlet-A      1.8733 eV  661.84 nm  f=3.8398  <S**2>=0.000
     155 ->158        -0.12877
     156 ->157         0.70121
     156 <-157        -0.11836
 This state for optimization and/or second-order correction.
 Total Energy, E(TD-HF/TD-DFT) =  -1706.75312124
 Copying the excited state density for this state as the 1-particle RhoCI density.

 The electronic state is 1-A.
 Alpha  occ. eigenvalues --  -19.21678 -19.20583 -10.31452 -10.30988 -10.30333
 Alpha  occ. eigenvalues --  -10.28658 -10.28063 -10.28056 -10.27816 -10.27511
 Alpha  occ. eigenvalues --  -10.27478 -10.27316 -10.27204 -10.27203 -10.27102
 Alpha  occ. eigenvalues --  -10.27083 -10.27046 -10.27011 -10.26973 -10.26927
 Alpha  occ. eigenvalues --  -10.26925 -10.26895 -10.26847 -10.26840 -10.26802
 Alpha  occ. eigenvalues --  -10.26672 -10.26671 -10.26312 -10.26079 -10.26074
 Alpha  occ. eigenvalues --  -10.26069 -10.25919 -10.25839 -10.25543 -10.25386
 Alpha  occ. eigenvalues --  -10.25147 -10.25133 -10.25055 -10.24907 -10.24609
 Alpha  occ. eigenvalues --  -10.24268 -10.21843  -1.11170  -1.09715  -0.93992
 Alpha  occ. eigenvalues --   -0.93512  -0.92973  -0.92338  -0.91376  -0.90707
 Alpha  occ. eigenvalues --   -0.87519  -0.87046  -0.86798  -0.85790  -0.85006
 Alpha  occ. eigenvalues --   -0.82988  -0.81721  -0.79905  -0.79295  -0.78702
 Alpha  occ. eigenvalues --   -0.78440  -0.76330  -0.76026  -0.75799  -0.75557
 Alpha  occ. eigenvalues --   -0.75356  -0.75183  -0.74723  -0.73712  -0.71433
 Alpha  occ. eigenvalues --   -0.69553  -0.68449  -0.66693  -0.64412  -0.64285
 Alpha  occ. eigenvalues --   -0.63601  -0.62887  -0.61624  -0.59838  -0.59396
 Alpha  occ. eigenvalues --   -0.58784  -0.58459  -0.58234  -0.57988  -0.56511
 Alpha  occ. eigenvalues --   -0.56240  -0.55821  -0.55092  -0.54407  -0.53770
 Alpha  occ. eigenvalues --   -0.53179  -0.52730  -0.51927  -0.51810  -0.51006
 Alpha  occ. eigenvalues --   -0.50361  -0.50061  -0.49829  -0.49643  -0.49539
 Alpha  occ. eigenvalues --   -0.48983  -0.48626  -0.48324  -0.48126  -0.47693
 Alpha  occ. eigenvalues --   -0.47117  -0.46635  -0.46464  -0.46370  -0.46099
 Alpha  occ. eigenvalues --   -0.45827  -0.45468  -0.45341  -0.45312  -0.45073
 Alpha  occ. eigenvalues --   -0.44741  -0.44533  -0.43984  -0.43817  -0.43449
 Alpha  occ. eigenvalues --   -0.43150  -0.42608  -0.42489  -0.42406  -0.41781
 Alpha  occ. eigenvalues --   -0.41497  -0.41421  -0.41221  -0.40997  -0.40659
 Alpha  occ. eigenvalues --   -0.40084  -0.39858  -0.39727  -0.39663  -0.39369
 Alpha  occ. eigenvalues --   -0.39097  -0.38976  -0.38711  -0.38300  -0.37663
 Alpha  occ. eigenvalues --   -0.37333  -0.37077  -0.37045  -0.36330  -0.36143
 Alpha  occ. eigenvalues --   -0.35323  -0.34385  -0.33865  -0.32919  -0.32453
 Alpha  occ. eigenvalues --   -0.31857  -0.30798  -0.28522  -0.26596  -0.23823
 Alpha  occ. eigenvalues --   -0.18783
 Alpha virt. eigenvalues --   -0.07546  -0.01489   0.02264   0.05221   0.07954
 Alpha virt. eigenvalues --    0.09297   0.09975   0.11021   0.11560   0.11829
 Alpha virt. eigenvalues --    0.12044   0.12440   0.12897   0.13369   0.13836

 Mulliken charges:
               1
     1  O   -0.536187
     2  O   -0.552539
     3  C   -0.037398
     4  C   -0.021044
     5  C   -0.187182
     6  C   -0.201297
     7  C    0.130674
     8  C    0.176133
     9  C    0.082938
    10  C    0.069187
    11  C   -0.198073
    12  C   -0.199157
    13  C    0.036913
    14  C   -0.004520
    15  C   -0.314281
    16  C   -0.300285
    17  C   -0.288728
    18  C   -0.273454
    19  C   -0.091545
    20  C   -0.115470
    21  C   -0.352817
    22  C   -0.356063
    23  C   -0.092289
    24  C   -0.123831
    25  C    0.111796
    26  C    0.150623
    27  C   -0.388891
    28  C   -0.399398
    29  C   -0.120280
    30  C   -0.109264
    31  C   -0.094956
    32  C   -0.114759
    33  C   -0.133837
    34  C   -0.106061
    35  C    0.126566
    36  C    0.156488
    37  C   -0.363255
    38  C   -0.323138
    39  C   -0.098449
    40  C   -0.112754
    41  C   -0.082282
    42  C   -0.096146
    43  H    0.114767
    44  H    0.063451
    45  H    0.052736
    46  H    0.095598
    47  H    0.064798
    48  H    0.098146
    49  H    0.096416
    50  H    0.107841
    51  H    0.135307
    52  H    0.097352
    53  H    0.099179
    54  H    0.074872
    55  H    0.119199
    56  H    0.115725
    57  H    0.088883
    58  H    0.124945
    59  H    0.098450
    60  H    0.112747
    61  H    0.084785
    62  H    0.094533
    63  H    0.114465
    64  H    0.095211
    65  H    0.092156
    66  H    0.070670
    67  H    0.098872
    68  H    0.108979
    69  H    0.107634
    70  H    0.097426
    71  H    0.108408
    72  H    0.136201
    73  H    0.305942
    74  H    0.290684
    75  H    0.086004
    76  H    0.068314
    77  H    0.104624
    78  H    0.116109
    79  H    0.123038
    80  H    0.099979
    81  H    0.117417
    82  H    0.114589
    83  H    0.089019
    84  H    0.068405
    85  H    0.084508
    86  H    0.058729
    87  H    0.043274
    88  H    0.081953
    89  H    0.138262
    90  H    0.095622
    91  H    0.095261
    92  H    0.102128
    93  H    0.084817
    94  H    0.092524
    95  H    0.079936
    96  H    0.071845
    97  H    0.090989
    98  H    0.074590
 Sum of Mulliken charges =  -0.00000

 Dipole moment (field-independent basis, Debye):
    X=              0.7954    Y=             -0.9150    Z=              1.5803  Tot=              1.9918
 Quadrupole moment (field-independent basis, Debye-Ang):
   XX=           -288.7116   YY=           -246.8423   ZZ=           -261.6641
   XY=             11.8590   XZ=              0.3280   YZ=              0.5479

 Normal termination of Gaussian 16 at Wed Jul 10 23:03:07 2019.
