 Gaussian 16, Revision A.03,
 Gaussian 16:  ES64L-G16RevA.03 25-Dec-2016

 -------------------------------------
 # td=(NStates=1) CAM-B3LYP/6-31G(d,p)
 -------------------------------------

 --
 TD
 --
 Symbolic Z-matrix:
 Charge =  0 Multiplicity = 1

                         Standard orientation:
 ---------------------------------------------------------------------
 Center     Atomic      Atomic             Coordinates (Angstroms)
 Number     Number       Type             X           Y           Z
 ---------------------------------------------------------------------
      1          8           0       14.690745   -2.182779   -0.165881
      2          8           0      -15.046672    1.448642    0.951834
      3          6           0       11.232906   -1.526394    1.012436
      4          6           0      -12.370447   -1.176587    0.457566
      5          6           0       12.653738   -1.922239    1.034584
      6          6           0      -13.713332   -0.436229    0.716520
      7          6           0       13.304839   -2.023669   -0.391363
      8          6           0      -13.666344    0.978346    1.027135
      9          6           0       10.948386   -0.365384   -0.005077
     10          6           0      -11.345582   -0.253192   -0.131992
     11          6           0       13.223777   -0.664168   -1.002276
     12          6           0      -12.891432    1.757867   -0.096280
     13          6           0       11.899704   -0.066752   -0.997834
     14          6           0      -11.587985    0.974460   -0.478057
     15          6           0       10.808471   -1.064956    2.424303
     16          6           0       10.258346   -2.690356    0.652550
     17          6           0      -11.782606   -1.381129    1.930479
     18          6           0      -12.527987   -2.462540   -0.334177
     19          6           0        9.715694    0.284549    0.278584
     20          6           0      -10.019571   -0.929615   -0.368990
     21          6           0       11.542708    0.951805   -2.127319
     22          6           0      -10.592548    1.842049   -1.264384
     23          6           0        9.428851    1.617699   -0.039195
     24          6           0       -8.810991   -0.310017   -0.346334
     25          6           0        8.214374    2.183044    0.115510
     26          6           0       -7.620857   -1.043633   -0.718038
     27          6           0        8.133175    3.661749    0.375440
     28          6           0       -7.691359   -2.529746   -1.118881
     29          6           0        6.934144    1.563220   -0.037401
     30          6           0       -6.334531   -0.425753   -0.564966
     31          6           0        5.650814    2.120178    0.178554
     32          6           0       -5.107332   -1.038960   -0.639556
     33          6           0        4.478380    1.337531    0.062374
     34          6           0       -3.994247   -0.194007   -0.326608
     35          6           0        3.132075    1.767538    0.199973
     36          6           0       -2.628279   -0.503586   -0.475530
     37          6           0        3.024874    3.181009    0.758426
     38          6           0       -2.313346   -1.944848   -0.879017
     39          6           0        2.134934    0.857857   -0.108596
     40          6           0       -1.512665    0.374851   -0.072828
     41          6           0        0.750089    1.069193    0.123538
     42          6           0       -0.214662    0.185511   -0.216809
     43          1           0       13.194838   -1.281968    1.602168
     44          1           0       12.787241   -2.936960    1.555771
     45          1           0      -14.515453   -1.028060    1.521211
     46          1           0      -14.218178   -0.341648   -0.154032
     47          1           0       12.752209   -2.844079   -0.879541
     48          1           0      -13.205944    1.115050    2.116394
     49          1           0       14.085855   -0.006772   -0.361603
     50          1           0       13.744402   -0.796189   -1.880989
     51          1           0      -13.612744    1.771037   -0.877201
     52          1           0      -12.573174    2.668889    0.206122
     53          1           0       11.080779   -1.829180    3.018912
     54          1           0        9.783428   -0.867228    2.661176
     55          1           0       11.239991   -0.033129    2.652881
     56          1           0       10.496100   -3.085752   -0.372186
     57          1           0       10.380746   -3.498822    1.266293
     58          1           0        9.333433   -2.424513    0.741407
     59          1           0      -11.841226   -0.289683    2.321503
     60          1           0      -10.720772   -1.830189    1.883714
     61          1           0      -12.364242   -2.172088    2.495275
     62          1           0      -13.415588   -3.025322   -0.203250
     63          1           0      -11.736787   -3.000844   -0.360860
     64          1           0      -12.641122   -1.832181   -1.428267
     65          1           0        8.996891   -0.239342    0.662185
     66          1           0      -10.001461   -1.935345   -0.522993
     67          1           0       10.477482    1.006441   -2.295240
     68          1           0       12.116121    2.065952   -2.114927
     69          1           0       11.799089    0.650015   -3.241097
     70          1           0      -11.084140    2.659744   -2.068943
     71          1           0       -9.865836    1.174543   -1.965817
     72          1           0      -10.014882    2.604448   -0.584258
     73          1           0       15.039757   -2.901633    0.342316
     74          1           0      -15.838582    0.743520    1.308462
     75          1           0       10.028857    2.460128   -0.181405
     76          1           0       -8.486921    0.588441   -0.163861
     77          1           0        9.145426    4.245204    0.031490
     78          1           0        7.444051    4.409779   -0.187631
     79          1           0        8.153610    3.913655    1.369329
     80          1           0       -8.104021   -3.054427   -0.185347
     81          1           0       -8.578178   -2.566090   -1.778842
     82          1           0       -6.637307   -2.803184   -1.472053
     83          1           0        7.149863    0.544054   -0.266844
     84          1           0       -6.217568    0.629407   -0.238408
     85          1           0        5.726858    3.164373    0.406667
     86          1           0       -5.054875   -2.109590   -0.916036
     87          1           0        4.580622    0.372092   -0.465498
     88          1           0       -4.039679    0.867986   -0.012001
     89          1           0        3.502112    3.179945    1.622936
     90          1           0        2.049728    3.556945    0.739150
     91          1           0        3.802313    3.758292    0.217981
     92          1           0       -2.850525   -2.498630   -0.083940
     93          1           0       -2.869436   -2.122024   -1.931066
     94          1           0       -1.326959   -2.211903   -0.676335
     95          1           0        2.468786   -0.039730   -0.468558
     96          1           0       -1.779263    1.446188   -0.089101
     97          1           0        0.484964    2.091018    0.463590
     98          1           0        0.131682   -0.735715   -0.705200
 ---------------------------------------------------------------------

 SCF Done:  E(RCAM-B3LYP) =  -1706.89091403     A.U. after   16 cycles

 Excitation energies and oscillator strengths:

 Excited State   1:      Singlet-A      1.7862 eV  694.12 nm  f=3.9435  <S**2>=0.000
     155 ->158         0.15719
     156 ->157         0.69304
     156 <-157        -0.10775
 This state for optimization and/or second-order correction.
 Total Energy, E(TD-HF/TD-DFT) =  -1706.82527245
 Copying the excited state density for this state as the 1-particle RhoCI density.

 The electronic state is 1-A.
 Alpha  occ. eigenvalues --  -19.21538 -19.20578 -10.31271 -10.30561 -10.28092
 Alpha  occ. eigenvalues --  -10.27891 -10.27629 -10.27529 -10.27454 -10.27442
 Alpha  occ. eigenvalues --  -10.27161 -10.27079 -10.26979 -10.26697 -10.26694
 Alpha  occ. eigenvalues --  -10.26686 -10.26607 -10.26536 -10.26340 -10.26312
 Alpha  occ. eigenvalues --  -10.26273 -10.26093 -10.26080 -10.25962 -10.25945
 Alpha  occ. eigenvalues --  -10.25836 -10.25679 -10.25657 -10.25642 -10.25562
 Alpha  occ. eigenvalues --  -10.25522 -10.25447 -10.25233 -10.25192 -10.25145
 Alpha  occ. eigenvalues --  -10.25075 -10.25075 -10.24997 -10.24210 -10.23652
 Alpha  occ. eigenvalues --  -10.23312 -10.22784  -1.09459  -1.05972  -0.94222
 Alpha  occ. eigenvalues --   -0.93604  -0.92376  -0.91699  -0.91166  -0.90185
 Alpha  occ. eigenvalues --   -0.88124  -0.86827  -0.86329  -0.85732  -0.85019
 Alpha  occ. eigenvalues --   -0.83406  -0.82524  -0.80128  -0.79407  -0.79129
 Alpha  occ. eigenvalues --   -0.77297  -0.77252  -0.76346  -0.75993  -0.75966
 Alpha  occ. eigenvalues --   -0.75371  -0.75128  -0.74782  -0.73014  -0.71564
 Alpha  occ. eigenvalues --   -0.70611  -0.67234  -0.66237  -0.65758  -0.64759
 Alpha  occ. eigenvalues --   -0.63937  -0.63283  -0.62409  -0.60897  -0.60175
 Alpha  occ. eigenvalues --   -0.59997  -0.59042  -0.58524  -0.57642  -0.56597
 Alpha  occ. eigenvalues --   -0.56376  -0.55861  -0.55524  -0.54660  -0.54043
 Alpha  occ. eigenvalues --   -0.53284  -0.53049  -0.52075  -0.51355  -0.50304
 Alpha  occ. eigenvalues --   -0.50127  -0.49924  -0.49835  -0.49774  -0.49527
 Alpha  occ. eigenvalues --   -0.49448  -0.49294  -0.48680  -0.48260  -0.48097
 Alpha  occ. eigenvalues --   -0.47707  -0.47457  -0.47358  -0.46947  -0.46556
 Alpha  occ. eigenvalues --   -0.46236  -0.46020  -0.45965  -0.45330  -0.44898
 Alpha  occ. eigenvalues --   -0.44787  -0.44742  -0.44547  -0.44038  -0.43680
 Alpha  occ. eigenvalues --   -0.43362  -0.42941  -0.42699  -0.42435  -0.42130
 Alpha  occ. eigenvalues --   -0.41879  -0.41719  -0.41035  -0.40931  -0.40658
 Alpha  occ. eigenvalues --   -0.40248  -0.40016  -0.39669  -0.39553  -0.39353
 Alpha  occ. eigenvalues --   -0.38843  -0.38559  -0.38304  -0.38270  -0.37804
 Alpha  occ. eigenvalues --   -0.37332  -0.37122  -0.36734  -0.36239  -0.35686
 Alpha  occ. eigenvalues --   -0.35038  -0.34607  -0.34048  -0.32433  -0.31927
 Alpha  occ. eigenvalues --   -0.31588  -0.30069  -0.28409  -0.26136  -0.22308
 Alpha  occ. eigenvalues --   -0.18252
 Alpha virt. eigenvalues --   -0.07205  -0.02603   0.02120   0.05192   0.08171
 Alpha virt. eigenvalues --    0.09123   0.09804   0.11189   0.11979   0.12339
 Alpha virt. eigenvalues --    0.13159   0.13261   0.13736   0.13887   0.14447

 Mulliken charges:
               1
     1  O   -0.572252
     2  O   -0.589604
     3  C   -0.031285
     4  C   -0.045436
     5  C   -0.186491
     6  C   -0.169097
     7  C    0.174945
     8  C    0.177172
     9  C    0.078829
    10  C    0.112174
    11  C   -0.207537
    12  C   -0.202916
    13  C    0.058340
    14  C    0.018709
    15  C   -0.308405
    16  C   -0.293655
    17  C   -0.284897
    18  C   -0.284125
    19  C   -0.113353
    20  C   -0.145112
    21  C   -0.355997
    22  C   -0.362268
    23  C   -0.072226
    24  C   -0.006124
    25  C    0.066975
    26  C    0.040413
    27  C   -0.402889
    28  C   -0.362543
    29  C   -0.103340
    30  C   -0.117257
    31  C   -0.090840
    32  C   -0.083453
    33  C   -0.132639
    34  C   -0.121442
    35  C    0.108299
    36  C    0.066065
    37  C   -0.364212
    38  C   -0.363878
    39  C   -0.117339
    40  C   -0.143499
    41  C   -0.089178
    42  C   -0.051415
    43  H    0.108827
    44  H    0.056831
    45  H    0.045599
    46  H    0.106805
    47  H    0.087092
    48  H    0.067944
    49  H    0.101579
    50  H    0.117299
    51  H    0.133470
    52  H    0.122505
    53  H    0.103085
    54  H    0.101662
    55  H    0.098282
    56  H    0.090327
    57  H    0.101995
    58  H    0.109329
    59  H    0.096747
    60  H    0.090227
    61  H    0.087580
    62  H    0.114751
    63  H    0.114850
    64  H    0.071269
    65  H    0.083902
    66  H    0.072670
    67  H    0.130389
    68  H    0.085312
    69  H    0.084558
    70  H    0.078045
    71  H    0.115164
    72  H    0.105981
    73  H    0.302107
    74  H    0.306291
    75  H    0.089973
    76  H    0.070529
    77  H    0.072651
    78  H    0.112225
    79  H    0.141812
    80  H    0.120977
    81  H    0.125775
    82  H    0.104775
    83  H    0.064235
    84  H    0.083460
    85  H    0.088859
    86  H    0.099142
    87  H    0.086498
    88  H    0.084630
    89  H    0.142966
    90  H    0.110264
    91  H    0.118691
    92  H    0.121493
    93  H    0.110991
    94  H    0.113223
    95  H    0.076060
    96  H    0.079761
    97  H    0.077278
    98  H    0.084040
 Sum of Mulliken charges =  -0.00000

 Dipole moment (field-independent basis, Debye):
    X=             -0.3072    Y=             -2.2846    Z=              0.7843  Tot=              2.4349
 Quadrupole moment (field-independent basis, Debye-Ang):
   XX=           -263.9117   YY=           -242.2408   ZZ=           -265.4491
   XY=             10.8929   XZ=              8.0060   YZ=             -0.3911

 Normal termination of Gaussian 16 at Wed Jul 10 11:08:01 2019.
