 Gaussian 16, Revision A.03,
 Gaussian 16:  ES64L-G16RevA.03 25-Dec-2016

 -------------------------------------
 # td=(NStates=1) CAM-B3LYP/6-31G(d,p)
 -------------------------------------

 --
 TD
 --
 Symbolic Z-matrix:
 Charge =  0 Multiplicity = 1

                         Standard orientation:
 ---------------------------------------------------------------------
 Center     Atomic      Atomic             Coordinates (Angstroms)
 Number     Number       Type             X           Y           Z
 ---------------------------------------------------------------------
      1          8           0       14.761297   -2.158269   -0.228200
      2          8           0      -14.828018    1.806747    1.062224
      3          6           0       11.242721   -1.442089    0.929686
      4          6           0      -12.320628   -1.072446    0.680476
      5          6           0       12.775468   -1.781832    1.123142
      6          6           0      -13.701676   -0.250936    0.739886
      7          6           0       13.423722   -1.829629   -0.332458
      8          6           0      -13.562739    1.204517    0.963785
      9          6           0       11.023806   -0.326373    0.005227
     10          6           0      -11.272599   -0.161569   -0.092966
     11          6           0       13.247537   -0.487650   -1.015604
     12          6           0      -12.863885    1.747898   -0.216134
     13          6           0       11.823771    0.106292   -0.915151
     14          6           0      -11.539119    0.956964   -0.532847
     15          6           0       10.826425   -1.109338    2.414496
     16          6           0       10.401170   -2.728387    0.609344
     17          6           0      -11.659076   -1.366501    2.005759
     18          6           0      -12.636663   -2.372610    0.019608
     19          6           0        9.606072    0.272280    0.157493
     20          6           0       -9.958856   -0.918059   -0.354381
     21          6           0       11.739040    1.296695   -1.812496
     22          6           0      -10.619650    1.911025   -1.492947
     23          6           0        9.262349    1.558329    0.204865
     24          6           0       -8.732851   -0.465899   -0.250242
     25          6           0        7.990815    2.245020    0.232678
     26          6           0       -7.538422   -1.175574   -0.627831
     27          6           0        8.111702    3.710422    0.432582
     28          6           0       -7.711718   -2.518970   -1.184724
     29          6           0        6.895726    1.604992   -0.039060
     30          6           0       -6.380791   -0.530879   -0.440754
     31          6           0        5.550298    2.171819    0.080047
     32          6           0       -5.092439   -1.134641   -0.641968
     33          6           0        4.419091    1.318053   -0.136548
     34          6           0       -3.931246   -0.445877   -0.357749
     35          6           0        3.077275    1.576095    0.068660
     36          6           0       -2.639840   -0.781605   -0.595209
     37          6           0        2.807090    2.932286    0.790136
     38          6           0       -2.343110   -2.108642   -1.189562
     39          6           0        2.033910    0.701192   -0.202752
     40          6           0       -1.589120    0.137232   -0.301454
     41          6           0        0.669743    0.932725    0.047251
     42          6           0       -0.224604    0.017928   -0.449270
     43          1           0       13.235390   -0.869807    1.587725
     44          1           0       12.734964   -2.769176    1.677368
     45          1           0      -14.254700   -0.747001    1.623152
     46          1           0      -14.312847   -0.445061   -0.200480
     47          1           0       12.856524   -2.549524   -0.976243
     48          1           0      -12.900298    1.424002    1.816815
     49          1           0       13.886643    0.120384   -0.320528
     50          1           0       13.721408   -0.265061   -1.977639
     51          1           0      -13.545876    1.899816   -1.035345
     52          1           0      -12.713706    2.765714   -0.034236
     53          1           0       11.268591   -1.762835    3.263507
     54          1           0        9.524813   -1.022802    2.505763
     55          1           0       11.453262   -0.208078    2.597500
     56          1           0       10.776565   -3.147430   -0.293604
     57          1           0       10.508852   -3.612714    1.380830
     58          1           0        9.307250   -2.443455    0.612315
     59          1           0      -11.499619   -0.561777    2.611836
     60          1           0      -10.731881   -2.025731    1.654848
     61          1           0      -12.326840   -1.987813    2.627756
     62          1           0      -13.571958   -2.750521    0.513757
     63          1           0      -11.972448   -2.996532    0.135171
     64          1           0      -12.592116   -2.221259   -0.975180
     65          1           0        8.897960   -0.385475    0.422162
     66          1           0      -10.088536   -1.973948   -0.701621
     67          1           0       10.717308    1.709429   -2.028895
     68          1           0       12.050242    2.148140   -1.226555
     69          1           0       12.410844    1.207007   -2.741640
     70          1           0      -11.214721    2.461930   -2.098388
     71          1           0      -10.321738    1.320840   -2.273670
     72          1           0      -10.044797    2.543794   -1.003002
     73          1           0       14.764697   -3.092615    0.128074
     74          1           0      -15.165248    1.367014    1.826646
     75          1           0       10.056007    2.133277   -0.189043
     76          1           0       -8.595791    0.680197   -0.150668
     77          1           0        9.329628    3.936340    0.624558
     78          1           0        7.646414    4.387842   -0.410517
     79          1           0        7.303896    4.128541    1.258924
     80          1           0       -8.491668   -3.082725   -0.643463
     81          1           0       -8.258802   -2.616827   -2.040347
     82          1           0       -6.720049   -3.048490   -1.315775
     83          1           0        6.798197    0.523961   -0.354101
     84          1           0       -6.282234    0.441874    0.141115
     85          1           0        5.494005    3.096751    0.462283
     86          1           0       -4.926229   -2.184487   -0.887993
     87          1           0        4.848101    0.307128   -0.384733
     88          1           0       -3.916211    0.526925    0.092987
     89          1           0        3.166560    3.014309    1.860599
     90          1           0        1.640251    3.065887    0.818304
     91          1           0        3.131933    3.615715    0.287717
     92          1           0       -2.694933   -2.898961   -0.393503
     93          1           0       -2.809300   -2.205900   -2.119242
     94          1           0       -1.197678   -2.368084   -1.174378
     95          1           0        2.216205   -0.129142   -0.561317
     96          1           0       -2.086052    1.212987   -0.120671
     97          1           0        0.299896    1.787151    0.452116
     98          1           0        0.071445   -0.995099   -0.961332
 ---------------------------------------------------------------------

 SCF Done:  E(RCAM-B3LYP) =  -1706.91005374     A.U. after   15 cycles

 Excitation energies and oscillator strengths:

 Excited State   1:      Singlet-A      2.2746 eV  545.09 nm  f=3.6918  <S**2>=0.000
     155 ->158         0.13772
     156 ->157         0.69585
 This state for optimization and/or second-order correction.
 Total Energy, E(TD-HF/TD-DFT) =  -1706.82646491
 Copying the excited state density for this state as the 1-particle RhoCI density.

 The electronic state is 1-A.
 Alpha  occ. eigenvalues --  -19.21650 -19.21055 -10.30691 -10.29121 -10.28697
 Alpha  occ. eigenvalues --  -10.27300 -10.27099 -10.27082 -10.27056 -10.27021
 Alpha  occ. eigenvalues --  -10.26839 -10.26786 -10.26757 -10.26601 -10.26506
 Alpha  occ. eigenvalues --  -10.26477 -10.26397 -10.26293 -10.26173 -10.26081
 Alpha  occ. eigenvalues --  -10.26053 -10.25937 -10.25907 -10.25873 -10.25803
 Alpha  occ. eigenvalues --  -10.25617 -10.25557 -10.25501 -10.25458 -10.25354
 Alpha  occ. eigenvalues --  -10.25337 -10.25266 -10.25096 -10.25008 -10.24708
 Alpha  occ. eigenvalues --  -10.24666 -10.24558 -10.24387 -10.24302 -10.23726
 Alpha  occ. eigenvalues --  -10.22752 -10.22086  -1.10911  -1.10418  -0.93830
 Alpha  occ. eigenvalues --   -0.93757  -0.92814  -0.92039  -0.91440  -0.90681
 Alpha  occ. eigenvalues --   -0.87747  -0.87373  -0.86866  -0.85585  -0.84748
 Alpha  occ. eigenvalues --   -0.83350  -0.81949  -0.80617  -0.79798  -0.78949
 Alpha  occ. eigenvalues --   -0.78277  -0.77496  -0.77155  -0.76690  -0.75945
 Alpha  occ. eigenvalues --   -0.75869  -0.75381  -0.74125  -0.73534  -0.71638
 Alpha  occ. eigenvalues --   -0.68865  -0.67124  -0.66092  -0.65338  -0.64976
 Alpha  occ. eigenvalues --   -0.63937  -0.63769  -0.62297  -0.61103  -0.60643
 Alpha  occ. eigenvalues --   -0.59421  -0.58982  -0.58862  -0.57661  -0.56480
 Alpha  occ. eigenvalues --   -0.55840  -0.55653  -0.54976  -0.54536  -0.54283
 Alpha  occ. eigenvalues --   -0.53393  -0.53052  -0.52356  -0.52066  -0.51810
 Alpha  occ. eigenvalues --   -0.51045  -0.50730  -0.50539  -0.50196  -0.49747
 Alpha  occ. eigenvalues --   -0.49453  -0.48929  -0.48665  -0.48449  -0.48238
 Alpha  occ. eigenvalues --   -0.47919  -0.47616  -0.47036  -0.47018  -0.46378
 Alpha  occ. eigenvalues --   -0.46158  -0.45904  -0.45707  -0.45310  -0.44968
 Alpha  occ. eigenvalues --   -0.44609  -0.44574  -0.44108  -0.43907  -0.43252
 Alpha  occ. eigenvalues --   -0.42972  -0.42669  -0.42620  -0.42434  -0.42291
 Alpha  occ. eigenvalues --   -0.41938  -0.41851  -0.41431  -0.41148  -0.40709
 Alpha  occ. eigenvalues --   -0.40436  -0.40242  -0.40143  -0.40015  -0.39671
 Alpha  occ. eigenvalues --   -0.39535  -0.39359  -0.39123  -0.38540  -0.38062
 Alpha  occ. eigenvalues --   -0.37056  -0.36835  -0.36648  -0.36463  -0.35474
 Alpha  occ. eigenvalues --   -0.35174  -0.34511  -0.33304  -0.32767  -0.32323
 Alpha  occ. eigenvalues --   -0.31081  -0.30785  -0.29180  -0.27421  -0.24280
 Alpha  occ. eigenvalues --   -0.19487
 Alpha virt. eigenvalues --   -0.05855  -0.00199   0.03676   0.06200   0.08723
 Alpha virt. eigenvalues --    0.10441   0.11514   0.11745   0.11891   0.12324
 Alpha virt. eigenvalues --    0.12413   0.12823   0.13057   0.13854   0.14027

 Mulliken charges:
               1
     1  O   -0.547325
     2  O   -0.544896
     3  C   -0.052679
     4  C   -0.041461
     5  C   -0.199868
     6  C   -0.195982
     7  C    0.164415
     8  C    0.158983
     9  C    0.077072
    10  C    0.095728
    11  C   -0.236572
    12  C   -0.220375
    13  C    0.085132
    14  C   -0.015482
    15  C   -0.268706
    16  C   -0.291460
    17  C   -0.278045
    18  C   -0.270079
    19  C   -0.103036
    20  C   -0.165403
    21  C   -0.382063
    22  C   -0.351894
    23  C   -0.108991
    24  C   -0.075242
    25  C    0.139101
    26  C    0.149519
    27  C   -0.374232
    28  C   -0.386568
    29  C   -0.118208
    30  C   -0.137688
    31  C   -0.070280
    32  C   -0.107143
    33  C   -0.123805
    34  C   -0.103623
    35  C    0.067653
    36  C    0.128523
    37  C   -0.344336
    38  C   -0.377829
    39  C   -0.053242
    40  C   -0.146812
    41  C   -0.066409
    42  C   -0.085578
    43  H    0.102791
    44  H    0.089478
    45  H    0.056330
    46  H    0.102934
    47  H    0.068579
    48  H    0.075710
    49  H    0.112415
    50  H    0.105683
    51  H    0.112994
    52  H    0.107487
    53  H    0.093079
    54  H    0.065095
    55  H    0.097472
    56  H    0.105283
    57  H    0.084631
    58  H    0.102685
    59  H    0.108960
    60  H    0.097186
    61  H    0.083273
    62  H    0.100272
    63  H    0.095395
    64  H    0.106712
    65  H    0.064119
    66  H    0.068988
    67  H    0.121982
    68  H    0.136350
    69  H    0.104631
    70  H    0.108484
    71  H    0.120151
    72  H    0.128068
    73  H    0.311120
    74  H    0.300352
    75  H    0.057288
    76  H    0.084683
    77  H    0.099879
    78  H    0.118068
    79  H    0.098903
    80  H    0.115814
    81  H    0.136085
    82  H    0.106775
    83  H    0.080730
    84  H    0.093531
    85  H    0.066344
    86  H    0.088875
    87  H    0.072987
    88  H    0.066257
    89  H    0.116882
    90  H    0.079493
    91  H    0.131880
    92  H    0.107798
    93  H    0.137416
    94  H    0.094431
    95  H    0.048437
    96  H    0.069041
    97  H    0.086071
    98  H    0.082826
 Sum of Mulliken charges =  -0.00000

 Dipole moment (field-independent basis, Debye):
    X=             -0.6054    Y=             -1.9847    Z=              0.3448  Tot=              2.1034
 Quadrupole moment (field-independent basis, Debye-Ang):
   XX=           -281.0661   YY=           -242.4427   ZZ=           -259.8011
   XY=              9.2162   XZ=             -3.6200   YZ=              1.4683

 Normal termination of Gaussian 16 at Tue Jul 16 09:30:42 2019.
