 Gaussian 16, Revision A.03,
 Gaussian 16:  ES64L-G16RevA.03 25-Dec-2016

 -------------------------------------
 # td=(NStates=1) CAM-B3LYP/6-31G(d,p)
 -------------------------------------

 --
 TD
 --
 Symbolic Z-matrix:
 Charge =  0 Multiplicity = 1

                         Standard orientation:
 ---------------------------------------------------------------------
 Center     Atomic      Atomic             Coordinates (Angstroms)
 Number     Number       Type             X           Y           Z
 ---------------------------------------------------------------------
      1          8           0       14.708643   -2.279324   -0.459979
      2          8           0      -14.889601    1.877532    0.691327
      3          6           0       11.218280   -1.513655    0.980583
      4          6           0      -12.300027   -0.932248    0.734011
      5          6           0       12.688463   -1.765884    0.927964
      6          6           0      -13.649463   -0.367668    0.796477
      7          6           0       13.344455   -1.860335   -0.420816
      8          6           0      -13.564440    1.180247    0.791381
      9          6           0       11.005866   -0.247842    0.131756
     10          6           0      -11.265856   -0.237995   -0.231778
     11          6           0       13.261611   -0.456873   -1.135521
     12          6           0      -12.806023    1.723480   -0.422886
     13          6           0       11.877228    0.141562   -0.898304
     14          6           0      -11.529096    0.969512   -0.705745
     15          6           0       10.948409   -1.114364    2.382659
     16          6           0       10.403548   -2.660860    0.516165
     17          6           0      -11.690935   -1.002645    2.101693
     18          6           0      -12.515000   -2.519835    0.411389
     19          6           0        9.718142    0.419080    0.215690
     20          6           0       -9.978058   -1.048282   -0.352568
     21          6           0       11.596172    1.199325   -1.866774
     22          6           0      -10.611658    1.686132   -1.699796
     23          6           0        9.284801    1.679382    0.126210
     24          6           0       -8.846619   -0.418632   -0.344541
     25          6           0        7.998737    2.336933    0.367974
     26          6           0       -7.474515   -1.234285   -0.579470
     27          6           0        7.910519    3.679181    0.629139
     28          6           0       -7.630517   -2.652757   -0.926792
     29          6           0        6.847470    1.490524    0.292533
     30          6           0       -6.408967   -0.640944   -0.465772
     31          6           0        5.587091    1.968246    0.338979
     32          6           0       -5.022532   -1.107334   -0.659407
     33          6           0        4.400563    1.268555    0.202231
     34          6           0       -3.946085   -0.306053   -0.432928
     35          6           0        3.074212    1.751054    0.177005
     36          6           0       -2.626947   -0.787852   -0.619326
     37          6           0        2.844320    3.103474    0.605632
     38          6           0       -2.332345   -2.208717   -0.841435
     39          6           0        2.021882    0.781812   -0.195885
     40          6           0       -1.570501    0.229213   -0.322540
     41          6           0        0.661747    1.002752   -0.264703
     42          6           0       -0.228356   -0.069995   -0.499483
     43          1           0       13.220884   -1.279976    1.656521
     44          1           0       12.922415   -2.868386    1.308105
     45          1           0      -14.318178   -0.799806    1.474030
     46          1           0      -14.029024   -0.561319   -0.306522
     47          1           0       12.806962   -2.457060   -1.100514
     48          1           0      -13.130601    1.640968    1.797332
     49          1           0       13.766529    0.412252   -0.687614
     50          1           0       13.771522   -0.380637   -2.128644
     51          1           0      -13.627953    1.874875   -1.273964
     52          1           0      -12.509488    2.747491    0.035388
     53          1           0       11.458703   -1.781246    3.237129
     54          1           0        9.857218   -1.205311    2.735028
     55          1           0       11.165961   -0.101106    2.565761
     56          1           0       10.778438   -3.149362   -0.285889
     57          1           0       10.384673   -3.324214    1.339555
     58          1           0        9.517772   -2.360285    0.440794
     59          1           0      -11.281707    0.004352    2.460900
     60          1           0      -10.955801   -1.722879    2.294907
     61          1           0      -12.499180   -1.350496    2.879158
     62          1           0      -13.366742   -2.877069    0.893729
     63          1           0      -11.790726   -3.192521    0.654212
     64          1           0      -12.830295   -2.559886   -0.744324
     65          1           0        8.962099   -0.382916    0.482771
     66          1           0      -10.002074   -2.069198   -0.631684
     67          1           0       10.445621    1.532502   -2.219018
     68          1           0       12.017488    2.281782   -1.795947
     69          1           0       12.020004    0.907890   -2.779607
     70          1           0      -11.178734    2.465029   -2.267928
     71          1           0       -9.910109    1.048194   -2.264419
     72          1           0       -9.904408    2.254708   -0.953776
     73          1           0       14.671450   -3.338834   -0.574070
     74          1           0      -15.391054    1.694859    1.581535
     75          1           0       10.034051    2.438446    0.251892
     76          1           0       -8.438820    0.647343   -0.094009
     77          1           0        8.903415    4.298354    0.602302
     78          1           0        7.261698    4.352424   -0.119453
     79          1           0        7.550710    3.849684    1.612684
     80          1           0       -7.828550   -3.322959    0.040760
     81          1           0       -8.640187   -2.919375   -1.524177
     82          1           0       -6.722317   -3.090679   -1.097489
     83          1           0        6.980038    0.314919    0.235020
     84          1           0       -6.522771    0.358450   -0.276929
     85          1           0        5.611883    3.140392    0.604666
     86          1           0       -4.944050   -2.186151   -0.837118
     87          1           0        4.469119    0.220264   -0.110359
     88          1           0       -4.032461    0.677461   -0.046130
     89          1           0        3.537131    3.496949    1.544339
     90          1           0        1.736967    3.470655    0.717590
     91          1           0        3.096713    3.765608   -0.307799
     92          1           0       -2.577062   -2.878861   -0.018181
     93          1           0       -2.758980   -2.799278   -1.706284
     94          1           0       -1.183045   -2.461377   -0.885281
     95          1           0        2.404917   -0.248349   -0.233477
     96          1           0       -1.917042    1.107012   -0.110823
     97          1           0        0.113918    2.127305   -0.097235
     98          1           0        0.097270   -0.978740   -0.876224
 ---------------------------------------------------------------------

 SCF Done:  E(RCAM-B3LYP) =  -1706.90287259     A.U. after   15 cycles

 Excitation energies and oscillator strengths:

 Excited State   1:      Singlet-A      1.9105 eV  648.97 nm  f=3.2482  <S**2>=0.000
     155 ->158         0.12141
     156 ->157         0.70490
     156 <-157        -0.13063
 This state for optimization and/or second-order correction.
 Total Energy, E(TD-HF/TD-DFT) =  -1706.83266437
 Copying the excited state density for this state as the 1-particle RhoCI density.

 The electronic state is 1-A.
 Alpha  occ. eigenvalues --  -19.22344 -19.20832 -10.31217 -10.30668 -10.27941
 Alpha  occ. eigenvalues --  -10.27754 -10.27729 -10.27637 -10.27466 -10.27146
 Alpha  occ. eigenvalues --  -10.27010 -10.26926 -10.26891 -10.26708 -10.26668
 Alpha  occ. eigenvalues --  -10.26543 -10.26414 -10.26339 -10.26250 -10.26250
 Alpha  occ. eigenvalues --  -10.26086 -10.26079 -10.26064 -10.25930 -10.25915
 Alpha  occ. eigenvalues --  -10.25886 -10.25759 -10.25748 -10.25720 -10.25664
 Alpha  occ. eigenvalues --  -10.25653 -10.25629 -10.25622 -10.25257 -10.25226
 Alpha  occ. eigenvalues --  -10.25130 -10.25003 -10.24748 -10.24325 -10.24248
 Alpha  occ. eigenvalues --  -10.23148 -10.22048  -1.08127  -1.05352  -0.94769
 Alpha  occ. eigenvalues --   -0.93291  -0.92205  -0.92039  -0.91005  -0.89985
 Alpha  occ. eigenvalues --   -0.88316  -0.87418  -0.86836  -0.85436  -0.85003
 Alpha  occ. eigenvalues --   -0.83226  -0.81432  -0.81095  -0.79843  -0.78899
 Alpha  occ. eigenvalues --   -0.78627  -0.77156  -0.76181  -0.75648  -0.75418
 Alpha  occ. eigenvalues --   -0.75284  -0.75268  -0.74805  -0.73109  -0.70034
 Alpha  occ. eigenvalues --   -0.68416  -0.66657  -0.65625  -0.64707  -0.64327
 Alpha  occ. eigenvalues --   -0.63878  -0.62553  -0.61891  -0.60926  -0.59620
 Alpha  occ. eigenvalues --   -0.58943  -0.58531  -0.57679  -0.57151  -0.56175
 Alpha  occ. eigenvalues --   -0.55822  -0.55288  -0.54896  -0.54435  -0.54068
 Alpha  occ. eigenvalues --   -0.53333  -0.53046  -0.51954  -0.51623  -0.51366
 Alpha  occ. eigenvalues --   -0.51071  -0.50838  -0.49934  -0.49777  -0.49556
 Alpha  occ. eigenvalues --   -0.49003  -0.48508  -0.48292  -0.48062  -0.47417
 Alpha  occ. eigenvalues --   -0.47254  -0.47106  -0.46985  -0.46752  -0.46632
 Alpha  occ. eigenvalues --   -0.46099  -0.45757  -0.45291  -0.44971  -0.44718
 Alpha  occ. eigenvalues --   -0.44455  -0.44197  -0.43945  -0.43541  -0.43241
 Alpha  occ. eigenvalues --   -0.42928  -0.42864  -0.42683  -0.42161  -0.41958
 Alpha  occ. eigenvalues --   -0.41863  -0.41412  -0.41039  -0.40661  -0.40572
 Alpha  occ. eigenvalues --   -0.40176  -0.40006  -0.39849  -0.39668  -0.39482
 Alpha  occ. eigenvalues --   -0.39150  -0.38628  -0.37993  -0.37811  -0.37482
 Alpha  occ. eigenvalues --   -0.37274  -0.36579  -0.36191  -0.35826  -0.35776
 Alpha  occ. eigenvalues --   -0.35136  -0.34465  -0.33804  -0.32411  -0.32209
 Alpha  occ. eigenvalues --   -0.31219  -0.29768  -0.27907  -0.26657  -0.23597
 Alpha  occ. eigenvalues --   -0.17907
 Alpha virt. eigenvalues --   -0.06491  -0.00119   0.03626   0.05711   0.07624
 Alpha virt. eigenvalues --    0.09572   0.09866   0.11240   0.11518   0.12070
 Alpha virt. eigenvalues --    0.12517   0.12540   0.12972   0.13079   0.13651

 Mulliken charges:
               1
     1  O   -0.563450
     2  O   -0.581634
     3  C    0.010046
     4  C   -0.008644
     5  C   -0.176901
     6  C   -0.177151
     7  C    0.167242
     8  C    0.150783
     9  C    0.023311
    10  C    0.059968
    11  C   -0.230334
    12  C   -0.227224
    13  C    0.060943
    14  C    0.047350
    15  C   -0.320614
    16  C   -0.269792
    17  C   -0.283694
    18  C   -0.316505
    19  C   -0.090587
    20  C   -0.140261
    21  C   -0.373322
    22  C   -0.353142
    23  C   -0.116562
    24  C   -0.060324
    25  C    0.121220
    26  C    0.154221
    27  C   -0.422982
    28  C   -0.385329
    29  C   -0.092389
    30  C   -0.134126
    31  C   -0.078712
    32  C   -0.110958
    33  C   -0.141516
    34  C   -0.094651
    35  C    0.149636
    36  C    0.103056
    37  C   -0.384509
    38  C   -0.395248
    39  C   -0.145262
    40  C   -0.092677
    41  C   -0.084465
    42  C   -0.064560
    43  H    0.117541
    44  H    0.048997
    45  H    0.094236
    46  H    0.089201
    47  H    0.091886
    48  H    0.070669
    49  H    0.127516
    50  H    0.106340
    51  H    0.126889
    52  H    0.109510
    53  H    0.082186
    54  H    0.088243
    55  H    0.126128
    56  H    0.104432
    57  H    0.102755
    58  H    0.105904
    59  H    0.089579
    60  H    0.112906
    61  H    0.067549
    62  H    0.107392
    63  H    0.106928
    64  H    0.079327
    65  H    0.070557
    66  H    0.096808
    67  H    0.100522
    68  H    0.106469
    69  H    0.114811
    70  H    0.109151
    71  H    0.127637
    72  H    0.098777
    73  H    0.306805
    74  H    0.300634
    75  H    0.071306
    76  H    0.089106
    77  H    0.104635
    78  H    0.115401
    79  H    0.145496
    80  H    0.094032
    81  H    0.109848
    82  H    0.110787
    83  H    0.075182
    84  H    0.053721
    85  H    0.068953
    86  H    0.081246
    87  H    0.074316
    88  H    0.086990
    89  H    0.109948
    90  H    0.100451
    91  H    0.119873
    92  H    0.132189
    93  H    0.118746
    94  H    0.092649
    95  H    0.088327
    96  H    0.066623
    97  H    0.076649
    98  H    0.094984
 Sum of Mulliken charges =  -0.00000

 Dipole moment (field-independent basis, Debye):
    X=              1.7681    Y=             -1.8937    Z=              1.3385  Tot=              2.9161
 Quadrupole moment (field-independent basis, Debye-Ang):
   XX=           -287.4385   YY=           -236.1256   ZZ=           -262.0538
   XY=              6.0050   XZ=            -22.4286   YZ=              4.4621

 Normal termination of Gaussian 16 at Sat Jul 13 23:57:03 2019.
