 Gaussian 16, Revision A.03,
 Gaussian 16:  ES64L-G16RevA.03 25-Dec-2016

 -------------------------------------
 # td=(NStates=1) CAM-B3LYP/6-31G(d,p)
 -------------------------------------

 --
 TD
 --
 Symbolic Z-matrix:
 Charge =  0 Multiplicity = 1

                         Standard orientation:
 ---------------------------------------------------------------------
 Center     Atomic      Atomic             Coordinates (Angstroms)
 Number     Number       Type             X           Y           Z
 ---------------------------------------------------------------------
      1          8           0       14.764461   -2.043193   -0.291125
      2          8           0      -14.626133    2.235791    0.894016
      3          6           0       11.246421   -1.461952    0.879932
      4          6           0      -12.407059   -0.863610    0.578846
      5          6           0       12.770067   -1.718040    0.988060
      6          6           0      -13.702977   -0.061644    0.586944
      7          6           0       13.405175   -1.772908   -0.413350
      8          6           0      -13.434737    1.567564    0.811657
      9          6           0       10.940775   -0.219459    0.025641
     10          6           0      -11.342047   -0.267924   -0.225032
     11          6           0       13.372167   -0.341568   -0.934387
     12          6           0      -12.606190    1.992356   -0.381952
     13          6           0       11.959988    0.322236   -0.865221
     14          6           0      -11.488013    1.067258   -0.630307
     15          6           0       10.716654   -1.142925    2.311997
     16          6           0       10.424418   -2.715553    0.361120
     17          6           0      -11.913163   -1.094069    2.045014
     18          6           0      -12.830409   -2.216161   -0.183223
     19          6           0        9.579070    0.365150    0.045958
     20          6           0      -10.053523   -1.024444   -0.382203
     21          6           0       11.655270    1.468504   -1.734302
     22          6           0      -10.439127    1.715411   -1.586108
     23          6           0        9.396235    1.744238    0.066548
     24          6           0       -8.811807   -0.598521   -0.359765
     25          6           0        8.064776    2.290276    0.083677
     26          6           0       -7.611806   -1.367320   -0.566510
     27          6           0        8.008078    3.743271    0.583114
     28          6           0       -7.831982   -2.759312   -0.825720
     29          6           0        6.849600    1.556700    0.036300
     30          6           0       -6.339851   -0.734705   -0.406675
     31          6           0        5.559504    2.035478    0.075213
     32          6           0       -5.060658   -1.368056   -0.416645
     33          6           0        4.511735    1.063943   -0.092135
     34          6           0       -3.991075   -0.576812   -0.219804
     35          6           0        3.079123    1.521721    0.102555
     36          6           0       -2.652988   -1.003848   -0.372718
     37          6           0        2.772112    2.898821    0.528535
     38          6           0       -2.266964   -2.406330   -0.615609
     39          6           0        2.082438    0.531209   -0.030246
     40          6           0       -1.596308   -0.014924   -0.131062
     41          6           0        0.716055    0.745526   -0.048698
     42          6           0       -0.200264   -0.268875   -0.218638
     43          1           0       13.184994   -0.906275    1.716800
     44          1           0       12.883087   -2.669736    1.616966
     45          1           0      -14.218166   -0.532818    1.336259
     46          1           0      -14.170324   -0.064933   -0.354078
     47          1           0       12.908949   -2.445173   -1.057777
     48          1           0      -12.951631    1.702366    1.602872
     49          1           0       14.174853    0.363697   -0.532901
     50          1           0       13.563860   -0.374205   -1.935312
     51          1           0      -13.274367    2.064111   -1.221819
     52          1           0      -12.317933    3.131355   -0.121906
     53          1           0       10.937775   -1.947938    2.953258
     54          1           0        9.577794   -0.974562    2.720418
     55          1           0       11.062744   -0.188951    2.642413
     56          1           0       10.751849   -2.760126   -0.672846
     57          1           0       10.541745   -3.761006    0.940920
     58          1           0        9.438252   -2.400497    0.289428
     59          1           0      -11.843966   -0.114926    2.629010
     60          1           0      -10.979254   -1.494839    2.087143
     61          1           0      -12.490319   -1.873896    2.527408
     62          1           0      -13.747419   -2.518616    0.526165
     63          1           0      -12.065178   -2.966737    0.013622
     64          1           0      -13.064808   -2.321650   -1.330363
     65          1           0        8.765856   -0.271338    0.236139
     66          1           0      -10.260479   -1.954658   -0.513122
     67          1           0       10.723051    1.741743   -2.052936
     68          1           0       12.071098    2.498095   -1.431188
     69          1           0       12.327465    1.299611   -2.604968
     70          1           0      -10.808631    2.457719   -2.458538
     71          1           0      -10.010014    0.896344   -2.159839
     72          1           0       -9.806776    2.320395   -0.936287
     73          1           0       14.675596   -3.030275   -0.047796
     74          1           0      -15.267194    1.743438    1.463046
     75          1           0       10.350417    2.460211    0.088637
     76          1           0       -8.624845    0.495502    0.252621
     77          1           0        8.894408    4.080873    0.418570
     78          1           0        7.602156    4.460588   -0.089531
     79          1           0        7.575467    3.926425    1.534016
     80          1           0       -8.616094   -3.422490   -0.355837
     81          1           0       -8.181181   -3.041014   -1.865385
     82          1           0       -6.816482   -3.347111   -0.688545
     83          1           0        6.779045    0.316061   -0.162054
     84          1           0       -6.495460    0.381632   -0.256881
     85          1           0        5.346994    3.108878    0.418727
     86          1           0       -4.938072   -2.447835   -0.830841
     87          1           0        4.746726   -0.040476   -0.134469
     88          1           0       -4.331005    0.401289    0.244928
     89          1           0        3.311060    3.030707    1.506676
     90          1           0        1.804786    3.193946    0.691882
     91          1           0        3.065643    3.792780    0.017891
     92          1           0       -2.921525   -3.147943    0.116134
     93          1           0       -2.638576   -2.509100   -1.697857
     94          1           0       -1.311734   -2.748593   -0.553592
     95          1           0        2.300773   -0.528305   -0.248832
     96          1           0       -1.971396    1.059436    0.278438
     97          1           0        0.398938    1.788029    0.343021
     98          1           0        0.078554   -1.234198   -0.545832
 ---------------------------------------------------------------------

 SCF Done:  E(RCAM-B3LYP) =  -1706.93269213     A.U. after   15 cycles

 Excitation energies and oscillator strengths:

 Excited State   1:      Singlet-A      2.0197 eV  613.89 nm  f=3.6740  <S**2>=0.000
     155 ->158         0.16549
     156 ->157         0.68705
 This state for optimization and/or second-order correction.
 Total Energy, E(TD-HF/TD-DFT) =  -1706.85847106
 Copying the excited state density for this state as the 1-particle RhoCI density.

 The electronic state is 1-A.
 Alpha  occ. eigenvalues --  -19.22087 -19.20579 -10.30634 -10.28679 -10.28046
 Alpha  occ. eigenvalues --  -10.27960 -10.27924 -10.27915 -10.27882 -10.27745
 Alpha  occ. eigenvalues --  -10.27668 -10.27219 -10.27189 -10.27123 -10.27062
 Alpha  occ. eigenvalues --  -10.27015 -10.26949 -10.26865 -10.26722 -10.26592
 Alpha  occ. eigenvalues --  -10.26550 -10.26509 -10.26455 -10.26284 -10.26261
 Alpha  occ. eigenvalues --  -10.26209 -10.26205 -10.26171 -10.26078 -10.26057
 Alpha  occ. eigenvalues --  -10.25475 -10.25441 -10.25336 -10.25284 -10.25132
 Alpha  occ. eigenvalues --  -10.24832 -10.24600 -10.24368 -10.24310 -10.23964
 Alpha  occ. eigenvalues --  -10.23407 -10.23394  -1.10757  -1.09883  -0.93097
 Alpha  occ. eigenvalues --   -0.92454  -0.91860  -0.91130  -0.90210  -0.89624
 Alpha  occ. eigenvalues --   -0.87264  -0.86392  -0.85963  -0.85336  -0.84390
 Alpha  occ. eigenvalues --   -0.83099  -0.82333  -0.80286  -0.79056  -0.78658
 Alpha  occ. eigenvalues --   -0.76435  -0.76421  -0.76237  -0.76004  -0.75542
 Alpha  occ. eigenvalues --   -0.74944  -0.74694  -0.74187  -0.72527  -0.70332
 Alpha  occ. eigenvalues --   -0.68820  -0.67827  -0.66092  -0.65117  -0.63601
 Alpha  occ. eigenvalues --   -0.63142  -0.62363  -0.61517  -0.60779  -0.60347
 Alpha  occ. eigenvalues --   -0.59698  -0.59089  -0.58935  -0.57859  -0.55700
 Alpha  occ. eigenvalues --   -0.55517  -0.55075  -0.54693  -0.54427  -0.54169
 Alpha  occ. eigenvalues --   -0.53017  -0.52432  -0.51523  -0.51401  -0.50529
 Alpha  occ. eigenvalues --   -0.50416  -0.49819  -0.49780  -0.49488  -0.49127
 Alpha  occ. eigenvalues --   -0.48950  -0.48414  -0.48288  -0.48212  -0.47731
 Alpha  occ. eigenvalues --   -0.47482  -0.47215  -0.46521  -0.46378  -0.45910
 Alpha  occ. eigenvalues --   -0.45703  -0.45523  -0.45376  -0.44971  -0.44688
 Alpha  occ. eigenvalues --   -0.44321  -0.44030  -0.43818  -0.43736  -0.43231
 Alpha  occ. eigenvalues --   -0.43213  -0.42739  -0.42697  -0.42307  -0.42156
 Alpha  occ. eigenvalues --   -0.41911  -0.41711  -0.41535  -0.41368  -0.40659
 Alpha  occ. eigenvalues --   -0.40465  -0.40289  -0.39638  -0.39492  -0.39458
 Alpha  occ. eigenvalues --   -0.39321  -0.39239  -0.38633  -0.38009  -0.37811
 Alpha  occ. eigenvalues --   -0.37627  -0.37586  -0.37032  -0.36782  -0.35935
 Alpha  occ. eigenvalues --   -0.34556  -0.34226  -0.32996  -0.32329  -0.31840
 Alpha  occ. eigenvalues --   -0.30534  -0.28821  -0.27355  -0.25269  -0.22422
 Alpha  occ. eigenvalues --   -0.18727
 Alpha virt. eigenvalues --   -0.06048  -0.01657   0.02082   0.05251   0.07278
 Alpha virt. eigenvalues --    0.09148   0.10721   0.11305   0.11684   0.12052
 Alpha virt. eigenvalues --    0.12494   0.12991   0.13070   0.13414   0.13543

 Mulliken charges:
               1
     1  O   -0.542105
     2  O   -0.568171
     3  C   -0.023846
     4  C   -0.035600
     5  C   -0.185300
     6  C   -0.212385
     7  C    0.160419
     8  C    0.206130
     9  C    0.032249
    10  C    0.086446
    11  C   -0.211168
    12  C   -0.228743
    13  C    0.040436
    14  C    0.014895
    15  C   -0.310580
    16  C   -0.297788
    17  C   -0.314394
    18  C   -0.312408
    19  C   -0.093187
    20  C   -0.096947
    21  C   -0.376088
    22  C   -0.344779
    23  C   -0.112884
    24  C   -0.092963
    25  C    0.039194
    26  C    0.138404
    27  C   -0.363034
    28  C   -0.399833
    29  C   -0.101287
    30  C   -0.137206
    31  C   -0.067605
    32  C   -0.093586
    33  C   -0.136790
    34  C   -0.091050
    35  C    0.100446
    36  C    0.078075
    37  C   -0.388645
    38  C   -0.356627
    39  C   -0.123352
    40  C   -0.122631
    41  C   -0.066695
    42  C   -0.088699
    43  H    0.103366
    44  H    0.069632
    45  H    0.079824
    46  H    0.108128
    47  H    0.096612
    48  H    0.075013
    49  H    0.123017
    50  H    0.113739
    51  H    0.125697
    52  H    0.090740
    53  H    0.100314
    54  H    0.073571
    55  H    0.111363
    56  H    0.098790
    57  H    0.088032
    58  H    0.114588
    59  H    0.105326
    60  H    0.120888
    61  H    0.096532
    62  H    0.076248
    63  H    0.099691
    64  H    0.111784
    65  H    0.097007
    66  H    0.056501
    67  H    0.144717
    68  H    0.099419
    69  H    0.092452
    70  H    0.076195
    71  H    0.122996
    72  H    0.115702
    73  H    0.302755
    74  H    0.311065
    75  H    0.102629
    76  H    0.061725
    77  H    0.109963
    78  H    0.108245
    79  H    0.131642
    80  H    0.119425
    81  H    0.119065
    82  H    0.090782
    83  H    0.057444
    84  H    0.087897
    85  H    0.097231
    86  H    0.093576
    87  H    0.099632
    88  H    0.094904
    89  H    0.121280
    90  H    0.117657
    91  H    0.126994
    92  H    0.099759
    93  H    0.119158
    94  H    0.124066
    95  H    0.077286
    96  H    0.074587
    97  H    0.078188
    98  H    0.084842
 Sum of Mulliken charges =  -0.00000

 Dipole moment (field-independent basis, Debye):
    X=              1.1645    Y=             -2.0675    Z=              1.2894  Tot=              2.7006
 Quadrupole moment (field-independent basis, Debye-Ang):
   XX=           -280.0673   YY=           -239.1363   ZZ=           -262.8693
   XY=             15.4996   XZ=            -11.7324   YZ=              4.3017

 Normal termination of Gaussian 16 at Wed Jul 10 03:20:52 2019.
