 Gaussian 16, Revision A.03,
 Gaussian 16:  ES64L-G16RevA.03 25-Dec-2016

 -------------------------------------
 # td=(NStates=1) CAM-B3LYP/6-31G(d,p)
 -------------------------------------

 --
 TD
 --
 Symbolic Z-matrix:
 Charge =  0 Multiplicity = 1

                         Standard orientation:
 ---------------------------------------------------------------------
 Center     Atomic      Atomic             Coordinates (Angstroms)
 Number     Number       Type             X           Y           Z
 ---------------------------------------------------------------------
      1          8           0       14.775667   -2.165083   -0.277034
      2          8           0      -14.828139    1.949608    0.849305
      3          6           0       11.203242   -1.416985    1.025440
      4          6           0      -12.378119   -0.932971    0.681506
      5          6           0       12.757975   -1.827133    1.042789
      6          6           0      -13.751796   -0.247376    0.786585
      7          6           0       13.360717   -1.832694   -0.267010
      8          6           0      -13.675405    1.335892    0.803982
      9          6           0       11.000617   -0.163026    0.068100
     10          6           0      -11.248513   -0.175383   -0.154993
     11          6           0       13.358257   -0.418017   -0.945252
     12          6           0      -12.828418    1.772521   -0.365367
     13          6           0       11.958798    0.231137   -0.816884
     14          6           0      -11.490836    0.990623   -0.603509
     15          6           0       10.789728   -1.011760    2.406725
     16          6           0       10.343103   -2.670128    0.529218
     17          6           0      -11.925731   -1.085963    2.199030
     18          6           0      -12.746923   -2.359645    0.045601
     19          6           0        9.761178    0.438980    0.005011
     20          6           0      -10.107863   -0.955544   -0.222889
     21          6           0       11.850219    1.363156   -1.845492
     22          6           0      -10.603561    1.704321   -1.483554
     23          6           0        9.372089    1.797208    0.042175
     24          6           0       -8.786459   -0.465927   -0.321788
     25          6           0        8.131658    2.233998    0.157218
     26          6           0       -7.561775   -1.206931   -0.630198
     27          6           0        7.832468    3.645416    0.467380
     28          6           0       -7.703167   -2.678715   -1.109168
     29          6           0        6.929884    1.434556   -0.091471
     30          6           0       -6.389608   -0.521319   -0.616482
     31          6           0        5.573926    1.843744    0.166848
     32          6           0       -5.046178   -1.140988   -0.679488
     33          6           0        4.476973    1.162870   -0.114975
     34          6           0       -3.961543   -0.390915   -0.367902
     35          6           0        3.190391    1.536204    0.170817
     36          6           0       -2.624031   -0.835122   -0.563537
     37          6           0        2.915294    3.063940    0.741659
     38          6           0       -2.368309   -2.312128   -0.918441
     39          6           0        2.115124    0.659005   -0.074343
     40          6           0       -1.648917    0.065251   -0.317859
     41          6           0        0.716523    0.805974   -0.012481
     42          6           0       -0.160721   -0.156035   -0.411525
     43          1           0       13.209083   -1.095083    1.765458
     44          1           0       12.928014   -2.835616    1.523620
     45          1           0      -14.528599   -0.532394    1.491624
     46          1           0      -14.259866   -0.483864   -0.200218
     47          1           0       12.838652   -2.664534   -0.792911
     48          1           0      -12.953862    1.612569    1.757030
     49          1           0       14.324817    0.078441   -0.268827
     50          1           0       13.662712   -0.384672   -1.987848
     51          1           0      -13.621263    1.822648   -1.132332
     52          1           0      -12.702772    2.846643   -0.142869
     53          1           0       11.107049   -1.757572    3.284341
     54          1           0        9.769032   -1.063933    2.458311
     55          1           0       11.232775   -0.043804    2.657604
     56          1           0       10.417000   -2.883413   -0.637338
     57          1           0       10.788392   -3.488395    1.138161
     58          1           0        9.264472   -2.713699    0.793427
     59          1           0      -12.056335   -0.256045    2.916238
     60          1           0      -10.784650   -1.323090    2.251577
     61          1           0      -12.613018   -1.850953    2.550956
     62          1           0      -13.628844   -2.861916    0.719200
     63          1           0      -11.850591   -3.137388    0.237408
     64          1           0      -13.045162   -2.430412   -0.966021
     65          1           0        8.857587   -0.132604   -0.019927
     66          1           0      -10.030139   -2.009965   -0.297835
     67          1           0       10.768362    1.984368   -2.083501
     68          1           0       12.620970    2.054006   -1.551896
     69          1           0       12.063571    0.955067   -2.866427
     70          1           0      -11.181310    2.394618   -2.289384
     71          1           0       -9.787031    1.059080   -1.845387
     72          1           0      -10.346478    2.603505   -0.842393
     73          1           0       14.919415   -3.094434    0.308507
     74          1           0      -15.203390    1.776747    1.577882
     75          1           0       10.279483    2.675150    0.369585
     76          1           0       -8.772955    0.568623   -0.287108
     77          1           0        8.861708    4.295989    0.691932
     78          1           0        7.517478    4.379812   -0.355379
     79          1           0        7.112073    3.758449    1.348489
     80          1           0       -7.918337   -3.334979   -0.196881
     81          1           0       -8.429901   -2.738507   -1.854199
     82          1           0       -6.740365   -3.019908   -1.455930
     83          1           0        7.069253    0.423581   -0.695165
     84          1           0       -6.193152    0.505617   -0.251380
     85          1           0        5.414821    2.850319    0.597542
     86          1           0       -5.186341   -2.160099   -1.002521
     87          1           0        4.698124    0.204141   -0.472604
     88          1           0       -4.164790    0.496988    0.001502
     89          1           0        2.925416    3.017394    2.002287
     90          1           0        1.874695    3.345080    0.351391
     91          1           0        3.688896    3.657558    0.290348
     92          1           0       -2.544666   -2.989699   -0.090320
     93          1           0       -2.929765   -2.693809   -1.811743
     94          1           0       -1.295074   -2.462462   -1.257622
     95          1           0        2.633319   -0.401049   -0.385557
     96          1           0       -2.101567    0.888029    0.015170
     97          1           0        0.374549    1.780242    0.521180
     98          1           0        0.286527   -1.147111   -0.590248
 ---------------------------------------------------------------------

 SCF Done:  E(RCAM-B3LYP) =  -1706.93236335     A.U. after   15 cycles

 Excitation energies and oscillator strengths:

 Excited State   1:      Singlet-A      2.1650 eV  572.67 nm  f=3.2099  <S**2>=0.000
     155 ->158        -0.16105
     156 ->157         0.68563
 This state for optimization and/or second-order correction.
 Total Energy, E(TD-HF/TD-DFT) =  -1706.85280045
 Copying the excited state density for this state as the 1-particle RhoCI density.

 The electronic state is 1-A.
 Alpha  occ. eigenvalues --  -19.21911 -19.21584 -10.30584 -10.30543 -10.29194
 Alpha  occ. eigenvalues --  -10.28072 -10.28034 -10.28022 -10.27708 -10.27601
 Alpha  occ. eigenvalues --  -10.27567 -10.27335 -10.27303 -10.27270 -10.27220
 Alpha  occ. eigenvalues --  -10.27202 -10.27100 -10.27034 -10.26782 -10.26768
 Alpha  occ. eigenvalues --  -10.26630 -10.26579 -10.26520 -10.26280 -10.26139
 Alpha  occ. eigenvalues --  -10.26044 -10.26035 -10.25951 -10.25937 -10.25875
 Alpha  occ. eigenvalues --  -10.25694 -10.25611 -10.25424 -10.25395 -10.25290
 Alpha  occ. eigenvalues --  -10.25054 -10.24975 -10.24941 -10.24935 -10.24656
 Alpha  occ. eigenvalues --  -10.24486 -10.24411  -1.16928  -1.06518  -0.93673
 Alpha  occ. eigenvalues --   -0.93575  -0.92053  -0.91699  -0.90356  -0.89694
 Alpha  occ. eigenvalues --   -0.87375  -0.86770  -0.86518  -0.85405  -0.84755
 Alpha  occ. eigenvalues --   -0.83340  -0.81594  -0.80200  -0.79906  -0.77377
 Alpha  occ. eigenvalues --   -0.76909  -0.76302  -0.75986  -0.75868  -0.74858
 Alpha  occ. eigenvalues --   -0.74806  -0.74639  -0.74303  -0.73499  -0.70413
 Alpha  occ. eigenvalues --   -0.69515  -0.67881  -0.66400  -0.64977  -0.64278
 Alpha  occ. eigenvalues --   -0.63646  -0.62313  -0.61771  -0.61002  -0.59929
 Alpha  occ. eigenvalues --   -0.59530  -0.59221  -0.58324  -0.57801  -0.56785
 Alpha  occ. eigenvalues --   -0.55743  -0.55178  -0.54548  -0.53868  -0.53368
 Alpha  occ. eigenvalues --   -0.52989  -0.52600  -0.52132  -0.51750  -0.50715
 Alpha  occ. eigenvalues --   -0.50433  -0.50077  -0.49542  -0.49134  -0.48784
 Alpha  occ. eigenvalues --   -0.48474  -0.48306  -0.48127  -0.47763  -0.47635
 Alpha  occ. eigenvalues --   -0.47185  -0.47133  -0.46803  -0.46584  -0.46290
 Alpha  occ. eigenvalues --   -0.46226  -0.45681  -0.45457  -0.45136  -0.44592
 Alpha  occ. eigenvalues --   -0.44474  -0.44375  -0.43945  -0.43762  -0.43398
 Alpha  occ. eigenvalues --   -0.43223  -0.42522  -0.42360  -0.42207  -0.41931
 Alpha  occ. eigenvalues --   -0.41926  -0.41654  -0.41111  -0.40926  -0.40708
 Alpha  occ. eigenvalues --   -0.40312  -0.39789  -0.39681  -0.39619  -0.39117
 Alpha  occ. eigenvalues --   -0.38798  -0.38652  -0.38508  -0.37664  -0.37335
 Alpha  occ. eigenvalues --   -0.36932  -0.36818  -0.36699  -0.36503  -0.36388
 Alpha  occ. eigenvalues --   -0.35554  -0.34972  -0.33746  -0.32674  -0.32442
 Alpha  occ. eigenvalues --   -0.30518  -0.30351  -0.28838  -0.26070  -0.22705
 Alpha  occ. eigenvalues --   -0.19268
 Alpha virt. eigenvalues --   -0.05584  -0.01749   0.01869   0.05957   0.07771
 Alpha virt. eigenvalues --    0.09571   0.10339   0.11492   0.12109   0.12471
 Alpha virt. eigenvalues --    0.12849   0.13057   0.13352   0.13619   0.13940

 Mulliken charges:
               1
     1  O   -0.573638
     2  O   -0.469174
     3  C   -0.014519
     4  C   -0.005894
     5  C   -0.185559
     6  C   -0.195533
     7  C    0.187031
     8  C    0.159620
     9  C    0.071853
    10  C    0.105906
    11  C   -0.209513
    12  C   -0.231735
    13  C    0.044989
    14  C    0.079899
    15  C   -0.297082
    16  C   -0.314543
    17  C   -0.301671
    18  C   -0.305948
    19  C   -0.124563
    20  C   -0.128092
    21  C   -0.351456
    22  C   -0.384048
    23  C   -0.115981
    24  C   -0.119743
    25  C    0.141212
    26  C    0.069940
    27  C   -0.373143
    28  C   -0.366579
    29  C   -0.150673
    30  C   -0.125478
    31  C   -0.078085
    32  C   -0.066655
    33  C   -0.082992
    34  C   -0.120647
    35  C    0.083809
    36  C    0.124908
    37  C   -0.350499
    38  C   -0.376050
    39  C   -0.131385
    40  C   -0.111970
    41  C   -0.072278
    42  C   -0.104829
    43  H    0.097205
    44  H    0.074760
    45  H    0.077710
    46  H    0.080214
    47  H    0.081779
    48  H    0.019045
    49  H    0.101028
    50  H    0.117719
    51  H    0.114076
    52  H    0.101901
    53  H    0.076880
    54  H    0.119398
    55  H    0.117205
    56  H    0.100751
    57  H    0.103504
    58  H    0.106278
    59  H    0.105133
    60  H    0.092164
    61  H    0.098729
    62  H    0.078433
    63  H    0.079624
    64  H    0.124115
    65  H    0.088420
    66  H    0.084218
    67  H    0.097083
    68  H    0.129650
    69  H    0.109302
    70  H    0.096802
    71  H    0.125658
    72  H    0.112915
    73  H    0.292559
    74  H    0.283855
    75  H    0.061209
    76  H    0.084439
    77  H    0.072116
    78  H    0.123229
    79  H    0.123109
    80  H    0.119708
    81  H    0.136652
    82  H    0.111801
    83  H    0.079188
    84  H    0.077202
    85  H    0.072062
    86  H    0.073838
    87  H    0.071487
    88  H    0.077291
    89  H    0.101528
    90  H    0.111605
    91  H    0.126362
    92  H    0.130236
    93  H    0.111875
    94  H    0.101290
    95  H    0.059041
    96  H    0.069615
    97  H    0.088290
    98  H    0.099502
 Sum of Mulliken charges =  -0.00000

 Dipole moment (field-independent basis, Debye):
    X=              0.1861    Y=             -1.7227    Z=              1.6977  Tot=              2.4257
 Quadrupole moment (field-independent basis, Debye-Ang):
   XX=           -263.4488   YY=           -243.9904   ZZ=           -261.4954
   XY=             -3.8711   XZ=             -1.3836   YZ=              2.4637

 Normal termination of Gaussian 16 at Sun Jul 14 07:02:21 2019.
