 Gaussian 16, Revision A.03,
 Gaussian 16:  ES64L-G16RevA.03 25-Dec-2016

 -------------------------------------
 # td=(NStates=1) CAM-B3LYP/6-31G(d,p)
 -------------------------------------

 --
 TD
 --
 Symbolic Z-matrix:
 Charge =  0 Multiplicity = 1

                         Standard orientation:
 ---------------------------------------------------------------------
 Center     Atomic      Atomic             Coordinates (Angstroms)
 Number     Number       Type             X           Y           Z
 ---------------------------------------------------------------------
      1          8           0       14.670687   -2.380010   -0.384593
      2          8           0      -14.798454    1.842801    0.988757
      3          6           0       11.302697   -1.494762    0.945905
      4          6           0      -12.387793   -1.024870    0.581276
      5          6           0       12.737736   -1.977614    0.980205
      6          6           0      -13.759361   -0.272035    0.656816
      7          6           0       13.365175   -1.842064   -0.387969
      8          6           0      -13.589537    1.217453    0.876213
      9          6           0       11.051357   -0.255804    0.119497
     10          6           0      -11.358595   -0.198173   -0.336082
     11          6           0       13.332720   -0.391238   -0.956629
     12          6           0      -12.763429    1.852443   -0.272825
     13          6           0       11.950829    0.130644   -0.826380
     14          6           0      -11.495688    1.068340   -0.643869
     15          6           0       10.814481   -1.107731    2.337599
     16          6           0       10.397606   -2.599758    0.412597
     17          6           0      -11.835506   -1.160349    1.973156
     18          6           0      -12.711839   -2.490024   -0.042157
     19          6           0        9.653232    0.437230    0.161777
     20          6           0      -10.067987   -0.956670   -0.475290
     21          6           0       11.789331    1.365251   -1.704729
     22          6           0      -10.607913    1.793676   -1.662063
     23          6           0        9.470507    1.732914    0.079029
     24          6           0       -8.871576   -0.472439   -0.219829
     25          6           0        8.098223    2.248887    0.220062
     26          6           0       -7.542102   -1.185365   -0.460337
     27          6           0        8.003461    3.749930    0.487512
     28          6           0       -7.720482   -2.592693   -1.078822
     29          6           0        6.935912    1.548161   -0.060316
     30          6           0       -6.368149   -0.553804   -0.288633
     31          6           0        5.634130    1.961175    0.198065
     32          6           0       -5.116839   -1.121769   -0.361393
     33          6           0        4.484492    1.147540    0.040999
     34          6           0       -3.897389   -0.315679   -0.291211
     35          6           0        3.155853    1.643537    0.237623
     36          6           0       -2.606547   -0.696153   -0.467402
     37          6           0        2.882314    3.013601    0.746130
     38          6           0       -2.373646   -2.160361   -0.897253
     39          6           0        2.099452    0.768942   -0.146175
     40          6           0       -1.641766    0.154168   -0.299859
     41          6           0        0.688650    0.954741   -0.115402
     42          6           0       -0.239686   -0.072343   -0.358442
     43          1           0       13.180350   -1.160210    1.677449
     44          1           0       12.798857   -3.087186    1.442259
     45          1           0      -14.165145   -0.921927    1.549660
     46          1           0      -14.477821   -0.221097   -0.226827
     47          1           0       12.501541   -2.486600   -1.088170
     48          1           0      -12.842217    1.394933    1.794508
     49          1           0       14.073660    0.331277   -0.544654
     50          1           0       13.579733   -0.438546   -2.090586
     51          1           0      -13.349176    2.079472   -1.125606
     52          1           0      -12.381719    2.849040    0.061383
     53          1           0       11.004585   -2.185532    2.781109
     54          1           0        9.666081   -1.028130    2.503913
     55          1           0       11.338121   -0.311284    2.687449
     56          1           0       10.437886   -2.770246   -0.562104
     57          1           0       10.650393   -3.637917    0.897840
     58          1           0        9.299354   -2.483057    0.492612
     59          1           0      -11.724106   -0.243293    2.677584
     60          1           0      -11.012280   -1.583296    2.053260
     61          1           0      -12.591214   -1.610846    2.426891
     62          1           0      -13.419776   -3.037508    0.576763
     63          1           0      -11.776322   -3.253453    0.215446
     64          1           0      -12.837421   -2.318270   -1.155765
     65          1           0        8.704496   -0.111972    0.631602
     66          1           0      -10.119105   -2.173794   -0.320310
     67          1           0       10.893753    1.419487   -1.920255
     68          1           0       11.809416    2.277900   -1.193889
     69          1           0       12.412370    1.538219   -2.748409
     70          1           0      -11.094716    2.429608   -2.315089
     71          1           0      -10.019218    0.900195   -2.070542
     72          1           0       -9.980623    2.379484   -1.115649
     73          1           0       14.522217   -3.161144    0.208945
     74          1           0      -15.335589    1.203858    1.596351
     75          1           0       10.137721    2.519869   -0.302148
     76          1           0       -8.580799    0.642569   -0.199659
     77          1           0        9.049214    4.047601    0.795699
     78          1           0        7.571257    4.152536   -0.507227
     79          1           0        7.149895    3.949737    1.267863
     80          1           0       -8.418016   -3.342743   -0.554390
     81          1           0       -8.353087   -2.605618   -1.983689
     82          1           0       -6.848134   -3.249522   -1.034047
     83          1           0        7.073138    0.377528   -0.299892
     84          1           0       -6.455074    0.509408    0.170153
     85          1           0        5.474086    2.994324    0.571032
     86          1           0       -4.889782   -2.302159   -0.475892
     87          1           0        4.633759    0.083417   -0.296581
     88          1           0       -3.993634    0.686135    0.154233
     89          1           0        4.023776    3.618528    1.296539
     90          1           0        1.811593    2.984571    1.456578
     91          1           0        2.738219    3.803458   -0.450788
     92          1           0       -3.053337   -2.842496   -0.410489
     93          1           0       -2.424532   -2.342460   -2.032474
     94          1           0       -1.170127   -2.613799   -0.568552
     95          1           0        2.128601   -0.178926   -0.539056
     96          1           0       -1.703509    1.086614   -0.115861
     97          1           0        0.225842    2.002119   -0.118044
     98          1           0       -0.205267   -1.342793   -0.662142
 ---------------------------------------------------------------------

 SCF Done:  E(RCAM-B3LYP) =  -1706.75578607     A.U. after   15 cycles

 Excitation energies and oscillator strengths:

 Excited State   1:      Singlet-A      2.1753 eV  569.96 nm  f=3.5879  <S**2>=0.000
     155 ->158        -0.14707
     156 ->157         0.69233
 This state for optimization and/or second-order correction.
 Total Energy, E(TD-HF/TD-DFT) =  -1706.67584416
 Copying the excited state density for this state as the 1-particle RhoCI density.

 The electronic state is 1-A.
 Alpha  occ. eigenvalues --  -19.22231 -19.22091 -10.32817 -10.32322 -10.30719
 Alpha  occ. eigenvalues --  -10.28512 -10.28510 -10.28472 -10.28063 -10.28002
 Alpha  occ. eigenvalues --  -10.27834 -10.27801 -10.27676 -10.27488 -10.27436
 Alpha  occ. eigenvalues --  -10.27426 -10.27369 -10.27291 -10.27092 -10.26954
 Alpha  occ. eigenvalues --  -10.26833 -10.26736 -10.26607 -10.26605 -10.26534
 Alpha  occ. eigenvalues --  -10.26509 -10.26484 -10.26470 -10.26405 -10.26329
 Alpha  occ. eigenvalues --  -10.26230 -10.26080 -10.26022 -10.25912 -10.25600
 Alpha  occ. eigenvalues --  -10.25147 -10.24946 -10.24375 -10.23994 -10.23854
 Alpha  occ. eigenvalues --  -10.23851 -10.22370  -1.10806  -1.10126  -0.94494
 Alpha  occ. eigenvalues --   -0.93220  -0.92809  -0.91571  -0.90471  -0.90011
 Alpha  occ. eigenvalues --   -0.88024  -0.87415  -0.86825  -0.85347  -0.84454
 Alpha  occ. eigenvalues --   -0.82529  -0.81536  -0.80326  -0.79495  -0.78185
 Alpha  occ. eigenvalues --   -0.77466  -0.77150  -0.77020  -0.76242  -0.76032
 Alpha  occ. eigenvalues --   -0.75523  -0.75032  -0.74111  -0.73270  -0.70210
 Alpha  occ. eigenvalues --   -0.68226  -0.66704  -0.65646  -0.64733  -0.64304
 Alpha  occ. eigenvalues --   -0.63988  -0.62260  -0.61350  -0.59928  -0.59070
 Alpha  occ. eigenvalues --   -0.58662  -0.58121  -0.57445  -0.57385  -0.56998
 Alpha  occ. eigenvalues --   -0.56862  -0.55522  -0.54985  -0.54496  -0.53249
 Alpha  occ. eigenvalues --   -0.53023  -0.52082  -0.51757  -0.51420  -0.51391
 Alpha  occ. eigenvalues --   -0.50864  -0.50064  -0.49788  -0.49338  -0.49156
 Alpha  occ. eigenvalues --   -0.49087  -0.48593  -0.48288  -0.48066  -0.47903
 Alpha  occ. eigenvalues --   -0.47658  -0.47357  -0.46896  -0.46699  -0.46496
 Alpha  occ. eigenvalues --   -0.46247  -0.45569  -0.45262  -0.45214  -0.44839
 Alpha  occ. eigenvalues --   -0.44456  -0.43953  -0.43920  -0.43635  -0.43403
 Alpha  occ. eigenvalues --   -0.43303  -0.43138  -0.42842  -0.42605  -0.42493
 Alpha  occ. eigenvalues --   -0.41977  -0.41725  -0.41131  -0.40957  -0.40831
 Alpha  occ. eigenvalues --   -0.40486  -0.40093  -0.39768  -0.39639  -0.39381
 Alpha  occ. eigenvalues --   -0.38763  -0.38426  -0.37974  -0.37782  -0.37425
 Alpha  occ. eigenvalues --   -0.37137  -0.36824  -0.36026  -0.35741  -0.35695
 Alpha  occ. eigenvalues --   -0.35399  -0.35171  -0.34267  -0.32994  -0.31632
 Alpha  occ. eigenvalues --   -0.30974  -0.29970  -0.28249  -0.27021  -0.23673
 Alpha  occ. eigenvalues --   -0.19440
 Alpha virt. eigenvalues --   -0.06092  -0.01140   0.02429   0.05341   0.07113
 Alpha virt. eigenvalues --    0.07561   0.09345   0.09722   0.10269   0.10802
 Alpha virt. eigenvalues --    0.10866   0.11178   0.11952   0.12354   0.12566

 Mulliken charges:
               1
     1  O   -0.550879
     2  O   -0.546631
     3  C   -0.034370
     4  C   -0.033032
     5  C   -0.198022
     6  C   -0.199237
     7  C    0.202947
     8  C    0.193510
     9  C    0.060598
    10  C    0.070547
    11  C   -0.217204
    12  C   -0.227646
    13  C    0.037113
    14  C    0.021629
    15  C   -0.277319
    16  C   -0.298276
    17  C   -0.267696
    18  C   -0.298851
    19  C   -0.132171
    20  C   -0.160700
    21  C   -0.364748
    22  C   -0.357501
    23  C   -0.060548
    24  C   -0.079575
    25  C    0.041801
    26  C    0.111175
    27  C   -0.364867
    28  C   -0.378956
    29  C   -0.102698
    30  C   -0.118166
    31  C   -0.078482
    32  C   -0.104320
    33  C   -0.106973
    34  C   -0.135035
    35  C    0.126726
    36  C    0.157327
    37  C   -0.308174
    38  C   -0.365874
    39  C   -0.101813
    40  C   -0.076738
    41  C   -0.153960
    42  C   -0.065786
    43  H    0.096029
    44  H    0.079947
    45  H    0.063742
    46  H    0.099997
    47  H    0.032526
    48  H    0.047637
    49  H    0.122158
    50  H    0.110396
    51  H    0.116153
    52  H    0.104797
    53  H    0.075175
    54  H    0.100737
    55  H    0.113297
    56  H    0.123165
    57  H    0.075219
    58  H    0.097209
    59  H    0.090414
    60  H    0.112645
    61  H    0.099253
    62  H    0.110904
    63  H    0.066338
    64  H    0.122762
    65  H    0.097997
    66  H    0.074747
    67  H    0.134182
    68  H    0.123747
    69  H    0.083948
    70  H    0.114746
    71  H    0.118361
    72  H    0.125188
    73  H    0.307618
    74  H    0.312823
    75  H    0.091225
    76  H    0.078184
    77  H    0.107258
    78  H    0.130580
    79  H    0.111835
    80  H    0.099334
    81  H    0.132496
    82  H    0.105529
    83  H    0.063977
    84  H    0.086046
    85  H    0.062949
    86  H    0.082151
    87  H    0.090258
    88  H    0.082020
    89  H    0.073645
    90  H    0.112435
    91  H    0.063960
    92  H    0.125530
    93  H    0.132016
    94  H    0.069865
    95  H    0.089594
    96  H    0.052358
    97  H    0.091170
    98  H    0.054604
 Sum of Mulliken charges =  -0.00000

 Dipole moment (field-independent basis, Debye):
    X=             -0.8627    Y=             -1.4652    Z=              1.3705  Tot=              2.1839
 Quadrupole moment (field-independent basis, Debye-Ang):
   XX=           -280.3899   YY=           -246.3849   ZZ=           -265.3101
   XY=             25.6468   XZ=              0.4497   YZ=             -3.0842

 Normal termination of Gaussian 16 at Tue Jul  9 04:47:03 2019.
