 Gaussian 16, Revision A.03,
 Gaussian 16:  ES64L-G16RevA.03 25-Dec-2016

 -------------------------------------
 # td=(NStates=1) CAM-B3LYP/6-31G(d,p)
 -------------------------------------

 --
 TD
 --
 Symbolic Z-matrix:
 Charge =  0 Multiplicity = 1

                         Standard orientation:
 ---------------------------------------------------------------------
 Center     Atomic      Atomic             Coordinates (Angstroms)
 Number     Number       Type             X           Y           Z
 ---------------------------------------------------------------------
      1          8           0       14.579429   -2.269030   -0.278528
      2          8           0      -14.798049    1.844835    1.053524
      3          6           0       11.028781   -1.680735    1.084406
      4          6           0      -12.283655   -1.063064    0.817359
      5          6           0       12.496242   -1.987792    1.135981
      6          6           0      -13.719179   -0.330926    0.713595
      7          6           0       13.215171   -2.006242   -0.242404
      8          6           0      -13.630401    1.175389    0.933400
      9          6           0       10.917887   -0.320045    0.171091
     10          6           0      -11.213608   -0.296762   -0.012076
     11          6           0       13.206785   -0.661659   -0.958357
     12          6           0      -12.742073    1.670728   -0.208142
     13          6           0       11.826849    0.099478   -0.770855
     14          6           0      -11.496970    0.948243   -0.543398
     15          6           0       10.661740   -1.413212    2.483259
     16          6           0       10.258377   -2.816605    0.483625
     17          6           0      -11.893220   -1.201368    2.181047
     18          6           0      -12.455184   -2.442645    0.109309
     19          6           0        9.545111    0.357189    0.209226
     20          6           0       -9.999662   -1.037685   -0.252671
     21          6           0       11.621897    1.267290   -1.756154
     22          6           0      -10.543209    1.706618   -1.505783
     23          6           0        9.306647    1.660279    0.208716
     24          6           0       -8.713961   -0.683744   -0.263427
     25          6           0        8.062917    2.337418    0.392998
     26          6           0       -7.452023   -1.301537   -0.597628
     27          6           0        8.161380    3.788548    0.766529
     28          6           0       -7.513578   -2.720440   -1.187900
     29          6           0        6.907583    1.653321   -0.015675
     30          6           0       -6.372142   -0.699687   -0.415501
     31          6           0        5.632616    2.231993    0.081813
     32          6           0       -5.024483   -1.078418   -0.783174
     33          6           0        4.459021    1.569158   -0.213741
     34          6           0       -3.922807   -0.302977   -0.474291
     35          6           0        3.098973    1.973043   -0.051321
     36          6           0       -2.499119   -0.699627   -0.601035
     37          6           0        2.729099    3.416066    0.329281
     38          6           0       -2.146646   -2.078248   -1.236890
     39          6           0        2.107601    1.007096   -0.237255
     40          6           0       -1.540316    0.200066   -0.274351
     41          6           0        0.736276    1.188478   -0.217966
     42          6           0       -0.153521    0.146068   -0.511026
     43          1           0       12.986599   -1.219487    1.612292
     44          1           0       12.809260   -2.938362    1.471471
     45          1           0      -14.227270   -0.588843    1.484983
     46          1           0      -14.245931   -0.360839   -0.136946
     47          1           0       12.651300   -2.795350   -0.923403
     48          1           0      -13.115439    1.319270    2.085628
     49          1           0       13.956167    0.091676   -0.586490
     50          1           0       13.410044   -0.866737   -2.003567
     51          1           0      -13.370162    1.773043   -1.146262
     52          1           0      -12.393784    2.791022   -0.096207
     53          1           0       11.078694   -2.274089    3.261216
     54          1           0        9.566152   -1.252715    2.688381
     55          1           0       11.126531   -0.581742    2.785481
     56          1           0       10.800909   -3.148723   -0.546219
     57          1           0       10.253683   -3.590294    1.092798
     58          1           0        9.253769   -2.352030    0.230600
     59          1           0      -11.512270   -0.219573    2.512303
     60          1           0      -10.965496   -1.831547    2.209015
     61          1           0      -12.774781   -1.691087    2.788142
     62          1           0      -13.269162   -3.040569    0.485535
     63          1           0      -11.548729   -3.111767    0.181903
     64          1           0      -12.592857   -2.262863   -0.891310
     65          1           0        8.644189   -0.356499    0.733674
     66          1           0      -10.054086   -2.130967   -0.456792
     67          1           0       10.508453    1.543062   -1.931528
     68          1           0       11.871960    2.270390   -1.413845
     69          1           0       11.945041    1.010589   -2.618084
     70          1           0      -11.203556    2.147347   -2.272760
     71          1           0       -9.564052    1.183727   -1.939605
     72          1           0       -9.881959    2.435500   -0.977131
     73          1           0       14.729852   -3.236926   -0.137926
     74          1           0      -15.217410    1.372837    1.642774
     75          1           0       10.086762    2.224607   -0.072483
     76          1           0       -8.644201    0.360211   -0.173128
     77          1           0        9.249390    4.041750    1.096296
     78          1           0        7.928275    4.510160   -0.135103
     79          1           0        7.621889    3.777618    1.560608
     80          1           0       -7.983231   -3.531003   -0.440273
     81          1           0       -8.097695   -2.710165   -2.064166
     82          1           0       -6.403396   -2.967572   -1.698487
     83          1           0        6.858715    0.618301   -0.182441
     84          1           0       -6.479869    0.549035   -0.126095
     85          1           0        5.402626    3.215341    0.405312
     86          1           0       -4.821148   -2.038973   -1.240794
     87          1           0        4.530458    0.386257   -0.364040
     88          1           0       -4.101227    0.661009   -0.086197
     89          1           0        2.969442    3.725898    1.400948
     90          1           0        1.683005    3.464567    0.212519
     91          1           0        3.348724    4.072383   -0.232397
     92          1           0       -2.544510   -2.888706   -0.697127
     93          1           0       -2.726544   -2.160355   -2.205616
     94          1           0       -1.079865   -2.115360   -1.678224
     95          1           0        2.429939    0.056367   -0.791240
     96          1           0       -1.877739    1.380272   -0.232517
     97          1           0        0.458895    2.160858    0.287741
     98          1           0        0.293425   -0.924702   -0.554869
 ---------------------------------------------------------------------

 SCF Done:  E(RCAM-B3LYP) =  -1706.93398015     A.U. after   15 cycles

 Excitation energies and oscillator strengths:

 Excited State   1:      Singlet-A      2.3797 eV  521.00 nm  f=3.4737  <S**2>=0.000
     155 ->158        -0.14699
     156 ->157         0.68970
 This state for optimization and/or second-order correction.
 Total Energy, E(TD-HF/TD-DFT) =  -1706.84652639
 Copying the excited state density for this state as the 1-particle RhoCI density.

 The electronic state is 1-A.
 Alpha  occ. eigenvalues --  -19.21827 -19.21478 -10.31730 -10.30729 -10.27961
 Alpha  occ. eigenvalues --  -10.27736 -10.27446 -10.27426 -10.27361 -10.27360
 Alpha  occ. eigenvalues --  -10.27333 -10.27290 -10.27126 -10.27063 -10.26924
 Alpha  occ. eigenvalues --  -10.26912 -10.26809 -10.26526 -10.26498 -10.26496
 Alpha  occ. eigenvalues --  -10.26494 -10.26455 -10.26452 -10.26382 -10.26080
 Alpha  occ. eigenvalues --  -10.26042 -10.26035 -10.25990 -10.25701 -10.25683
 Alpha  occ. eigenvalues --  -10.25542 -10.25282 -10.25269 -10.24773 -10.24676
 Alpha  occ. eigenvalues --  -10.24651 -10.24527 -10.24360 -10.24251 -10.23666
 Alpha  occ. eigenvalues --  -10.23525 -10.22965  -1.15218  -1.10425  -0.93742
 Alpha  occ. eigenvalues --   -0.93145  -0.92089  -0.91869  -0.91012  -0.89831
 Alpha  occ. eigenvalues --   -0.87379  -0.87118  -0.86645  -0.85823  -0.84405
 Alpha  occ. eigenvalues --   -0.83159  -0.82104  -0.80573  -0.80333  -0.78058
 Alpha  occ. eigenvalues --   -0.77177  -0.76869  -0.76789  -0.76484  -0.76203
 Alpha  occ. eigenvalues --   -0.75830  -0.75606  -0.75313  -0.73694  -0.70789
 Alpha  occ. eigenvalues --   -0.68913  -0.67779  -0.66009  -0.64494  -0.63702
 Alpha  occ. eigenvalues --   -0.63183  -0.62668  -0.60927  -0.60376  -0.60022
 Alpha  occ. eigenvalues --   -0.59063  -0.58742  -0.58536  -0.57176  -0.57144
 Alpha  occ. eigenvalues --   -0.55944  -0.55495  -0.55083  -0.54372  -0.54055
 Alpha  occ. eigenvalues --   -0.53246  -0.52713  -0.52187  -0.51767  -0.51038
 Alpha  occ. eigenvalues --   -0.51005  -0.50913  -0.49696  -0.49456  -0.49310
 Alpha  occ. eigenvalues --   -0.49307  -0.49176  -0.49043  -0.48789  -0.48558
 Alpha  occ. eigenvalues --   -0.48029  -0.47789  -0.47469  -0.47378  -0.46854
 Alpha  occ. eigenvalues --   -0.46131  -0.45916  -0.45823  -0.45343  -0.44729
 Alpha  occ. eigenvalues --   -0.44550  -0.44233  -0.43747  -0.43613  -0.43279
 Alpha  occ. eigenvalues --   -0.42988  -0.42824  -0.42714  -0.42336  -0.42219
 Alpha  occ. eigenvalues --   -0.41726  -0.41414  -0.40964  -0.40833  -0.40590
 Alpha  occ. eigenvalues --   -0.40491  -0.40185  -0.40065  -0.39689  -0.39287
 Alpha  occ. eigenvalues --   -0.38772  -0.38560  -0.38412  -0.38301  -0.38123
 Alpha  occ. eigenvalues --   -0.37492  -0.37179  -0.36709  -0.36417  -0.36068
 Alpha  occ. eigenvalues --   -0.35693  -0.34665  -0.34183  -0.32845  -0.31468
 Alpha  occ. eigenvalues --   -0.31031  -0.30275  -0.28552  -0.26147  -0.23944
 Alpha  occ. eigenvalues --   -0.19806
 Alpha virt. eigenvalues --   -0.05295  -0.00339   0.02578   0.05768   0.07826
 Alpha virt. eigenvalues --    0.10194   0.11110   0.11311   0.12016   0.12412
 Alpha virt. eigenvalues --    0.12461   0.12664   0.12965   0.13226   0.13461

 Mulliken charges:
               1
     1  O   -0.545907
     2  O   -0.492284
     3  C    0.004774
     4  C   -0.013371
     5  C   -0.163600
     6  C   -0.164721
     7  C    0.148652
     8  C    0.152501
     9  C    0.010897
    10  C    0.037456
    11  C   -0.203261
    12  C   -0.240891
    13  C    0.026666
    14  C    0.080811
    15  C   -0.286812
    16  C   -0.275857
    17  C   -0.285222
    18  C   -0.306285
    19  C   -0.109026
    20  C   -0.115894
    21  C   -0.360377
    22  C   -0.363663
    23  C   -0.084410
    24  C   -0.112493
    25  C    0.042249
    26  C    0.163097
    27  C   -0.351493
    28  C   -0.364063
    29  C   -0.090012
    30  C   -0.124003
    31  C   -0.076648
    32  C   -0.099099
    33  C   -0.131142
    34  C   -0.097080
    35  C    0.102940
    36  C    0.106776
    37  C   -0.364881
    38  C   -0.381394
    39  C   -0.128070
    40  C   -0.127032
    41  C   -0.078389
    42  C   -0.115693
    43  H    0.107224
    44  H    0.075626
    45  H    0.071783
    46  H    0.105683
    47  H    0.049586
    48  H    0.020341
    49  H    0.118987
    50  H    0.111209
    51  H    0.111133
    52  H    0.102110
    53  H    0.071413
    54  H    0.093523
    55  H    0.122277
    56  H    0.078295
    57  H    0.114128
    58  H    0.099249
    59  H    0.113145
    60  H    0.103707
    61  H    0.085795
    62  H    0.094169
    63  H    0.092488
    64  H    0.117117
    65  H    0.058434
    66  H    0.065878
    67  H    0.108308
    68  H    0.122849
    69  H    0.115368
    70  H    0.110661
    71  H    0.109561
    72  H    0.120587
    73  H    0.302286
    74  H    0.289609
    75  H    0.077971
    76  H    0.054775
    77  H    0.101068
    78  H    0.121557
    79  H    0.143724
    80  H    0.109205
    81  H    0.135061
    82  H    0.080805
    83  H    0.090720
    84  H    0.055804
    85  H    0.074480
    86  H    0.079547
    87  H    0.061582
    88  H    0.081538
    89  H    0.113109
    90  H    0.112794
    91  H    0.128544
    92  H    0.133994
    93  H    0.115886
    94  H    0.114651
    95  H    0.080294
    96  H    0.067538
    97  H    0.089110
    98  H    0.089973
 Sum of Mulliken charges =  -0.00000

 Dipole moment (field-independent basis, Debye):
    X=              0.9108    Y=             -1.4300    Z=              0.2568  Tot=              1.7147
 Quadrupole moment (field-independent basis, Debye-Ang):
   XX=           -252.0184   YY=           -241.4642   ZZ=           -261.3687
   XY=             10.0346   XZ=             -0.6855   YZ=              2.2489

 Normal termination of Gaussian 16 at Tue Jul  9 04:39:08 2019.
