 Gaussian 16, Revision A.03,
 Gaussian 16:  ES64L-G16RevA.03 25-Dec-2016

 -------------------------------------
 # td=(NStates=1) CAM-B3LYP/6-31G(d,p)
 -------------------------------------

 --
 TD
 --
 Symbolic Z-matrix:
 Charge =  0 Multiplicity = 1

                         Standard orientation:
 ---------------------------------------------------------------------
 Center     Atomic      Atomic             Coordinates (Angstroms)
 Number     Number       Type             X           Y           Z
 ---------------------------------------------------------------------
      1          8           0       14.692415   -2.415781   -0.238312
      2          8           0      -14.839016    1.792708    1.132772
      3          6           0       11.211305   -1.458601    0.983687
      4          6           0      -12.344577   -1.124741    0.583782
      5          6           0       12.633533   -1.873958    1.015994
      6          6           0      -13.747381   -0.385460    0.704007
      7          6           0       13.403540   -1.906027   -0.238015
      8          6           0      -13.601772    1.123810    0.893502
      9          6           0       10.979617   -0.271862    0.043622
     10          6           0      -11.313146   -0.251929   -0.192067
     11          6           0       13.326842   -0.649160   -0.958553
     12          6           0      -12.719264    1.805273   -0.169296
     13          6           0       11.942766    0.097796   -0.927192
     14          6           0      -11.531895    1.041062   -0.523347
     15          6           0       10.718882   -1.004987    2.460260
     16          6           0       10.224512   -2.636156    0.514273
     17          6           0      -11.869984   -1.434702    1.945939
     18          6           0      -12.440312   -2.448764   -0.181619
     19          6           0        9.694885    0.341194    0.198510
     20          6           0      -10.038975   -0.947967   -0.462054
     21          6           0       11.675399    1.152234   -1.943886
     22          6           0      -10.617139    1.915258   -1.365086
     23          6           0        9.308606    1.647670    0.192270
     24          6           0       -8.758198   -0.434606   -0.440610
     25          6           0        8.089914    2.249618    0.189698
     26          6           0       -7.557334   -1.140993   -0.551093
     27          6           0        7.999379    3.727770    0.578619
     28          6           0       -7.623985   -2.571320   -1.024641
     29          6           0        6.979226    1.512389   -0.114283
     30          6           0       -6.334481   -0.597688   -0.400466
     31          6           0        5.660705    2.003757    0.219206
     32          6           0       -5.031044   -1.107080   -0.547895
     33          6           0        4.523271    1.270514    0.012619
     34          6           0       -3.926402   -0.311128   -0.323696
     35          6           0        3.158697    1.762267    0.108784
     36          6           0       -2.556678   -0.697738   -0.493329
     37          6           0        2.944195    3.296772    0.384054
     38          6           0       -2.273839   -2.122970   -0.882313
     39          6           0        2.106802    0.820690   -0.188609
     40          6           0       -1.632317    0.196642   -0.191734
     41          6           0        0.699686    1.082385   -0.128686
     42          6           0       -0.314974    0.108594   -0.445518
     43          1           0       13.200805   -1.078877    1.742162
     44          1           0       12.502043   -2.721401    1.651850
     45          1           0      -14.336390   -0.869121    1.525212
     46          1           0      -14.389578   -0.711924   -0.208670
     47          1           0       12.513899   -2.705208   -0.743964
     48          1           0      -13.081366    1.238800    1.839848
     49          1           0       13.849117    0.072606   -0.470999
     50          1           0       13.639224   -0.596802   -2.059716
     51          1           0      -13.318771    2.033706   -1.054623
     52          1           0      -12.572351    2.795261    0.345427
     53          1           0       10.901788   -1.799771    2.982023
     54          1           0        9.601628   -0.682979    2.504656
     55          1           0       11.289774   -0.058508    2.764923
     56          1           0       10.646592   -3.149738   -0.367506
     57          1           0        9.994721   -3.477075    1.348079
     58          1           0        9.315855   -2.431308    0.262813
     59          1           0      -11.957047   -0.449428    2.493715
     60          1           0      -10.920384   -1.877789    1.789427
     61          1           0      -12.494435   -2.044600    2.353490
     62          1           0      -13.236463   -3.099930    0.222889
     63          1           0      -11.406582   -3.010746   -0.150963
     64          1           0      -12.843740   -2.314700   -1.332902
     65          1           0        9.014138   -0.332251    0.507318
     66          1           0      -10.125378   -2.016381   -0.611741
     67          1           0       10.552168    1.029572   -2.068731
     68          1           0       11.906737    2.201636   -1.632393
     69          1           0       12.359249    0.775857   -2.884467
     70          1           0      -11.275756    2.371969   -2.010642
     71          1           0       -9.970992    1.341591   -2.032667
     72          1           0      -10.225949    2.655882   -0.791741
     73          1           0       14.832803   -3.133193    0.191762
     74          1           0      -15.446469    1.111889    1.642788
     75          1           0       10.360656    2.298245    0.112606
     76          1           0       -8.570526    0.701802   -0.146010
     77          1           0        9.012494    4.265327    0.746000
     78          1           0        7.519156    4.364980   -0.171003
     79          1           0        7.263204    3.680989    1.375300
     80          1           0       -7.858340   -3.246246   -0.087036
     81          1           0       -8.703072   -2.720526   -1.703700
     82          1           0       -6.469860   -2.825367   -1.503033
     83          1           0        7.155218    0.392376   -0.445694
     84          1           0       -6.550738    0.428076   -0.261027
     85          1           0        5.570539    3.205964    0.465705
     86          1           0       -5.032337   -2.132904   -0.710948
     87          1           0        4.533702    0.194761   -0.132684
     88          1           0       -4.404054    0.771432    0.012788
     89          1           0        3.825058    3.580443    1.138464
     90          1           0        1.747327    3.323312    0.820965
     91          1           0        2.917436    3.980169   -0.609193
     92          1           0       -2.472545   -2.681665   -0.025870
     93          1           0       -3.111979   -2.388339   -1.767729
     94          1           0       -1.212581   -2.178995   -1.069807
     95          1           0        2.460552   -0.148431   -0.377379
     96          1           0       -1.846079    1.246806    0.270156
     97          1           0        0.350539    2.189492    0.037947
     98          1           0       -0.118243   -1.051311   -0.880183
 ---------------------------------------------------------------------

 SCF Done:  E(RCAM-B3LYP) =  -1706.86931457     A.U. after   15 cycles

 Excitation energies and oscillator strengths:

 Excited State   1:      Singlet-A      2.0772 eV  596.89 nm  f=3.7832  <S**2>=0.000
     155 ->158        -0.15913
     156 ->157         0.68776
 This state for optimization and/or second-order correction.
 Total Energy, E(TD-HF/TD-DFT) =  -1706.79297990
 Copying the excited state density for this state as the 1-particle RhoCI density.

 The electronic state is 1-A.
 Alpha  occ. eigenvalues --  -19.21582 -19.21383 -10.32576 -10.30202 -10.29753
 Alpha  occ. eigenvalues --  -10.28754 -10.28682 -10.28677 -10.28212 -10.27984
 Alpha  occ. eigenvalues --  -10.27947 -10.27825 -10.27670 -10.27382 -10.27290
 Alpha  occ. eigenvalues --  -10.26973 -10.26949 -10.26920 -10.26835 -10.26827
 Alpha  occ. eigenvalues --  -10.26738 -10.26725 -10.26584 -10.26453 -10.26340
 Alpha  occ. eigenvalues --  -10.26326 -10.26170 -10.26130 -10.26021 -10.25967
 Alpha  occ. eigenvalues --  -10.25952 -10.25908 -10.25840 -10.25602 -10.25500
 Alpha  occ. eigenvalues --  -10.25409 -10.24994 -10.24899 -10.24880 -10.24795
 Alpha  occ. eigenvalues --  -10.23106 -10.22726  -1.13585  -1.07797  -0.94127
 Alpha  occ. eigenvalues --   -0.93757  -0.93174  -0.91984  -0.91444  -0.89749
 Alpha  occ. eigenvalues --   -0.88335  -0.87171  -0.87006  -0.86403  -0.84938
 Alpha  occ. eigenvalues --   -0.83230  -0.81904  -0.80650  -0.79909  -0.78207
 Alpha  occ. eigenvalues --   -0.77097  -0.76657  -0.76402  -0.76189  -0.76166
 Alpha  occ. eigenvalues --   -0.75544  -0.74715  -0.74612  -0.73568  -0.71635
 Alpha  occ. eigenvalues --   -0.70168  -0.68132  -0.66940  -0.65295  -0.64103
 Alpha  occ. eigenvalues --   -0.63873  -0.62876  -0.61557  -0.60304  -0.59341
 Alpha  occ. eigenvalues --   -0.58988  -0.58485  -0.57591  -0.57345  -0.56736
 Alpha  occ. eigenvalues --   -0.56176  -0.55109  -0.54815  -0.54633  -0.53610
 Alpha  occ. eigenvalues --   -0.53070  -0.52840  -0.52567  -0.51864  -0.51007
 Alpha  occ. eigenvalues --   -0.50964  -0.50368  -0.50098  -0.49880  -0.49349
 Alpha  occ. eigenvalues --   -0.49110  -0.48597  -0.48336  -0.48153  -0.47944
 Alpha  occ. eigenvalues --   -0.47854  -0.47530  -0.47075  -0.46608  -0.46529
 Alpha  occ. eigenvalues --   -0.46099  -0.45820  -0.45671  -0.45529  -0.45345
 Alpha  occ. eigenvalues --   -0.44865  -0.44401  -0.44238  -0.43988  -0.43564
 Alpha  occ. eigenvalues --   -0.43075  -0.42777  -0.42693  -0.42443  -0.42026
 Alpha  occ. eigenvalues --   -0.41780  -0.41486  -0.41245  -0.41095  -0.40733
 Alpha  occ. eigenvalues --   -0.40606  -0.40169  -0.39878  -0.39615  -0.39077
 Alpha  occ. eigenvalues --   -0.38829  -0.38602  -0.38416  -0.37996  -0.37908
 Alpha  occ. eigenvalues --   -0.37639  -0.37373  -0.37166  -0.36546  -0.36222
 Alpha  occ. eigenvalues --   -0.35510  -0.35237  -0.34663  -0.32726  -0.31569
 Alpha  occ. eigenvalues --   -0.30664  -0.29860  -0.28387  -0.25725  -0.23140
 Alpha  occ. eigenvalues --   -0.19377
 Alpha virt. eigenvalues --   -0.06405  -0.01692   0.01562   0.05650   0.07859
 Alpha virt. eigenvalues --    0.09497   0.10001   0.10856   0.11146   0.11664
 Alpha virt. eigenvalues --    0.11888   0.11974   0.12639   0.13106   0.13383

 Mulliken charges:
               1
     1  O   -0.517146
     2  O   -0.582590
     3  C   -0.037606
     4  C   -0.040100
     5  C   -0.191241
     6  C   -0.223836
     7  C    0.221348
     8  C    0.193178
     9  C    0.086535
    10  C    0.108620
    11  C   -0.193657
    12  C   -0.235743
    13  C    0.005003
    14  C    0.022657
    15  C   -0.288093
    16  C   -0.308645
    17  C   -0.253304
    18  C   -0.299733
    19  C   -0.117556
    20  C   -0.153205
    21  C   -0.352226
    22  C   -0.352109
    23  C   -0.122135
    24  C   -0.099576
    25  C    0.122874
    26  C    0.137847
    27  C   -0.377697
    28  C   -0.358484
    29  C   -0.118753
    30  C   -0.122431
    31  C   -0.117672
    32  C   -0.076373
    33  C   -0.095357
    34  C   -0.102358
    35  C    0.089011
    36  C    0.059329
    37  C   -0.339593
    38  C   -0.342698
    39  C   -0.104248
    40  C   -0.057790
    41  C   -0.126841
    42  C   -0.085498
    43  H    0.060112
    44  H    0.099009
    45  H    0.073281
    46  H    0.086247
    47  H    0.008318
    48  H    0.081696
    49  H    0.135396
    50  H    0.103136
    51  H    0.121679
    52  H    0.115432
    53  H    0.106787
    54  H    0.099253
    55  H    0.102267
    56  H    0.107916
    57  H    0.068382
    58  H    0.121809
    59  H    0.092228
    60  H    0.101697
    61  H    0.106561
    62  H    0.097401
    63  H    0.094935
    64  H    0.084771
    65  H    0.074279
    66  H    0.070502
    67  H    0.136267
    68  H    0.124659
    69  H    0.081365
    70  H    0.111130
    71  H    0.119359
    72  H    0.125009
    73  H    0.285954
    74  H    0.310212
    75  H    0.054094
    76  H    0.078263
    77  H    0.110410
    78  H    0.127139
    79  H    0.131658
    80  H    0.107444
    81  H    0.089119
    82  H    0.084808
    83  H    0.086811
    84  H    0.059382
    85  H    0.079568
    86  H    0.080579
    87  H    0.083278
    88  H    0.086483
    89  H    0.110100
    90  H    0.084617
    91  H    0.121382
    92  H    0.147572
    93  H    0.104331
    94  H    0.106768
    95  H    0.085132
    96  H    0.077803
    97  H    0.090643
    98  H    0.053461
 Sum of Mulliken charges =  -0.00000

 Dipole moment (field-independent basis, Debye):
    X=              0.7019    Y=             -1.7342    Z=              1.4501  Tot=              2.3670
 Quadrupole moment (field-independent basis, Debye-Ang):
   XX=           -265.5236   YY=           -246.7336   ZZ=           -267.1881
   XY=             15.5582   XZ=              2.4960   YZ=             -3.8384

 Normal termination of Gaussian 16 at Thu Jul 18 05:30:03 2019.
