 Gaussian 16, Revision A.03,
 Gaussian 16:  ES64L-G16RevA.03 25-Dec-2016

 -------------------------------------
 # td=(NStates=1) CAM-B3LYP/6-31G(d,p)
 -------------------------------------

 --
 TD
 --
 Symbolic Z-matrix:
 Charge =  0 Multiplicity = 1

                         Standard orientation:
 ---------------------------------------------------------------------
 Center     Atomic      Atomic             Coordinates (Angstroms)
 Number     Number       Type             X           Y           Z
 ---------------------------------------------------------------------
      1          8           0       14.524233   -2.578818   -0.278023
      2          8           0      -14.941661    1.613088    1.202168
      3          6           0       11.088912   -1.504689    0.993231
      4          6           0      -12.294389   -1.213500    0.584080
      5          6           0       12.583195   -1.976501    1.095038
      6          6           0      -13.735613   -0.422991    0.732134
      7          6           0       13.196388   -2.153619   -0.259894
      8          6           0      -13.623741    1.023340    1.078612
      9          6           0       10.955472   -0.281714    0.040253
     10          6           0      -11.309516   -0.251315   -0.175042
     11          6           0       13.249378   -0.785405   -0.866969
     12          6           0      -12.820530    1.851296   -0.016751
     13          6           0       11.899979    0.088746   -0.801536
     14          6           0      -11.608692    1.040816   -0.483546
     15          6           0       10.664287   -0.960895    2.386530
     16          6           0       10.133919   -2.728186    0.573205
     17          6           0      -11.755556   -1.514184    2.004897
     18          6           0      -12.558351   -2.510859   -0.150771
     19          6           0        9.690432    0.427479    0.104412
     20          6           0      -10.041508   -0.918019   -0.601724
     21          6           0       11.839820    1.197146   -1.762981
     22          6           0      -10.750198    1.858049   -1.407344
     23          6           0        9.360823    1.767647    0.106236
     24          6           0       -8.793973   -0.399111   -0.418933
     25          6           0        8.110089    2.257991    0.183010
     26          6           0       -7.529058   -1.131115   -0.706442
     27          6           0        8.096198    3.779365    0.618933
     28          6           0       -7.601121   -2.551580   -1.142040
     29          6           0        7.062040    1.540344    0.052948
     30          6           0       -6.337973   -0.524645   -0.526120
     31          6           0        5.727645    2.055604    0.157978
     32          6           0       -4.970080   -0.885082   -0.608462
     33          6           0        4.528660    1.321818   -0.251550
     34          6           0       -3.945478   -0.164161   -0.342614
     35          6           0        3.210760    1.773936   -0.078901
     36          6           0       -2.606023   -0.569727   -0.478051
     37          6           0        2.909897    3.165854    0.481781
     38          6           0       -2.278711   -1.987569   -0.783540
     39          6           0        2.200552    0.856703   -0.269388
     40          6           0       -1.527147    0.352402   -0.286638
     41          6           0        0.795740    1.194932   -0.187671
     42          6           0       -0.167492    0.220448   -0.445996
     43          1           0       13.136179   -1.232591    1.509693
     44          1           0       12.532591   -2.888153    1.713804
     45          1           0      -14.207565   -0.941899    1.488891
     46          1           0      -14.338927   -0.620890   -0.212809
     47          1           0       12.462749   -2.787154   -0.956036
     48          1           0      -13.088101    0.979897    2.123146
     49          1           0       13.945746   -0.334091   -0.266117
     50          1           0       13.490314   -0.843894   -1.999111
     51          1           0      -13.430477    1.983267   -0.827243
     52          1           0      -12.595029    2.776780    0.303916
     53          1           0       10.877982   -1.729523    3.232308
     54          1           0        9.621090   -0.635928    2.270677
     55          1           0       11.148463   -0.093258    2.833689
     56          1           0       10.405948   -3.341754   -0.496410
     57          1           0       10.046314   -3.485026    1.398946
     58          1           0        8.988466   -2.247655    0.698008
     59          1           0      -11.644926   -0.554425    2.533967
     60          1           0      -10.768115   -1.894541    1.790029
     61          1           0      -12.431693   -2.155417    2.647700
     62          1           0      -13.409804   -2.858446    0.163382
     63          1           0      -11.847542   -3.357940   -0.023148
     64          1           0      -12.729341   -2.402242   -1.316202
     65          1           0        8.788693   -0.255239    0.190220
     66          1           0      -10.024909   -2.098193   -0.675585
     67          1           0       10.761316    1.498496   -1.980215
     68          1           0       12.400698    2.069330   -1.272763
     69          1           0       12.341190    0.878376   -2.486338
     70          1           0      -11.237092    2.463865   -2.229515
     71          1           0      -10.075466    1.246358   -1.987368
     72          1           0      -10.114939    2.534359   -1.021192
     73          1           0       14.722697   -3.316517    0.246486
     74          1           0      -15.365719    1.156886    1.811455
     75          1           0       10.319566    2.255519   -0.140677
     76          1           0       -8.753030    0.626299   -0.098106
     77          1           0        9.176267    4.173508    0.852560
     78          1           0        7.665548    4.365356   -0.157593
     79          1           0        7.688170    3.878469    1.520153
     80          1           0       -7.936667   -3.253637   -0.303644
     81          1           0       -8.467051   -2.430318   -1.980150
     82          1           0       -6.668401   -3.001868   -1.509919
     83          1           0        7.021434    0.647328   -0.486627
     84          1           0       -6.419704    0.574704   -0.226528
     85          1           0        5.668750    3.316252    0.355214
     86          1           0       -4.706492   -1.943176   -1.065811
     87          1           0        4.714992    0.318089   -0.407656
     88          1           0       -4.194273    0.835067   -0.030376
     89          1           0        3.156618    3.270749    1.705701
     90          1           0        1.907134    3.446711    0.497778
     91          1           0        3.312345    4.015041   -0.096217
     92          1           0       -2.752751   -2.801648   -0.166123
     93          1           0       -2.463319   -2.239763   -1.959869
     94          1           0       -1.051375   -2.542046   -0.542211
     95          1           0        2.662358   -0.001558   -0.667997
     96          1           0       -1.757091    1.241227    0.224202
     97          1           0        0.526712    2.213384    0.189703
     98          1           0        0.034676   -0.784956   -0.947478
 ---------------------------------------------------------------------

 SCF Done:  E(RCAM-B3LYP) =  -1706.94914435     A.U. after   15 cycles

 Excitation energies and oscillator strengths:

 Excited State   1:      Singlet-A      2.2494 eV  551.19 nm  f=3.6613  <S**2>=0.000
     155 ->158        -0.14973
     156 ->157         0.69029
 This state for optimization and/or second-order correction.
 Total Energy, E(TD-HF/TD-DFT) =  -1706.86648147
 Copying the excited state density for this state as the 1-particle RhoCI density.

 The electronic state is 1-A.
 Alpha  occ. eigenvalues --  -19.21327 -19.20053 -10.31275 -10.30796 -10.29068
 Alpha  occ. eigenvalues --  -10.28635 -10.28557 -10.28354 -10.28080 -10.27974
 Alpha  occ. eigenvalues --  -10.27597 -10.27253 -10.27177 -10.26805 -10.26651
 Alpha  occ. eigenvalues --  -10.26637 -10.26436 -10.26381 -10.26360 -10.26282
 Alpha  occ. eigenvalues --  -10.26202 -10.26139 -10.26067 -10.25988 -10.25984
 Alpha  occ. eigenvalues --  -10.25805 -10.25688 -10.25607 -10.25268 -10.25155
 Alpha  occ. eigenvalues --  -10.25149 -10.25108 -10.25100 -10.24990 -10.24843
 Alpha  occ. eigenvalues --  -10.24689 -10.24501 -10.24357 -10.24301 -10.24273
 Alpha  occ. eigenvalues --  -10.24264 -10.23455  -1.11115  -1.10456  -0.93931
 Alpha  occ. eigenvalues --   -0.92669  -0.92471  -0.92246  -0.91030  -0.89845
 Alpha  occ. eigenvalues --   -0.87369  -0.87026  -0.86819  -0.85719  -0.84582
 Alpha  occ. eigenvalues --   -0.83291  -0.81996  -0.80343  -0.79893  -0.77727
 Alpha  occ. eigenvalues --   -0.77359  -0.76905  -0.76682  -0.76457  -0.75636
 Alpha  occ. eigenvalues --   -0.75522  -0.75368  -0.74395  -0.73314  -0.70831
 Alpha  occ. eigenvalues --   -0.69217  -0.67391  -0.66108  -0.65206  -0.64436
 Alpha  occ. eigenvalues --   -0.63776  -0.62598  -0.60989  -0.60255  -0.59753
 Alpha  occ. eigenvalues --   -0.59339  -0.59116  -0.58281  -0.57968  -0.56764
 Alpha  occ. eigenvalues --   -0.56428  -0.55909  -0.54827  -0.54505  -0.53678
 Alpha  occ. eigenvalues --   -0.53275  -0.52561  -0.52197  -0.51598  -0.51186
 Alpha  occ. eigenvalues --   -0.50782  -0.50125  -0.49959  -0.49330  -0.48991
 Alpha  occ. eigenvalues --   -0.48858  -0.48464  -0.48195  -0.47845  -0.47696
 Alpha  occ. eigenvalues --   -0.47540  -0.47231  -0.47025  -0.46859  -0.46514
 Alpha  occ. eigenvalues --   -0.46419  -0.46145  -0.45748  -0.45181  -0.44938
 Alpha  occ. eigenvalues --   -0.44708  -0.44257  -0.43891  -0.43777  -0.43332
 Alpha  occ. eigenvalues --   -0.42867  -0.42715  -0.42522  -0.42253  -0.42053
 Alpha  occ. eigenvalues --   -0.41600  -0.41418  -0.41028  -0.40623  -0.40328
 Alpha  occ. eigenvalues --   -0.40132  -0.40031  -0.39641  -0.39367  -0.39159
 Alpha  occ. eigenvalues --   -0.38952  -0.38598  -0.38420  -0.38351  -0.38067
 Alpha  occ. eigenvalues --   -0.37671  -0.36959  -0.36386  -0.36060  -0.35892
 Alpha  occ. eigenvalues --   -0.35852  -0.34990  -0.34173  -0.32561  -0.32147
 Alpha  occ. eigenvalues --   -0.32041  -0.30495  -0.28723  -0.26300  -0.23771
 Alpha  occ. eigenvalues --   -0.19457
 Alpha virt. eigenvalues --   -0.05641  -0.00889   0.02337   0.05863   0.08480
 Alpha virt. eigenvalues --    0.10109   0.10677   0.11336   0.11958   0.12706
 Alpha virt. eigenvalues --    0.12865   0.13466   0.13762   0.13832   0.14167

 Mulliken charges:
               1
     1  O   -0.549004
     2  O   -0.540432
     3  C   -0.020981
     4  C   -0.024549
     5  C   -0.179612
     6  C   -0.197489
     7  C    0.179384
     8  C    0.147445
     9  C    0.106373
    10  C    0.064319
    11  C   -0.210474
    12  C   -0.198764
    13  C    0.005958
    14  C    0.034443
    15  C   -0.308250
    16  C   -0.291444
    17  C   -0.297980
    18  C   -0.302666
    19  C   -0.147424
    20  C   -0.161858
    21  C   -0.335385
    22  C   -0.389732
    23  C   -0.111046
    24  C   -0.071075
    25  C    0.116736
    26  C    0.112278
    27  C   -0.372168
    28  C   -0.370696
    29  C   -0.123736
    30  C   -0.143304
    31  C   -0.100239
    32  C   -0.066593
    33  C   -0.158829
    34  C   -0.074874
    35  C    0.132912
    36  C    0.109248
    37  C   -0.360934
    38  C   -0.370943
    39  C   -0.106173
    40  C   -0.122955
    41  C   -0.110772
    42  C   -0.062924
    43  H    0.103148
    44  H    0.082246
    45  H    0.085293
    46  H    0.093789
    47  H    0.049240
    48  H    0.062788
    49  H    0.124881
    50  H    0.096433
    51  H    0.132642
    52  H    0.122056
    53  H    0.080562
    54  H    0.111146
    55  H    0.113176
    56  H    0.096337
    57  H    0.107104
    58  H    0.079194
    59  H    0.103418
    60  H    0.111064
    61  H    0.094768
    62  H    0.114661
    63  H    0.096458
    64  H    0.092264
    65  H    0.073484
    66  H    0.085148
    67  H    0.121085
    68  H    0.111074
    69  H    0.108874
    70  H    0.095882
    71  H    0.120465
    72  H    0.125366
    73  H    0.300744
    74  H    0.287660
    75  H    0.083579
    76  H    0.092400
    77  H    0.094822
    78  H    0.129838
    79  H    0.141354
    80  H    0.114875
    81  H    0.106260
    82  H    0.115623
    83  H    0.096199
    84  H    0.060581
    85  H    0.067725
    86  H    0.066268
    87  H    0.085168
    88  H    0.080850
    89  H    0.095081
    90  H    0.111139
    91  H    0.117279
    92  H    0.130794
    93  H    0.106107
    94  H    0.063515
    95  H    0.082681
    96  H    0.070778
    97  H    0.098565
    98  H    0.080275
 Sum of Mulliken charges =  -0.00000

 Dipole moment (field-independent basis, Debye):
    X=              1.7971    Y=             -1.5394    Z=              1.7614  Tot=              2.9499
 Quadrupole moment (field-independent basis, Debye-Ang):
   XX=           -262.2477   YY=           -242.1932   ZZ=           -260.8851
   XY=             13.4552   XZ=              0.0697   YZ=             -1.5606

 Normal termination of Gaussian 16 at Tue Jul 16 10:30:21 2019.
