 Gaussian 16, Revision A.03,
 Gaussian 16:  ES64L-G16RevA.03 25-Dec-2016

 -------------------------------------
 # td=(NStates=1) CAM-B3LYP/6-31G(d,p)
 -------------------------------------

 --
 TD
 --
 Symbolic Z-matrix:
 Charge =  0 Multiplicity = 1

                         Standard orientation:
 ---------------------------------------------------------------------
 Center     Atomic      Atomic             Coordinates (Angstroms)
 Number     Number       Type             X           Y           Z
 ---------------------------------------------------------------------
      1          8           0       14.678176   -2.255256   -0.227488
      2          8           0      -14.646765    1.940783    1.022349
      3          6           0       11.201690   -1.460433    1.069436
      4          6           0      -12.390418   -0.976720    0.589007
      5          6           0       12.655774   -1.747492    1.072919
      6          6           0      -13.675317   -0.224153    0.580625
      7          6           0       13.228785   -1.900669   -0.337818
      8          6           0      -13.435819    1.264690    0.928005
      9          6           0       10.924832   -0.221892    0.089220
     10          6           0      -11.279384   -0.263619   -0.164948
     11          6           0       13.184404   -0.599985   -0.984856
     12          6           0      -12.613373    1.861934   -0.162864
     13          6           0       11.844475    0.103968   -0.885268
     14          6           0      -11.282197    1.023201   -0.482509
     15          6           0       10.690678   -1.052963    2.530661
     16          6           0       10.418847   -2.753002    0.801535
     17          6           0      -11.879460   -1.275814    1.977698
     18          6           0      -12.619200   -2.326337   -0.016574
     19          6           0        9.499645    0.285207    0.096930
     20          6           0      -10.073892   -1.042134   -0.433991
     21          6           0       11.709765    1.140049   -1.838648
     22          6           0      -10.365302    1.802615   -1.386563
     23          6           0        9.326597    1.673853    0.085571
     24          6           0       -8.785283   -0.683600   -0.242324
     25          6           0        7.949342    2.198006    0.128650
     26          6           0       -7.533008   -1.372377   -0.522156
     27          6           0        7.923041    3.682995    0.547848
     28          6           0       -7.730085   -2.777462   -0.998759
     29          6           0        6.899034    1.527163    0.008345
     30          6           0       -6.278695   -0.791004   -0.315601
     31          6           0        5.575654    2.034417    0.277494
     32          6           0       -5.019755   -1.170980   -0.612930
     33          6           0        4.416550    1.305794   -0.101418
     34          6           0       -3.927858   -0.382185   -0.422189
     35          6           0        3.113431    1.827533    0.051599
     36          6           0       -2.564325   -0.776639   -0.568514
     37          6           0        2.783635    3.230513    0.410103
     38          6           0       -2.296498   -2.123255   -1.042772
     39          6           0        2.096296    0.924329   -0.302295
     40          6           0       -1.569886    0.216097   -0.344717
     41          6           0        0.710822    1.025207   -0.123705
     42          6           0       -0.169873    0.070750   -0.403407
     43          1           0       13.272146   -0.920015    1.479845
     44          1           0       12.997375   -2.488141    1.644648
     45          1           0      -14.444759   -0.512789    1.233788
     46          1           0      -14.312917   -0.244127   -0.261018
     47          1           0       12.749699   -2.575210   -1.056012
     48          1           0      -12.897891    0.960947    1.940306
     49          1           0       13.934657    0.094940   -0.785542
     50          1           0       13.175460   -0.698816   -2.049454
     51          1           0      -13.138030    1.955887   -0.988954
     52          1           0      -12.290098    2.917645   -0.065564
     53          1           0       11.162836   -1.764027    3.183820
     54          1           0        9.675203   -0.832182    2.438475
     55          1           0       11.086833   -0.039312    2.801819
     56          1           0       10.512892   -3.268161   -0.294532
     57          1           0       10.440957   -3.557228    1.484019
     58          1           0        9.354919   -2.612251    0.570902
     59          1           0      -11.680083   -0.408151    2.798804
     60          1           0      -11.061990   -1.805450    1.936228
     61          1           0      -12.830012   -1.696766    2.546009
     62          1           0      -13.261533   -2.860028    0.714636
     63          1           0      -12.027978   -3.095746   -0.005640
     64          1           0      -13.240257   -2.231306   -1.059158
     65          1           0        8.529139   -0.383436    0.437484
     66          1           0      -10.255580   -2.074465   -0.922807
     67          1           0       10.741983    1.277423   -2.064800
     68          1           0       12.134568    2.137353   -1.585155
     69          1           0       11.958541    0.745084   -2.765915
     70          1           0      -10.816892    2.537472   -2.183174
     71          1           0       -9.636544    1.308898   -2.012126
     72          1           0       -9.675189    2.592238   -0.879453
     73          1           0       14.995581   -3.049165    0.067139
     74          1           0      -15.167925    1.668563    1.785183
     75          1           0       10.238370    2.327404    0.056384
     76          1           0       -8.571427    0.316708    0.255396
     77          1           0        8.828438    4.146310    0.391784
     78          1           0        7.200667    4.344764   -0.112424
     79          1           0        7.498398    3.798695    1.441241
     80          1           0       -8.445407   -3.425338   -0.220902
     81          1           0       -8.259660   -2.835355   -2.008110
     82          1           0       -6.820362   -3.393408   -1.046507
     83          1           0        6.940520    0.518642   -0.559230
     84          1           0       -6.418788    0.298502    0.199132
     85          1           0        5.436834    3.263766    0.696444
     86          1           0       -4.649012   -2.096409   -1.236814
     87          1           0        4.310932    0.310459   -0.391436
     88          1           0       -4.302857    0.793680   -0.231814
     89          1           0        2.877900    3.235188    1.527480
     90          1           0        1.762807    3.416403    0.270710
     91          1           0        3.447130    3.910435   -0.090807
     92          1           0       -2.669864   -2.971519   -0.359033
     93          1           0       -2.715081   -2.217178   -1.948120
     94          1           0       -1.236429   -2.448500   -1.091179
     95          1           0        2.495503   -0.101150   -0.492481
     96          1           0       -1.692125    1.305533   -0.056774
     97          1           0        0.474942    2.130418    0.036222
     98          1           0        0.050166   -0.845589   -0.776785
 ---------------------------------------------------------------------

 SCF Done:  E(RCAM-B3LYP) =  -1706.91230089     A.U. after   15 cycles

 Excitation energies and oscillator strengths:

 Excited State   1:      Singlet-A      2.2620 eV  548.12 nm  f=3.7537  <S**2>=0.000
     155 ->158        -0.15721
     156 ->157         0.68814
 This state for optimization and/or second-order correction.
 Total Energy, E(TD-HF/TD-DFT) =  -1706.82917389
 Copying the excited state density for this state as the 1-particle RhoCI density.

 The electronic state is 1-A.
 Alpha  occ. eigenvalues --  -19.21253 -19.18802 -10.30262 -10.30237 -10.28860
 Alpha  occ. eigenvalues --  -10.28139 -10.27969 -10.27656 -10.27329 -10.27247
 Alpha  occ. eigenvalues --  -10.27222 -10.27180 -10.27026 -10.26897 -10.26897
 Alpha  occ. eigenvalues --  -10.26709 -10.26604 -10.26564 -10.26505 -10.26468
 Alpha  occ. eigenvalues --  -10.26246 -10.26170 -10.25939 -10.25924 -10.25917
 Alpha  occ. eigenvalues --  -10.25861 -10.25852 -10.25812 -10.25427 -10.25291
 Alpha  occ. eigenvalues --  -10.25192 -10.25180 -10.25043 -10.25016 -10.24407
 Alpha  occ. eigenvalues --  -10.24209 -10.23959 -10.23748 -10.23564 -10.23380
 Alpha  occ. eigenvalues --  -10.23076 -10.22966  -1.10197  -1.06858  -0.94327
 Alpha  occ. eigenvalues --   -0.93709  -0.92767  -0.92137  -0.91258  -0.89947
 Alpha  occ. eigenvalues --   -0.88263  -0.88014  -0.87024  -0.85559  -0.85241
 Alpha  occ. eigenvalues --   -0.83348  -0.82551  -0.80764  -0.79551  -0.79251
 Alpha  occ. eigenvalues --   -0.77726  -0.76931  -0.76552  -0.76270  -0.76175
 Alpha  occ. eigenvalues --   -0.75798  -0.75454  -0.75402  -0.73545  -0.71013
 Alpha  occ. eigenvalues --   -0.69042  -0.67813  -0.66249  -0.65573  -0.64930
 Alpha  occ. eigenvalues --   -0.63936  -0.62887  -0.62251  -0.60204  -0.59318
 Alpha  occ. eigenvalues --   -0.58865  -0.58682  -0.58427  -0.57031  -0.56467
 Alpha  occ. eigenvalues --   -0.56092  -0.55886  -0.55201  -0.54948  -0.53911
 Alpha  occ. eigenvalues --   -0.53343  -0.53217  -0.52431  -0.51822  -0.51402
 Alpha  occ. eigenvalues --   -0.50977  -0.50841  -0.50370  -0.50074  -0.49779
 Alpha  occ. eigenvalues --   -0.49501  -0.49144  -0.48821  -0.48334  -0.48257
 Alpha  occ. eigenvalues --   -0.47745  -0.47657  -0.46977  -0.46886  -0.46795
 Alpha  occ. eigenvalues --   -0.46598  -0.46355  -0.45889  -0.45143  -0.44799
 Alpha  occ. eigenvalues --   -0.44391  -0.44277  -0.43605  -0.43357  -0.42957
 Alpha  occ. eigenvalues --   -0.42653  -0.42574  -0.42094  -0.41815  -0.41464
 Alpha  occ. eigenvalues --   -0.41126  -0.40977  -0.40848  -0.40591  -0.40474
 Alpha  occ. eigenvalues --   -0.40386  -0.39880  -0.39125  -0.38940  -0.38876
 Alpha  occ. eigenvalues --   -0.38641  -0.38604  -0.38482  -0.37888  -0.37516
 Alpha  occ. eigenvalues --   -0.37370  -0.36919  -0.36892  -0.36433  -0.35485
 Alpha  occ. eigenvalues --   -0.35349  -0.35057  -0.34190  -0.32398  -0.31749
 Alpha  occ. eigenvalues --   -0.30294  -0.30160  -0.28282  -0.26496  -0.23543
 Alpha  occ. eigenvalues --   -0.19570
 Alpha virt. eigenvalues --   -0.05741  -0.00992   0.02459   0.05840   0.08097
 Alpha virt. eigenvalues --    0.09316   0.11078   0.11425   0.12110   0.12259
 Alpha virt. eigenvalues --    0.13152   0.13361   0.13660   0.13761   0.14086

 Mulliken charges:
               1
     1  O   -0.600696
     2  O   -0.559895
     3  C   -0.011841
     4  C   -0.011906
     5  C   -0.172531
     6  C   -0.191678
     7  C    0.171334
     8  C    0.170489
     9  C    0.038066
    10  C    0.094403
    11  C   -0.185226
    12  C   -0.202603
    13  C    0.025454
    14  C    0.052919
    15  C   -0.299662
    16  C   -0.306237
    17  C   -0.283843
    18  C   -0.288721
    19  C   -0.143356
    20  C   -0.160261
    21  C   -0.368794
    22  C   -0.380080
    23  C   -0.107376
    24  C   -0.091895
    25  C    0.119743
    26  C    0.129676
    27  C   -0.368636
    28  C   -0.372819
    29  C   -0.132639
    30  C   -0.145004
    31  C   -0.122015
    32  C   -0.065751
    33  C   -0.094042
    34  C   -0.098591
    35  C    0.119324
    36  C    0.085341
    37  C   -0.366477
    38  C   -0.397434
    39  C   -0.149164
    40  C   -0.114950
    41  C   -0.089936
    42  C   -0.048605
    43  H    0.099907
    44  H    0.081181
    45  H    0.070953
    46  H    0.097329
    47  H    0.092514
    48  H    0.058766
    49  H    0.130643
    50  H    0.099797
    51  H    0.127798
    52  H    0.094914
    53  H    0.104033
    54  H    0.113650
    55  H    0.093499
    56  H    0.066413
    57  H    0.116123
    58  H    0.099228
    59  H    0.086065
    60  H    0.121755
    61  H    0.083702
    62  H    0.084805
    63  H    0.109970
    64  H    0.087706
    65  H    0.103979
    66  H    0.085251
    67  H    0.129059
    68  H    0.120123
    69  H    0.108818
    70  H    0.095671
    71  H    0.127656
    72  H    0.100260
    73  H    0.292265
    74  H    0.307634
    75  H    0.100289
    76  H    0.074737
    77  H    0.109768
    78  H    0.089392
    79  H    0.138810
    80  H    0.088318
    81  H    0.116118
    82  H    0.107830
    83  H    0.088756
    84  H    0.069331
    85  H    0.076485
    86  H    0.082893
    87  H    0.083539
    88  H    0.072489
    89  H    0.125656
    90  H    0.114666
    91  H    0.126157
    92  H    0.120429
    93  H    0.146243
    94  H    0.114392
    95  H    0.066665
    96  H    0.078661
    97  H    0.076106
    98  H    0.066715
 Sum of Mulliken charges =  -0.00000

 Dipole moment (field-independent basis, Debye):
    X=              0.8251    Y=             -1.5078    Z=              0.5304  Tot=              1.7988
 Quadrupole moment (field-independent basis, Debye-Ang):
   XX=           -275.7596   YY=           -241.8652   ZZ=           -259.1095
   XY=             12.4254   XZ=             -9.2719   YZ=              1.9787

 Normal termination of Gaussian 16 at Wed Jul 17 20:34:23 2019.
