 Gaussian 16, Revision A.03,
 Gaussian 16:  ES64L-G16RevA.03 25-Dec-2016

 -------------------------------------
 # td=(NStates=1) CAM-B3LYP/6-31G(d,p)
 -------------------------------------

 --
 TD
 --
 Symbolic Z-matrix:
 Charge =  0 Multiplicity = 1

                         Standard orientation:
 ---------------------------------------------------------------------
 Center     Atomic      Atomic             Coordinates (Angstroms)
 Number     Number       Type             X           Y           Z
 ---------------------------------------------------------------------
      1          8           0       14.713104   -2.141023   -0.379681
      2          8           0      -14.697920    2.080627    0.722487
      3          6           0       11.253896   -1.396549    1.077485
      4          6           0      -12.319531   -0.893938    0.650048
      5          6           0       12.739069   -1.653087    1.047840
      6          6           0      -13.684149   -0.172278    0.635342
      7          6           0       13.317706   -1.782585   -0.415533
      8          6           0      -13.485916    1.369926    0.750619
      9          6           0       10.910291   -0.223917   -0.016891
     10          6           0      -11.229499   -0.211530   -0.180418
     11          6           0       13.243096   -0.485172   -1.070992
     12          6           0      -12.643916    1.825619   -0.454239
     13          6           0       11.854420    0.136709   -1.026963
     14          6           0      -11.414826    0.960008   -0.766039
     15          6           0       10.836540   -0.816876    2.458876
     16          6           0       10.415491   -2.635004    0.560435
     17          6           0      -11.990424   -1.071905    2.135382
     18          6           0      -12.806787   -2.351464    0.215154
     19          6           0        9.678722    0.387187    0.113872
     20          6           0      -10.074709   -1.078322   -0.400684
     21          6           0       11.535222    1.162028   -2.030579
     22          6           0      -10.390717    1.657464   -1.689616
     23          6           0        9.327919    1.626456   -0.004388
     24          6           0       -8.810344   -0.555770   -0.513361
     25          6           0        8.061771    2.312887    0.146193
     26          6           0       -7.560956   -1.322018   -0.521515
     27          6           0        7.870894    3.663844    0.601482
     28          6           0       -7.688670   -2.754942   -0.873173
     29          6           0        6.873480    1.497115   -0.008548
     30          6           0       -6.379157   -0.620135   -0.403398
     31          6           0        5.571494    1.959121    0.254772
     32          6           0       -5.036745   -1.104679   -0.541862
     33          6           0        4.389805    1.164962   -0.033415
     34          6           0       -3.885910   -0.363865   -0.220750
     35          6           0        3.065506    1.545898    0.167410
     36          6           0       -2.524199   -0.844241   -0.329909
     37          6           0        2.785741    3.046846    0.603089
     38          6           0       -2.297928   -2.221161   -0.919290
     39          6           0        2.138250    0.571615    0.060059
     40          6           0       -1.550987    0.074620   -0.131266
     41          6           0        0.826598    0.873439    0.151526
     42          6           0       -0.128423   -0.128344   -0.272299
     43          1           0       13.312138   -0.899487    1.477972
     44          1           0       13.071536   -2.656914    1.522436
     45          1           0      -14.447744   -0.438703    1.340255
     46          1           0      -14.210001   -0.496612   -0.321216
     47          1           0       12.694557   -2.529443   -1.054220
     48          1           0      -12.953272    1.761762    1.786691
     49          1           0       13.990919    0.159133   -0.571242
     50          1           0       13.516729   -0.712148   -2.092908
     51          1           0      -13.413830    1.728429   -1.292337
     52          1           0      -12.313582    2.883219   -0.298891
     53          1           0       11.258937   -1.702905    3.094002
     54          1           0        9.815952   -0.570652    2.797389
     55          1           0       11.508788   -0.077437    2.734363
     56          1           0       10.860623   -3.091047   -0.355053
     57          1           0       10.522906   -3.458155    1.402994
     58          1           0        9.379392   -2.538304    0.462951
     59          1           0      -11.708474   -0.155906    2.714692
     60          1           0      -11.173971   -1.791209    2.209839
     61          1           0      -12.884885   -1.684023    2.643084
     62          1           0      -13.627519   -2.514036    1.130360
     63          1           0      -12.014219   -2.910989    0.435461
     64          1           0      -13.339464   -2.262356   -0.704299
     65          1           0        8.722505   -0.183009    0.542295
     66          1           0      -10.393666   -2.299340   -0.511068
     67          1           0       10.408790    0.959306   -2.356200
     68          1           0       11.597146    2.296008   -1.756298
     69          1           0       12.331305    0.986454   -3.012069
     70          1           0      -10.900110    2.218708   -2.377084
     71          1           0       -9.854805    1.019427   -2.421282
     72          1           0       -9.650014    2.361387   -1.272255
     73          1           0       14.603267   -2.911107    0.289403
     74          1           0      -15.359308    1.932545    1.436988
     75          1           0       10.130714    2.278493   -0.107464
     76          1           0       -8.838921    0.424024   -0.223703
     77          1           0        8.811634    4.334199    0.721715
     78          1           0        7.288490    4.117765   -0.148802
     79          1           0        7.313079    3.854229    1.491539
     80          1           0       -8.068936   -3.304386    0.025532
     81          1           0       -8.422418   -2.979627   -1.754015
     82          1           0       -6.988067   -3.398730   -1.105602
     83          1           0        7.043792    0.407457   -0.386843
     84          1           0       -6.347680    0.529847   -0.077794
     85          1           0        5.435527    2.955996    0.674241
     86          1           0       -4.925183   -2.159409   -0.835751
     87          1           0        4.422607    0.115985   -0.344892
     88          1           0       -3.963248    0.652540    0.250622
     89          1           0        2.790430    3.166141    1.790711
     90          1           0        1.725782    3.146035    0.256909
     91          1           0        3.634070    3.607351    0.019820
     92          1           0       -2.564294   -3.126042   -0.256210
     93          1           0       -2.760049   -2.374334   -1.911855
     94          1           0       -1.293309   -2.573211   -1.114232
     95          1           0        2.493239   -0.492734   -0.288931
     96          1           0       -1.813342    1.123601    0.416804
     97          1           0        0.541063    1.926349    0.499202
     98          1           0        0.130227   -1.058758   -0.784937
 ---------------------------------------------------------------------

 SCF Done:  E(RCAM-B3LYP) =  -1706.99442947     A.U. after   15 cycles

 Excitation energies and oscillator strengths:

 Excited State   1:      Singlet-A      2.0312 eV  610.40 nm  f=3.6027  <S**2>=0.000
     155 ->158         0.14908
     156 ->157         0.69227
 This state for optimization and/or second-order correction.
 Total Energy, E(TD-HF/TD-DFT) =  -1706.91978429
 Copying the excited state density for this state as the 1-particle RhoCI density.

 The electronic state is 1-A.
 Alpha  occ. eigenvalues --  -19.22163 -19.20371 -10.31297 -10.30601 -10.29032
 Alpha  occ. eigenvalues --  -10.28294 -10.27705 -10.27683 -10.27586 -10.27535
 Alpha  occ. eigenvalues --  -10.27488 -10.27383 -10.27313 -10.27190 -10.27147
 Alpha  occ. eigenvalues --  -10.27013 -10.26993 -10.26955 -10.26944 -10.26787
 Alpha  occ. eigenvalues --  -10.26687 -10.26569 -10.26564 -10.26481 -10.26468
 Alpha  occ. eigenvalues --  -10.26306 -10.26260 -10.26078 -10.25662 -10.25650
 Alpha  occ. eigenvalues --  -10.25605 -10.25340 -10.25304 -10.25155 -10.25153
 Alpha  occ. eigenvalues --  -10.25088 -10.25086 -10.24978 -10.24660 -10.24648
 Alpha  occ. eigenvalues --  -10.24575 -10.24316  -1.08939  -1.08420  -0.93247
 Alpha  occ. eigenvalues --   -0.93238  -0.92638  -0.91196  -0.90707  -0.89858
 Alpha  occ. eigenvalues --   -0.87170  -0.86901  -0.86506  -0.85631  -0.84451
 Alpha  occ. eigenvalues --   -0.82739  -0.81292  -0.80480  -0.79500  -0.78088
 Alpha  occ. eigenvalues --   -0.77175  -0.76696  -0.76337  -0.76062  -0.75917
 Alpha  occ. eigenvalues --   -0.75353  -0.74957  -0.74661  -0.73029  -0.70391
 Alpha  occ. eigenvalues --   -0.68383  -0.66930  -0.65284  -0.64167  -0.64125
 Alpha  occ. eigenvalues --   -0.63195  -0.62263  -0.61227  -0.60132  -0.60072
 Alpha  occ. eigenvalues --   -0.59621  -0.58647  -0.57585  -0.56762  -0.55838
 Alpha  occ. eigenvalues --   -0.55736  -0.55162  -0.54795  -0.53938  -0.53711
 Alpha  occ. eigenvalues --   -0.53332  -0.52550  -0.52070  -0.51756  -0.51153
 Alpha  occ. eigenvalues --   -0.50511  -0.50000  -0.49512  -0.49244  -0.48878
 Alpha  occ. eigenvalues --   -0.48666  -0.48378  -0.48145  -0.47865  -0.47732
 Alpha  occ. eigenvalues --   -0.47488  -0.47326  -0.47073  -0.46526  -0.46302
 Alpha  occ. eigenvalues --   -0.46001  -0.45741  -0.45274  -0.44449  -0.44275
 Alpha  occ. eigenvalues --   -0.44027  -0.43902  -0.43853  -0.43465  -0.43177
 Alpha  occ. eigenvalues --   -0.43032  -0.42430  -0.42360  -0.42012  -0.41917
 Alpha  occ. eigenvalues --   -0.41798  -0.41545  -0.41473  -0.41348  -0.40684
 Alpha  occ. eigenvalues --   -0.40577  -0.40395  -0.40064  -0.39726  -0.39673
 Alpha  occ. eigenvalues --   -0.39033  -0.38823  -0.38701  -0.38248  -0.37772
 Alpha  occ. eigenvalues --   -0.37545  -0.37504  -0.36959  -0.36580  -0.36130
 Alpha  occ. eigenvalues --   -0.35133  -0.33929  -0.33609  -0.32871  -0.32429
 Alpha  occ. eigenvalues --   -0.30837  -0.29801  -0.27931  -0.25912  -0.22958
 Alpha  occ. eigenvalues --   -0.18953
 Alpha virt. eigenvalues --   -0.06346  -0.01267   0.02062   0.05336   0.07504
 Alpha virt. eigenvalues --    0.10156   0.10867   0.11435   0.11661   0.12053
 Alpha virt. eigenvalues --    0.12295   0.12869   0.13170   0.13576   0.13700

 Mulliken charges:
               1
     1  O   -0.553721
     2  O   -0.578401
     3  C    0.017246
     4  C   -0.062387
     5  C   -0.203394
     6  C   -0.179116
     7  C    0.144293
     8  C    0.188538
     9  C    0.047059
    10  C    0.093066
    11  C   -0.201918
    12  C   -0.214062
    13  C    0.053258
    14  C    0.040118
    15  C   -0.311145
    16  C   -0.302893
    17  C   -0.281108
    18  C   -0.272806
    19  C   -0.104294
    20  C   -0.116985
    21  C   -0.357934
    22  C   -0.381389
    23  C   -0.093330
    24  C   -0.107027
    25  C    0.084843
    26  C    0.107548
    27  C   -0.393815
    28  C   -0.371200
    29  C   -0.120314
    30  C   -0.124020
    31  C   -0.118876
    32  C   -0.092914
    33  C   -0.112148
    34  C   -0.119887
    35  C    0.098288
    36  C    0.132397
    37  C   -0.347065
    38  C   -0.390380
    39  C   -0.090682
    40  C   -0.126357
    41  C   -0.104328
    42  C   -0.104857
    43  H    0.118892
    44  H    0.061289
    45  H    0.081740
    46  H    0.081357
    47  H    0.073526
    48  H    0.047298
    49  H    0.121202
    50  H    0.112423
    51  H    0.116053
    52  H    0.107383
    53  H    0.078326
    54  H    0.120504
    55  H    0.118717
    56  H    0.107647
    57  H    0.073555
    58  H    0.121703
    59  H    0.104241
    60  H    0.098779
    61  H    0.077385
    62  H    0.071789
    63  H    0.105514
    64  H    0.115491
    65  H    0.065536
    66  H    0.075854
    67  H    0.119588
    68  H    0.115939
    69  H    0.066192
    70  H    0.113206
    71  H    0.122198
    72  H    0.117440
    73  H    0.305087
    74  H    0.309501
    75  H    0.066261
    76  H    0.096086
    77  H    0.098860
    78  H    0.136997
    79  H    0.135755
    80  H    0.115374
    81  H    0.108133
    82  H    0.117192
    83  H    0.085000
    84  H    0.072619
    85  H    0.087552
    86  H    0.086355
    87  H    0.075053
    88  H    0.083290
    89  H    0.118733
    90  H    0.109566
    91  H    0.116981
    92  H    0.113083
    93  H    0.128696
    94  H    0.109838
    95  H    0.087793
    96  H    0.071949
    97  H    0.094717
    98  H    0.090863
 Sum of Mulliken charges =  -0.00000

 Dipole moment (field-independent basis, Debye):
    X=             -0.9650    Y=             -1.1398    Z=              1.9106  Tot=              2.4250
 Quadrupole moment (field-independent basis, Debye-Ang):
   XX=           -291.3151   YY=           -244.1988   ZZ=           -262.2324
   XY=             13.0713   XZ=              2.6585   YZ=              5.3813

 Normal termination of Gaussian 16 at Tue Jul 16 06:22:13 2019.
