 Gaussian 16, Revision A.03,
 Gaussian 16:  ES64L-G16RevA.03 25-Dec-2016

 -------------------------------------
 # td=(NStates=1) CAM-B3LYP/6-31G(d,p)
 -------------------------------------

 --
 TD
 --
 Symbolic Z-matrix:
 Charge =  0 Multiplicity = 1

                         Standard orientation:
 ---------------------------------------------------------------------
 Center     Atomic      Atomic             Coordinates (Angstroms)
 Number     Number       Type             X           Y           Z
 ---------------------------------------------------------------------
      1          8           0       14.682093   -2.320595   -0.179866
      2          8           0      -14.853312    1.661846    1.193174
      3          6           0       11.148236   -1.578177    0.966634
      4          6           0      -12.440386   -1.132036    0.511795
      5          6           0       12.695105   -1.965392    1.079518
      6          6           0      -13.773426   -0.423401    0.613703
      7          6           0       13.353756   -1.947083   -0.402994
      8          6           0      -13.574195    1.092111    1.019595
      9          6           0       10.856492   -0.369693    0.067851
     10          6           0      -11.366336   -0.307349   -0.254488
     11          6           0       13.227391   -0.589760   -1.046583
     12          6           0      -12.775257    1.746024   -0.022478
     13          6           0       11.907576    0.060832   -0.763444
     14          6           0      -11.551431    1.018963   -0.487227
     15          6           0       10.771589   -1.382978    2.399904
     16          6           0       10.336145   -2.764610    0.401626
     17          6           0      -11.842674   -1.408235    1.951732
     18          6           0      -12.660135   -2.485263   -0.177955
     19          6           0        9.566467    0.387759    0.242392
     20          6           0      -10.070372   -0.905395   -0.461880
     21          6           0       11.744416    1.235516   -1.715400
     22          6           0      -10.595611    1.996851   -1.311352
     23          6           0        9.388362    1.617068    0.208455
     24          6           0       -8.785063   -0.442860   -0.447760
     25          6           0        8.153484    2.279774    0.321837
     26          6           0       -7.505278   -1.194047   -0.560313
     27          6           0        8.142909    3.779280    0.689462
     28          6           0       -7.593765   -2.702472   -0.804408
     29          6           0        7.005387    1.602433    0.055558
     30          6           0       -6.442018   -0.461182   -0.537096
     31          6           0        5.669566    2.091007    0.123825
     32          6           0       -5.082250   -0.960451   -0.563783
     33          6           0        4.483015    1.420875   -0.095510
     34          6           0       -3.907397   -0.158845   -0.517071
     35          6           0        3.173956    1.792448   -0.002498
     36          6           0       -2.605694   -0.627721   -0.660354
     37          6           0        2.980175    3.212791    0.527631
     38          6           0       -2.354991   -2.090451   -0.969637
     39          6           0        2.133672    0.932446   -0.237534
     40          6           0       -1.523296    0.326173   -0.487971
     41          6           0        0.771791    1.157689   -0.220737
     42          6           0       -0.167969    0.099719   -0.476326
     43          1           0       13.208255   -1.214915    1.573918
     44          1           0       12.700292   -2.955228    1.604206
     45          1           0      -14.491118   -1.166060    1.408868
     46          1           0      -14.195302   -0.298528   -0.229096
     47          1           0       12.624571   -2.492483   -1.001745
     48          1           0      -13.052639    1.193439    1.895450
     49          1           0       14.115753   -0.156731   -0.764862
     50          1           0       13.236208   -0.737014   -2.099530
     51          1           0      -13.468696    1.771174   -0.961897
     52          1           0      -12.679455    2.793875    0.319447
     53          1           0       10.976476   -2.164637    2.899073
     54          1           0        9.680279   -1.092088    2.682297
     55          1           0       11.251783   -0.511923    2.748964
     56          1           0       10.617098   -3.172258   -0.540241
     57          1           0       10.140521   -3.590216    1.149573
     58          1           0        9.226949   -2.348350    0.297288
     59          1           0      -11.647792   -0.469388    2.325488
     60          1           0      -10.973851   -1.917572    1.794097
     61          1           0      -12.491228   -1.968722    2.622080
     62          1           0      -13.385405   -2.958588    0.313586
     63          1           0      -11.628976   -3.111115   -0.063766
     64          1           0      -12.806824   -2.387526   -1.090775
     65          1           0        8.637109   -0.094018    0.581710
     66          1           0      -10.053232   -2.026210   -0.430934
     67          1           0       10.715889    1.351453   -1.956393
     68          1           0       11.850120    2.380331   -1.457924
     69          1           0       12.436089    1.190296   -2.434464
     70          1           0      -11.196403    2.815436   -1.991580
     71          1           0      -10.235140    1.419143   -2.100282
     72          1           0       -9.906369    2.510831   -0.511639
     73          1           0       14.739620   -3.240240    0.200299
     74          1           0      -15.157677    1.294706    2.035728
     75          1           0       10.097460    2.389148   -0.227865
     76          1           0       -8.808097    0.510460   -0.044687
     77          1           0        9.235769    4.074497    0.628806
     78          1           0        7.329556    4.336773    0.068625
     79          1           0        7.862598    3.940861    1.736733
     80          1           0       -8.462952   -3.259441   -0.161287
     81          1           0       -8.108749   -2.764023   -1.820164
     82          1           0       -6.778833   -3.263553   -0.774791
     83          1           0        7.063031    0.646649   -0.281202
     84          1           0       -6.487159    0.704587   -0.760835
     85          1           0        5.518713    3.104336    0.386761
     86          1           0       -4.771258   -2.085239   -0.683903
     87          1           0        4.480957    0.288006   -0.388631
     88          1           0       -4.107256    0.902596   -0.249256
     89          1           0        3.265127    3.191630    1.633855
     90          1           0        1.847934    3.304800    0.764852
     91          1           0        3.336647    3.899636   -0.101621
     92          1           0       -2.673497   -2.738453   -0.182185
     93          1           0       -2.755869   -2.347211   -1.914911
     94          1           0       -1.450003   -2.358919   -0.969701
     95          1           0        2.510150   -0.058777   -0.442547
     96          1           0       -1.741797    1.270386   -0.061630
     97          1           0        0.475100    2.185215    0.045754
     98          1           0        0.353599   -0.964998   -0.863889
 ---------------------------------------------------------------------

 SCF Done:  E(RCAM-B3LYP) =  -1706.92284582     A.U. after   15 cycles

 Excitation energies and oscillator strengths:

 Excited State   1:      Singlet-A      2.0684 eV  599.42 nm  f=3.7791  <S**2>=0.000
     155 ->158        -0.13278
     156 ->157         0.69808
     156 <-157        -0.10692
 This state for optimization and/or second-order correction.
 Total Energy, E(TD-HF/TD-DFT) =  -1706.84683334
 Copying the excited state density for this state as the 1-particle RhoCI density.

 The electronic state is 1-A.
 Alpha  occ. eigenvalues --  -19.21954 -19.21076 -10.30073 -10.29301 -10.28255
 Alpha  occ. eigenvalues --  -10.28124 -10.27573 -10.27543 -10.27375 -10.27360
 Alpha  occ. eigenvalues --  -10.27258 -10.27107 -10.26951 -10.26943 -10.26785
 Alpha  occ. eigenvalues --  -10.26712 -10.26664 -10.26551 -10.26402 -10.26342
 Alpha  occ. eigenvalues --  -10.26286 -10.26243 -10.26236 -10.25935 -10.25783
 Alpha  occ. eigenvalues --  -10.25739 -10.25728 -10.25512 -10.25354 -10.25322
 Alpha  occ. eigenvalues --  -10.25187 -10.25129 -10.25043 -10.24508 -10.24499
 Alpha  occ. eigenvalues --  -10.24492 -10.24371 -10.23973 -10.23760 -10.22891
 Alpha  occ. eigenvalues --  -10.22709 -10.22418  -1.09967  -1.09728  -0.93774
 Alpha  occ. eigenvalues --   -0.93489  -0.92288  -0.91676  -0.91296  -0.90338
 Alpha  occ. eigenvalues --   -0.87467  -0.87223  -0.86982  -0.85793  -0.85109
 Alpha  occ. eigenvalues --   -0.82699  -0.81807  -0.80551  -0.79766  -0.79342
 Alpha  occ. eigenvalues --   -0.77679  -0.77573  -0.76908  -0.76385  -0.76113
 Alpha  occ. eigenvalues --   -0.75619  -0.75448  -0.75331  -0.73718  -0.71352
 Alpha  occ. eigenvalues --   -0.68783  -0.67808  -0.66197  -0.65182  -0.64115
 Alpha  occ. eigenvalues --   -0.63761  -0.62955  -0.61426  -0.60412  -0.60188
 Alpha  occ. eigenvalues --   -0.59585  -0.59501  -0.59357  -0.57847  -0.56641
 Alpha  occ. eigenvalues --   -0.56319  -0.55656  -0.55556  -0.54416  -0.53948
 Alpha  occ. eigenvalues --   -0.53368  -0.52874  -0.52536  -0.52199  -0.51511
 Alpha  occ. eigenvalues --   -0.51345  -0.50957  -0.50455  -0.50143  -0.49663
 Alpha  occ. eigenvalues --   -0.49459  -0.49410  -0.48925  -0.48666  -0.48298
 Alpha  occ. eigenvalues --   -0.47880  -0.47457  -0.47411  -0.47024  -0.46706
 Alpha  occ. eigenvalues --   -0.45850  -0.45751  -0.45468  -0.45183  -0.44743
 Alpha  occ. eigenvalues --   -0.44649  -0.44498  -0.44252  -0.43948  -0.43675
 Alpha  occ. eigenvalues --   -0.43410  -0.43144  -0.42971  -0.42132  -0.41737
 Alpha  occ. eigenvalues --   -0.41543  -0.41341  -0.41083  -0.40807  -0.40674
 Alpha  occ. eigenvalues --   -0.40618  -0.40573  -0.39935  -0.39635  -0.39483
 Alpha  occ. eigenvalues --   -0.39165  -0.38957  -0.38599  -0.38507  -0.38385
 Alpha  occ. eigenvalues --   -0.37637  -0.37436  -0.37041  -0.36462  -0.36150
 Alpha  occ. eigenvalues --   -0.35702  -0.35434  -0.34773  -0.33156  -0.31355
 Alpha  occ. eigenvalues --   -0.30480  -0.30203  -0.27924  -0.25992  -0.23873
 Alpha  occ. eigenvalues --   -0.18791
 Alpha virt. eigenvalues --   -0.06409  -0.00535   0.02189   0.05209   0.07896
 Alpha virt. eigenvalues --    0.10218   0.11235   0.11949   0.12209   0.12351
 Alpha virt. eigenvalues --    0.12779   0.12957   0.13173   0.13404   0.13817

 Mulliken charges:
               1
     1  O   -0.565590
     2  O   -0.557859
     3  C   -0.034822
     4  C   -0.052230
     5  C   -0.184816
     6  C   -0.146753
     7  C    0.161300
     8  C    0.150825
     9  C    0.054211
    10  C    0.089661
    11  C   -0.237580
    12  C   -0.229350
    13  C    0.044074
    14  C    0.011104
    15  C   -0.285342
    16  C   -0.302772
    17  C   -0.286625
    18  C   -0.260421
    19  C   -0.126066
    20  C   -0.137148
    21  C   -0.367253
    22  C   -0.344011
    23  C   -0.054495
    24  C   -0.104076
    25  C    0.063547
    26  C    0.133892
    27  C   -0.366510
    28  C   -0.356464
    29  C   -0.090292
    30  C   -0.132973
    31  C   -0.107747
    32  C   -0.113501
    33  C   -0.111069
    34  C   -0.110555
    35  C    0.115125
    36  C    0.088946
    37  C   -0.368920
    38  C   -0.362111
    39  C   -0.113594
    40  C   -0.125530
    41  C   -0.093706
    42  C   -0.085824
    43  H    0.109366
    44  H    0.077400
    45  H    0.039840
    46  H    0.104475
    47  H    0.077957
    48  H    0.083871
    49  H    0.134377
    50  H    0.124253
    51  H    0.107452
    52  H    0.114635
    53  H    0.105050
    54  H    0.075897
    55  H    0.108263
    56  H    0.110040
    57  H    0.087949
    58  H    0.083126
    59  H    0.104642
    60  H    0.109266
    61  H    0.092686
    62  H    0.103662
    63  H    0.063206
    64  H    0.110963
    65  H    0.092445
    66  H    0.050303
    67  H    0.129214
    68  H    0.091559
    69  H    0.104102
    70  H    0.086201
    71  H    0.140036
    72  H    0.118681
    73  H    0.315339
    74  H    0.308734
    75  H    0.079153
    76  H    0.078666
    77  H    0.103577
    78  H    0.115082
    79  H    0.130407
    80  H    0.095660
    81  H    0.129297
    82  H    0.120977
    83  H    0.076172
    84  H    0.093907
    85  H    0.070232
    86  H    0.079032
    87  H    0.052607
    88  H    0.079487
    89  H    0.124778
    90  H    0.084794
    91  H    0.133836
    92  H    0.123863
    93  H    0.129493
    94  H    0.110287
    95  H    0.071891
    96  H    0.087404
    97  H    0.089877
    98  H    0.077849
 Sum of Mulliken charges =  -0.00000

 Dipole moment (field-independent basis, Debye):
    X=             -0.3958    Y=             -1.6641    Z=              1.2486  Tot=              2.1177
 Quadrupole moment (field-independent basis, Debye-Ang):
   XX=           -280.3750   YY=           -240.9526   ZZ=           -258.7320
   XY=              3.1920   XZ=             -9.6184   YZ=              1.4195

 Normal termination of Gaussian 16 at Fri Jul 19 18:38:36 2019.
