 Gaussian 16, Revision A.03,
 Gaussian 16:  ES64L-G16RevA.03 25-Dec-2016

 -------------------------------------
 # td=(NStates=1) CAM-B3LYP/6-31G(d,p)
 -------------------------------------

 --
 TD
 --
 Symbolic Z-matrix:
 Charge =  0 Multiplicity = 1

                         Standard orientation:
 ---------------------------------------------------------------------
 Center     Atomic      Atomic             Coordinates (Angstroms)
 Number     Number       Type             X           Y           Z
 ---------------------------------------------------------------------
      1          8           0       14.773530   -2.266658   -0.279158
      2          8           0      -14.944573    1.798557    0.728225
      3          6           0       11.286512   -1.381742    0.962605
      4          6           0      -12.564408   -1.069077    0.481442
      5          6           0       12.741549   -1.748512    1.033007
      6          6           0      -13.782713   -0.260095    0.493253
      7          6           0       13.405725   -1.874111   -0.415033
      8          6           0      -13.615936    1.240923    0.719929
      9          6           0       11.080097   -0.283562   -0.085785
     10          6           0      -11.374185   -0.199944   -0.189851
     11          6           0       13.408481   -0.488833   -1.048929
     12          6           0      -12.822991    1.818705   -0.379389
     13          6           0       11.942705    0.077930   -1.007481
     14          6           0      -11.549907    1.028185   -0.567236
     15          6           0       10.876045   -0.899259    2.270898
     16          6           0       10.535045   -2.594579    0.585132
     17          6           0      -11.992873   -1.486365    1.866989
     18          6           0      -12.799972   -2.315588   -0.376771
     19          6           0        9.718272    0.309677    0.031707
     20          6           0      -10.148425   -0.958932   -0.354758
     21          6           0       11.682856    1.071841   -1.966082
     22          6           0      -10.496107    1.860458   -1.410097
     23          6           0        9.398575    1.626329   -0.125279
     24          6           0       -8.841205   -0.389223   -0.179653
     25          6           0        8.082816    2.297710   -0.036636
     26          6           0       -7.651105   -1.081423   -0.381544
     27          6           0        8.032164    3.840372    0.463411
     28          6           0       -7.680285   -2.494544   -0.945219
     29          6           0        6.876837    1.452233   -0.067698
     30          6           0       -6.357108   -0.484884   -0.083169
     31          6           0        5.604552    1.977144    0.271447
     32          6           0       -5.102069   -1.082759   -0.375383
     33          6           0        4.414432    1.180583    0.053365
     34          6           0       -3.912225   -0.417427   -0.078009
     35          6           0        3.171861    1.563094    0.296740
     36          6           0       -2.583776   -0.848017   -0.229175
     37          6           0        2.992715    3.056200    0.755165
     38          6           0       -2.337592   -2.229455   -0.858027
     39          6           0        2.096603    0.722025   -0.027064
     40          6           0       -1.568363    0.114136   -0.029329
     41          6           0        0.742328    0.870961    0.253061
     42          6           0       -0.160364   -0.091367   -0.201615
     43          1           0       13.313938   -0.945668    1.510062
     44          1           0       12.879026   -2.684470    1.534097
     45          1           0      -14.503305   -0.737762    1.251951
     46          1           0      -14.295104   -0.421019   -0.611978
     47          1           0       12.981788   -2.574671   -0.992822
     48          1           0      -13.274789    1.409372    1.696814
     49          1           0       14.178436    0.089932   -0.333410
     50          1           0       13.875588   -0.581940   -1.933225
     51          1           0      -13.458860    2.079265   -1.259403
     52          1           0      -12.469863    2.832270   -0.104251
     53          1           0       11.030886   -1.528265    2.954763
     54          1           0        9.846091   -0.545342    2.207248
     55          1           0       11.788505   -0.259064    2.815306
     56          1           0       10.600637   -3.166865   -0.310306
     57          1           0       10.855556   -3.286761    1.432323
     58          1           0        9.405843   -2.606138    0.751346
     59          1           0      -12.200050   -0.617424    2.615443
     60          1           0      -10.994958   -1.922296    1.680764
     61          1           0      -12.696658   -2.427669    2.237443
     62          1           0      -13.530936   -2.958270    0.022674
     63          1           0      -11.871857   -2.828571   -0.630146
     64          1           0      -12.878869   -2.042817   -1.356409
     65          1           0        8.698560   -0.383846    0.142358
     66          1           0      -10.334919   -2.177914   -0.435237
     67          1           0       10.720040    1.362977   -2.577564
     68          1           0       11.703404    2.169448   -1.728044
     69          1           0       12.203895    0.970012   -2.956806
     70          1           0      -11.186646    2.437334   -1.981664
     71          1           0       -9.858214    1.112557   -1.909977
     72          1           0       -9.874411    2.495710   -0.839407
     73          1           0       14.831124   -3.041734    0.085378
     74          1           0      -15.279595    1.661985    1.713159
     75          1           0       10.218987    2.388868   -0.274905
     76          1           0       -8.865486    0.778651   -0.132366
     77          1           0        8.923858    4.301126    0.209771
     78          1           0        7.070202    4.256371   -0.070657
     79          1           0        7.855200    3.996807    1.519566
     80          1           0       -8.007367   -3.100515   -0.033476
     81          1           0       -8.375190   -2.609697   -1.940425
     82          1           0       -6.470807   -2.859579   -1.187803
     83          1           0        7.073150    0.450746   -0.378134
     84          1           0       -6.354802    0.483255    0.408979
     85          1           0        5.467872    3.041626    0.434306
     86          1           0       -5.145318   -2.028580   -0.666606
     87          1           0        4.689158    0.319055   -0.298632
     88          1           0       -4.116024    0.640929    0.112143
     89          1           0        3.901493    3.422374    1.526630
     90          1           0        1.818208    3.122054    1.220717
     91          1           0        2.998469    3.827852   -0.193428
     92          1           0       -2.578854   -2.939815   -0.125693
     93          1           0       -3.013726   -2.591189   -1.647091
     94          1           0       -1.179793   -2.226870   -1.234329
     95          1           0        2.376856   -0.181789   -0.542089
     96          1           0       -2.093265    1.055721    0.404033
     97          1           0        0.312521    1.831536    0.550899
     98          1           0        0.167347   -1.089298   -0.658050
 ---------------------------------------------------------------------

 SCF Done:  E(RCAM-B3LYP) =  -1706.88125619     A.U. after   16 cycles

 Excitation energies and oscillator strengths:

 Excited State   1:      Singlet-A      1.8235 eV  679.91 nm  f=3.8568  <S**2>=0.000
     155 ->158        -0.14676
     156 ->157         0.69658
     156 <-157        -0.11164
 This state for optimization and/or second-order correction.
 Total Energy, E(TD-HF/TD-DFT) =  -1706.81424266
 Copying the excited state density for this state as the 1-particle RhoCI density.

 The electronic state is 1-A.
 Alpha  occ. eigenvalues --  -19.21080 -19.19421 -10.29846 -10.29724 -10.29241
 Alpha  occ. eigenvalues --  -10.28856 -10.28659 -10.27979 -10.27954 -10.27852
 Alpha  occ. eigenvalues --  -10.27830 -10.27579 -10.27317 -10.27277 -10.27060
 Alpha  occ. eigenvalues --  -10.26903 -10.26873 -10.26758 -10.26748 -10.26623
 Alpha  occ. eigenvalues --  -10.26577 -10.26569 -10.26534 -10.26502 -10.26409
 Alpha  occ. eigenvalues --  -10.26385 -10.26285 -10.26240 -10.26203 -10.25703
 Alpha  occ. eigenvalues --  -10.25584 -10.25534 -10.25519 -10.25338 -10.25248
 Alpha  occ. eigenvalues --  -10.25081 -10.24972 -10.24678 -10.24503 -10.24380
 Alpha  occ. eigenvalues --  -10.23411 -10.23235  -1.10908  -1.07572  -0.94831
 Alpha  occ. eigenvalues --   -0.93789  -0.92245  -0.91470  -0.89872  -0.89127
 Alpha  occ. eigenvalues --   -0.88306  -0.87424  -0.87080  -0.85228  -0.84419
 Alpha  occ. eigenvalues --   -0.82983  -0.81663  -0.79678  -0.78914  -0.77879
 Alpha  occ. eigenvalues --   -0.77314  -0.76664  -0.76414  -0.76049  -0.75663
 Alpha  occ. eigenvalues --   -0.75337  -0.74929  -0.74495  -0.72913  -0.70866
 Alpha  occ. eigenvalues --   -0.69226  -0.67659  -0.66327  -0.65825  -0.65096
 Alpha  occ. eigenvalues --   -0.63873  -0.62725  -0.61808  -0.61041  -0.60364
 Alpha  occ. eigenvalues --   -0.59609  -0.58859  -0.58327  -0.57491  -0.57043
 Alpha  occ. eigenvalues --   -0.56044  -0.55524  -0.55032  -0.54441  -0.53889
 Alpha  occ. eigenvalues --   -0.53368  -0.52440  -0.51931  -0.51778  -0.51617
 Alpha  occ. eigenvalues --   -0.50569  -0.49937  -0.49570  -0.49246  -0.49149
 Alpha  occ. eigenvalues --   -0.48697  -0.48574  -0.48466  -0.48198  -0.47883
 Alpha  occ. eigenvalues --   -0.47311  -0.47279  -0.47016  -0.46692  -0.46147
 Alpha  occ. eigenvalues --   -0.46111  -0.45732  -0.45193  -0.44983  -0.44918
 Alpha  occ. eigenvalues --   -0.44728  -0.44389  -0.44137  -0.43978  -0.43285
 Alpha  occ. eigenvalues --   -0.43053  -0.42629  -0.42127  -0.41804  -0.41417
 Alpha  occ. eigenvalues --   -0.41181  -0.41050  -0.40988  -0.40766  -0.40670
 Alpha  occ. eigenvalues --   -0.40470  -0.40295  -0.40137  -0.39641  -0.39094
 Alpha  occ. eigenvalues --   -0.38851  -0.38767  -0.38588  -0.38109  -0.37588
 Alpha  occ. eigenvalues --   -0.37255  -0.36781  -0.36491  -0.36258  -0.35787
 Alpha  occ. eigenvalues --   -0.35345  -0.34177  -0.33819  -0.32470  -0.31854
 Alpha  occ. eigenvalues --   -0.31367  -0.30413  -0.28761  -0.26808  -0.22574
 Alpha  occ. eigenvalues --   -0.18364
 Alpha virt. eigenvalues --   -0.07182  -0.02147   0.02184   0.05420   0.07819
 Alpha virt. eigenvalues --    0.09575   0.10261   0.10985   0.11252   0.11894
 Alpha virt. eigenvalues --    0.12159   0.12518   0.12799   0.13314   0.13429

 Mulliken charges:
               1
     1  O   -0.547555
     2  O   -0.570551
     3  C   -0.009261
     4  C    0.005413
     5  C   -0.204371
     6  C   -0.178347
     7  C    0.153025
     8  C    0.163390
     9  C    0.082149
    10  C    0.098073
    11  C   -0.198505
    12  C   -0.228832
    13  C    0.089617
    14  C    0.005950
    15  C   -0.269790
    16  C   -0.300355
    17  C   -0.275239
    18  C   -0.302764
    19  C   -0.130435
    20  C   -0.162869
    21  C   -0.412278
    22  C   -0.370342
    23  C   -0.085800
    24  C   -0.118771
    25  C    0.024002
    26  C    0.094881
    27  C   -0.352404
    28  C   -0.342195
    29  C   -0.104680
    30  C   -0.122408
    31  C   -0.103703
    32  C   -0.050875
    33  C   -0.078800
    34  C   -0.132217
    35  C    0.125081
    36  C    0.114029
    37  C   -0.346988
    38  C   -0.363981
    39  C   -0.124495
    40  C   -0.130374
    41  C   -0.075759
    42  C   -0.097239
    43  H    0.102440
    44  H    0.075461
    45  H    0.068906
    46  H    0.082897
    47  H    0.087989
    48  H    0.085513
    49  H    0.105565
    50  H    0.113444
    51  H    0.129555
    52  H    0.106147
    53  H    0.106215
    54  H    0.117513
    55  H    0.065506
    56  H    0.116566
    57  H    0.086368
    58  H    0.090936
    59  H    0.091913
    60  H    0.118806
    61  H    0.060162
    62  H    0.112161
    63  H    0.084335
    64  H    0.113612
    65  H    0.073018
    66  H    0.083042
    67  H    0.108960
    68  H    0.120080
    69  H    0.095261
    70  H    0.109833
    71  H    0.128043
    72  H    0.123597
    73  H    0.281236
    74  H    0.303668
    75  H    0.072328
    76  H    0.094279
    77  H    0.118051
    78  H    0.106170
    79  H    0.133828
    80  H    0.127260
    81  H    0.109797
    82  H    0.074715
    83  H    0.087896
    84  H    0.080521
    85  H    0.083046
    86  H    0.058193
    87  H    0.061694
    88  H    0.079575
    89  H    0.102272
    90  H    0.080804
    91  H    0.111686
    92  H    0.135001
    93  H    0.122578
    94  H    0.089579
    95  H    0.083859
    96  H    0.085858
    97  H    0.095116
    98  H    0.093721
 Sum of Mulliken charges =  -0.00000

 Dipole moment (field-independent basis, Debye):
    X=             -0.4777    Y=             -1.3741    Z=              0.9922  Tot=              1.7609
 Quadrupole moment (field-independent basis, Debye-Ang):
   XX=           -298.5328   YY=           -242.1323   ZZ=           -260.7485
   XY=             -1.9139   XZ=            -10.1183   YZ=              3.8392

 Normal termination of Gaussian 16 at Wed Jul 10 20:04:31 2019.
