 Gaussian 16, Revision A.03,
 Gaussian 16:  ES64L-G16RevA.03 25-Dec-2016

 -------------------------------------
 # td=(NStates=1) CAM-B3LYP/6-31G(d,p)
 -------------------------------------

 --
 TD
 --
 Symbolic Z-matrix:
 Charge =  0 Multiplicity = 1

                         Standard orientation:
 ---------------------------------------------------------------------
 Center     Atomic      Atomic             Coordinates (Angstroms)
 Number     Number       Type             X           Y           Z
 ---------------------------------------------------------------------
      1          8           0       14.609466   -2.187091   -0.292962
      2          8           0      -14.649525    1.692881    1.159096
      3          6           0       11.149966   -1.510242    1.064724
      4          6           0      -12.271646   -0.995802    0.628687
      5          6           0       12.708933   -1.776868    0.989703
      6          6           0      -13.583069   -0.321703    0.681373
      7          6           0       13.262154   -1.871351   -0.366172
      8          6           0      -13.371301    1.174316    1.078657
      9          6           0       11.020717   -0.274886    0.065327
     10          6           0      -11.252390   -0.242643   -0.220398
     11          6           0       13.265668   -0.430230   -0.961833
     12          6           0      -12.630622    1.767282   -0.094796
     13          6           0       11.841742    0.082779   -0.885477
     14          6           0      -11.462994    1.003169   -0.556273
     15          6           0       10.718318   -1.315622    2.478566
     16          6           0       10.349459   -2.782082    0.458492
     17          6           0      -11.762137   -1.470052    1.944945
     18          6           0      -12.595826   -2.323399   -0.103339
     19          6           0        9.609263    0.323207    0.255927
     20          6           0      -10.077255   -1.059839   -0.449910
     21          6           0       11.542502    1.189807   -1.932146
     22          6           0      -10.568062    1.717556   -1.561897
     23          6           0        9.286667    1.593349    0.157848
     24          6           0       -8.784565   -0.502360   -0.254757
     25          6           0        7.988321    2.230308    0.253351
     26          6           0       -7.567996   -1.083590   -0.528958
     27          6           0        7.943230    3.738067    0.503011
     28          6           0       -7.450189   -2.503201   -1.216188
     29          6           0        6.842429    1.560236    0.067404
     30          6           0       -6.413584   -0.473337   -0.370273
     31          6           0        5.532649    2.040171    0.169023
     32          6           0       -5.100451   -1.002449   -0.684615
     33          6           0        4.418355    1.284743   -0.018678
     34          6           0       -3.944742   -0.277095   -0.336351
     35          6           0        3.079412    1.729176    0.016399
     36          6           0       -2.643417   -0.677341   -0.545964
     37          6           0        2.883249    3.085828    0.566098
     38          6           0       -2.276964   -2.024788   -1.053974
     39          6           0        2.044971    0.802523   -0.231583
     40          6           0       -1.582291    0.210254   -0.143736
     41          6           0        0.677100    1.043214   -0.124085
     42          6           0       -0.249836   -0.090530   -0.312930
     43          1           0       13.152998   -0.977704    1.863355
     44          1           0       12.827340   -2.666136    1.631252
     45          1           0      -14.321327   -0.815209    1.443619
     46          1           0      -14.260770   -0.321469   -0.186615
     47          1           0       12.725270   -2.615856   -0.898957
     48          1           0      -12.621204    1.337995    1.992591
     49          1           0       13.781243    0.231319   -0.216756
     50          1           0       13.532804   -0.339723   -1.872439
     51          1           0      -13.244818    2.023683   -0.963529
     52          1           0      -12.334199    2.900052    0.092135
     53          1           0       10.609116   -2.134848    3.173599
     54          1           0        9.683893   -1.042143    2.494054
     55          1           0       11.180865   -0.514249    2.983827
     56          1           0       10.835014   -2.830432   -0.599395
     57          1           0       10.656726   -3.674320    0.935795
     58          1           0        9.233581   -2.709457    0.383428
     59          1           0      -11.411022   -0.538148    2.556368
     60          1           0      -10.902349   -2.070255    1.995864
     61          1           0      -12.610786   -2.046736    2.531986
     62          1           0      -13.508039   -2.782593    0.515913
     63          1           0      -11.659852   -2.955433   -0.364731
     64          1           0      -12.786744   -2.240823   -1.195665
     65          1           0        8.988632   -0.381726    0.552900
     66          1           0      -10.173688   -1.974585   -0.836773
     67          1           0       10.475274    1.099101   -2.044610
     68          1           0       11.795416    2.300151   -1.651359
     69          1           0       12.194260    1.082045   -2.724210
     70          1           0      -11.131574    2.513306   -2.172621
     71          1           0       -9.856333    0.940513   -2.025079
     72          1           0       -9.759121    2.478361   -1.071203
     73          1           0       14.838243   -3.002799    0.174212
     74          1           0      -15.086008    1.191261    1.670137
     75          1           0       10.082921    2.333362   -0.217593
     76          1           0       -8.731027    0.643334    0.184809
     77          1           0        8.888810    4.280290    0.283500
     78          1           0        7.356425    4.117453   -0.314074
     79          1           0        7.359305    4.054737    1.418440
     80          1           0       -7.964381   -3.467556   -0.605387
     81          1           0       -7.994337   -2.359052   -2.176063
     82          1           0       -6.513970   -2.932838   -1.502025
     83          1           0        6.941220    0.486685    0.105109
     84          1           0       -6.629970    0.612523   -0.096832
     85          1           0        5.564392    3.118149    0.438995
     86          1           0       -5.107989   -1.971885   -0.885652
     87          1           0        4.625845    0.297762   -0.289273
     88          1           0       -4.157996    0.680786    0.305291
     89          1           0        2.908332    2.987996    1.800106
     90          1           0        1.616014    3.229311    0.013735
     91          1           0        3.596364    4.062881    0.197045
     92          1           0       -3.284136   -2.658881   -0.742353
     93          1           0       -2.215716   -1.789029   -2.295350
     94          1           0       -1.241852   -2.490714   -0.542054
     95          1           0        2.430613   -0.219100   -0.559613
     96          1           0       -1.916726    1.203977    0.056401
     97          1           0        0.301109    1.991336    0.280269
     98          1           0        0.109785   -1.120435   -0.504801
 ---------------------------------------------------------------------

 SCF Done:  E(RCAM-B3LYP) =  -1706.88280561     A.U. after   15 cycles

 Excitation energies and oscillator strengths:

 Excited State   1:      Singlet-A      1.9552 eV  634.12 nm  f=3.5926  <S**2>=0.000
     155 ->158        -0.12283
     156 ->157         0.70262
     156 <-157        -0.11817
 This state for optimization and/or second-order correction.
 Total Energy, E(TD-HF/TD-DFT) =  -1706.81095240
 Copying the excited state density for this state as the 1-particle RhoCI density.

 The electronic state is 1-A.
 Alpha  occ. eigenvalues --  -19.20281 -19.20274 -10.31028 -10.30558 -10.30209
 Alpha  occ. eigenvalues --  -10.29862 -10.28198 -10.27755 -10.27657 -10.27538
 Alpha  occ. eigenvalues --  -10.27523 -10.27307 -10.27187 -10.27028 -10.26922
 Alpha  occ. eigenvalues --  -10.26822 -10.26538 -10.26392 -10.26237 -10.26100
 Alpha  occ. eigenvalues --  -10.25883 -10.25876 -10.25874 -10.25838 -10.25822
 Alpha  occ. eigenvalues --  -10.25785 -10.25768 -10.25720 -10.25695 -10.25613
 Alpha  occ. eigenvalues --  -10.25604 -10.25495 -10.25354 -10.25332 -10.25294
 Alpha  occ. eigenvalues --  -10.25006 -10.24988 -10.24770 -10.24568 -10.24438
 Alpha  occ. eigenvalues --  -10.24048 -10.23585  -1.13764  -1.09909  -0.94661
 Alpha  occ. eigenvalues --   -0.93167  -0.92503  -0.92133  -0.91077  -0.90280
 Alpha  occ. eigenvalues --   -0.87427  -0.87171  -0.86944  -0.85715  -0.84902
 Alpha  occ. eigenvalues --   -0.83098  -0.81555  -0.80378  -0.79016  -0.77530
 Alpha  occ. eigenvalues --   -0.77072  -0.75995  -0.75914  -0.75509  -0.75497
 Alpha  occ. eigenvalues --   -0.74980  -0.74847  -0.74442  -0.73034  -0.71472
 Alpha  occ. eigenvalues --   -0.69546  -0.68357  -0.67339  -0.66143  -0.64514
 Alpha  occ. eigenvalues --   -0.63612  -0.63036  -0.62643  -0.59940  -0.59691
 Alpha  occ. eigenvalues --   -0.59552  -0.59280  -0.58953  -0.57505  -0.56540
 Alpha  occ. eigenvalues --   -0.56112  -0.55679  -0.54975  -0.54454  -0.53652
 Alpha  occ. eigenvalues --   -0.53196  -0.52684  -0.51856  -0.51530  -0.51255
 Alpha  occ. eigenvalues --   -0.50714  -0.49709  -0.49572  -0.49411  -0.49275
 Alpha  occ. eigenvalues --   -0.49014  -0.48674  -0.48382  -0.47833  -0.47626
 Alpha  occ. eigenvalues --   -0.47567  -0.47256  -0.47118  -0.46924  -0.46760
 Alpha  occ. eigenvalues --   -0.46503  -0.45672  -0.45121  -0.44945  -0.44509
 Alpha  occ. eigenvalues --   -0.44263  -0.44052  -0.43756  -0.43538  -0.43275
 Alpha  occ. eigenvalues --   -0.42997  -0.42583  -0.42523  -0.42421  -0.42283
 Alpha  occ. eigenvalues --   -0.42094  -0.41875  -0.41403  -0.41245  -0.40592
 Alpha  occ. eigenvalues --   -0.40240  -0.39814  -0.39472  -0.39419  -0.38902
 Alpha  occ. eigenvalues --   -0.38733  -0.38505  -0.37917  -0.37654  -0.37515
 Alpha  occ. eigenvalues --   -0.37328  -0.37021  -0.36773  -0.35821  -0.35437
 Alpha  occ. eigenvalues --   -0.35165  -0.34398  -0.33421  -0.32262  -0.31760
 Alpha  occ. eigenvalues --   -0.31480  -0.29906  -0.28677  -0.26388  -0.23982
 Alpha  occ. eigenvalues --   -0.18709
 Alpha virt. eigenvalues --   -0.06966  -0.00635   0.02403   0.06076   0.08190
 Alpha virt. eigenvalues --    0.09910   0.10148   0.11042   0.11616   0.12142
 Alpha virt. eigenvalues --    0.12568   0.12629   0.12803   0.12961   0.13504

 Mulliken charges:
               1
     1  O   -0.569788
     2  O   -0.511303
     3  C   -0.018332
     4  C   -0.014774
     5  C   -0.201944
     6  C   -0.207403
     7  C    0.201553
     8  C    0.164663
     9  C    0.065332
    10  C    0.075518
    11  C   -0.162391
    12  C   -0.234673
    13  C   -0.009875
    14  C    0.095303
    15  C   -0.316772
    16  C   -0.310803
    17  C   -0.271433
    18  C   -0.298999
    19  C   -0.093276
    20  C   -0.135779
    21  C   -0.350730
    22  C   -0.367208
    23  C   -0.106307
    24  C   -0.139935
    25  C    0.080971
    26  C    0.159848
    27  C   -0.393476
    28  C   -0.370740
    29  C   -0.107200
    30  C   -0.133861
    31  C   -0.071446
    32  C   -0.095506
    33  C   -0.111740
    34  C   -0.106357
    35  C    0.118033
    36  C    0.098278
    37  C   -0.328992
    38  C   -0.336277
    39  C   -0.103703
    40  C   -0.104244
    41  C   -0.112545
    42  C   -0.086942
    43  H    0.072117
    44  H    0.071974
    45  H    0.057231
    46  H    0.119893
    47  H    0.087973
    48  H    0.072576
    49  H    0.129462
    50  H    0.092643
    51  H    0.121326
    52  H    0.088446
    53  H    0.106003
    54  H    0.101436
    55  H    0.110899
    56  H    0.090626
    57  H    0.110269
    58  H    0.104964
    59  H    0.079084
    60  H    0.122544
    61  H    0.079948
    62  H    0.087016
    63  H    0.082272
    64  H    0.097174
    65  H    0.071265
    66  H    0.088903
    67  H    0.135394
    68  H    0.096951
    69  H    0.105985
    70  H    0.102598
    71  H    0.122646
    72  H    0.080233
    73  H    0.297541
    74  H    0.279246
    75  H    0.081720
    76  H    0.087049
    77  H    0.108387
    78  H    0.130193
    79  H    0.125103
    80  H    0.078878
    81  H    0.120003
    82  H    0.121720
    83  H    0.069519
    84  H    0.068160
    85  H    0.069444
    86  H    0.076562
    87  H    0.072250
    88  H    0.090733
    89  H    0.118136
    90  H    0.051001
    91  H    0.105942
    92  H    0.093601
    93  H    0.112954
    94  H    0.105286
    95  H    0.085058
    96  H    0.085248
    97  H    0.107292
    98  H    0.094379
 Sum of Mulliken charges =  -0.00000

 Dipole moment (field-independent basis, Debye):
    X=              1.6958    Y=             -1.9415    Z=              0.9975  Tot=              2.7641
 Quadrupole moment (field-independent basis, Debye-Ang):
   XX=           -286.0712   YY=           -246.4755   ZZ=           -261.9521
   XY=              5.6745   XZ=              3.2213   YZ=             -0.7950

 Normal termination of Gaussian 16 at Thu Jul 18 19:29:07 2019.
