 Gaussian 16, Revision A.03,
 Gaussian 16:  ES64L-G16RevA.03 25-Dec-2016

 -------------------------------------
 # td=(NStates=1) CAM-B3LYP/6-31G(d,p)
 -------------------------------------

 --
 TD
 --
 Symbolic Z-matrix:
 Charge =  0 Multiplicity = 1

                         Standard orientation:
 ---------------------------------------------------------------------
 Center     Atomic      Atomic             Coordinates (Angstroms)
 Number     Number       Type             X           Y           Z
 ---------------------------------------------------------------------
      1          8           0       14.734941   -2.285566   -0.325128
      2          8           0      -14.842137    1.756114    1.031382
      3          6           0       11.168929   -1.473598    0.959033
      4          6           0      -12.367667   -1.134789    0.648536
      5          6           0       12.642694   -1.949870    1.057552
      6          6           0      -13.751302   -0.455903    0.693824
      7          6           0       13.377537   -1.930670   -0.335733
      8          6           0      -13.605278    1.054848    0.945021
      9          6           0       10.928074   -0.367596   -0.006064
     10          6           0      -11.308885   -0.261170   -0.135812
     11          6           0       13.251079   -0.516452   -0.873036
     12          6           0      -12.813146    1.684454   -0.207272
     13          6           0       11.936948    0.067897   -0.831045
     14          6           0      -11.549699    0.963159   -0.585286
     15          6           0       10.826343   -1.193251    2.350523
     16          6           0       10.361817   -2.700233    0.544153
     17          6           0      -11.893083   -1.348740    2.048678
     18          6           0      -12.549769   -2.447232   -0.100690
     19          6           0        9.684556    0.251321    0.121667
     20          6           0      -10.069152   -1.033082   -0.360264
     21          6           0       11.799824    1.249070   -1.847871
     22          6           0      -10.707511    1.683967   -1.616184
     23          6           0        9.279926    1.616276   -0.067806
     24          6           0       -8.805834   -0.314363   -0.456712
     25          6           0        8.055708    2.269058    0.137780
     26          6           0       -7.555613   -1.076678   -0.712683
     27          6           0        8.095986    3.720441    0.330959
     28          6           0       -7.559364   -2.469900   -1.232701
     29          6           0        6.888216    1.585088   -0.059149
     30          6           0       -6.338930   -0.426207   -0.488993
     31          6           0        5.622713    2.069423    0.321665
     32          6           0       -5.056941   -0.925136   -0.582568
     33          6           0        4.468243    1.299803    0.194861
     34          6           0       -3.924143   -0.194279   -0.370632
     35          6           0        3.165873    1.688620    0.314159
     36          6           0       -2.623362   -0.649680   -0.464736
     37          6           0        2.787269    3.066421    0.898650
     38          6           0       -2.409831   -2.095745   -0.843825
     39          6           0        2.096503    0.896356   -0.097619
     40          6           0       -1.613768    0.258167   -0.232377
     41          6           0        0.739064    1.071034   -0.061633
     42          6           0       -0.220483    0.031429   -0.384426
     43          1           0       13.223940   -1.314631    1.772199
     44          1           0       12.758016   -2.908849    1.204609
     45          1           0      -14.220913   -1.112766    1.438828
     46          1           0      -14.135111   -0.703351   -0.285036
     47          1           0       12.965959   -2.645985   -1.090832
     48          1           0      -12.993381    1.145055    1.719562
     49          1           0       13.942430    0.084828   -0.147313
     50          1           0       13.831463   -0.459048   -1.757923
     51          1           0      -13.572326    1.560612   -0.945381
     52          1           0      -12.383201    2.833222   -0.010553
     53          1           0       10.902219   -2.049951    3.061831
     54          1           0        9.907482   -0.910552    2.384391
     55          1           0       11.517724   -0.416696    2.774694
     56          1           0       10.698096   -2.837232   -0.631934
     57          1           0       10.382545   -3.731526    1.055291
     58          1           0        9.330158   -2.386084    0.641431
     59          1           0      -12.003166   -0.438372    2.576550
     60          1           0      -10.903507   -1.831283    2.186535
     61          1           0      -12.403984   -2.061625    2.637164
     62          1           0      -13.529980   -2.933134    0.292884
     63          1           0      -11.646427   -3.115248    0.179133
     64          1           0      -12.663909   -2.214512   -1.159812
     65          1           0        8.876802   -0.173845    0.383453
     66          1           0      -10.028844   -2.098978   -0.269422
     67          1           0       10.829840    1.338891   -2.190127
     68          1           0       12.208343    2.221405   -1.555937
     69          1           0       12.187197    1.042083   -2.934074
     70          1           0      -11.381990    2.327993   -2.132089
     71          1           0      -10.325023    0.857688   -2.139418
     72          1           0       -9.994513    2.455085   -1.323653
     73          1           0       14.735598   -3.155516   -0.204869
     74          1           0      -15.204233    1.716745    1.983976
     75          1           0       10.063827    2.385660   -0.292441
     76          1           0       -8.595885    0.676800   -0.370646
     77          1           0        9.144528    4.053009    0.615558
     78          1           0        7.681803    4.318519   -0.467675
     79          1           0        7.674862    3.947005    1.287150
     80          1           0       -8.351647   -2.981009   -0.598130
     81          1           0       -7.968983   -2.445294   -2.416439
     82          1           0       -6.520864   -2.908940   -1.188784
     83          1           0        6.785604    0.615521   -0.355361
     84          1           0       -6.426588    0.577138   -0.043942
     85          1           0        5.458830    2.986926    0.682118
     86          1           0       -4.840958   -1.877972   -0.812568
     87          1           0        4.808828    0.275832   -0.157025
     88          1           0       -4.068605    0.963731   -0.081436
     89          1           0        3.473354    3.538439    1.664421
     90          1           0        1.529047    3.279121    1.366133
     91          1           0        2.668195    4.034381   -0.102717
     92          1           0       -2.859338   -2.644698   -0.079373
     93          1           0       -2.398123   -2.171914   -1.883921
     94          1           0       -1.311485   -2.315738   -0.757753
     95          1           0        2.368140   -0.157358   -0.398595
     96          1           0       -1.954305    1.247609    0.122420
     97          1           0        0.355645    2.167941    0.123001
     98          1           0        0.513129   -0.787066   -0.689845
 ---------------------------------------------------------------------

 SCF Done:  E(RCAM-B3LYP) =  -1706.92501596     A.U. after   16 cycles

 Excitation energies and oscillator strengths:

 Excited State   1:      Singlet-A      1.8568 eV  667.72 nm  f=3.9214  <S**2>=0.000
     155 ->158        -0.14933
     156 ->157         0.69403
     156 <-157        -0.10112
 This state for optimization and/or second-order correction.
 Total Energy, E(TD-HF/TD-DFT) =  -1706.85677839
 Copying the excited state density for this state as the 1-particle RhoCI density.

 The electronic state is 1-A.
 Alpha  occ. eigenvalues --  -19.21687 -19.20483 -10.30564 -10.30010 -10.29584
 Alpha  occ. eigenvalues --  -10.27903 -10.27871 -10.27504 -10.27433 -10.27184
 Alpha  occ. eigenvalues --  -10.27010 -10.26909 -10.26722 -10.26652 -10.26633
 Alpha  occ. eigenvalues --  -10.26575 -10.26456 -10.26409 -10.26225 -10.26157
 Alpha  occ. eigenvalues --  -10.26155 -10.25983 -10.25970 -10.25952 -10.25943
 Alpha  occ. eigenvalues --  -10.25879 -10.25855 -10.25517 -10.25296 -10.25256
 Alpha  occ. eigenvalues --  -10.25059 -10.25033 -10.24937 -10.24858 -10.24811
 Alpha  occ. eigenvalues --  -10.24762 -10.24511 -10.24425 -10.23976 -10.23627
 Alpha  occ. eigenvalues --  -10.23499 -10.22791  -1.12126  -1.08345  -0.94846
 Alpha  occ. eigenvalues --   -0.93822  -0.92603  -0.92308  -0.90767  -0.89944
 Alpha  occ. eigenvalues --   -0.87848  -0.87791  -0.87123  -0.85674  -0.84979
 Alpha  occ. eigenvalues --   -0.83526  -0.82194  -0.80224  -0.79543  -0.78744
 Alpha  occ. eigenvalues --   -0.77136  -0.77114  -0.76356  -0.76305  -0.76268
 Alpha  occ. eigenvalues --   -0.75436  -0.74640  -0.74344  -0.72920  -0.71436
 Alpha  occ. eigenvalues --   -0.69913  -0.68136  -0.66560  -0.65909  -0.64527
 Alpha  occ. eigenvalues --   -0.64079  -0.62815  -0.62055  -0.60734  -0.60589
 Alpha  occ. eigenvalues --   -0.60292  -0.59378  -0.59207  -0.57420  -0.56777
 Alpha  occ. eigenvalues --   -0.55530  -0.55448  -0.55195  -0.54593  -0.54067
 Alpha  occ. eigenvalues --   -0.53567  -0.52989  -0.52397  -0.51853  -0.51644
 Alpha  occ. eigenvalues --   -0.51429  -0.50999  -0.50609  -0.50457  -0.50158
 Alpha  occ. eigenvalues --   -0.49718  -0.49371  -0.49240  -0.48644  -0.48284
 Alpha  occ. eigenvalues --   -0.47867  -0.47157  -0.46724  -0.46661  -0.46103
 Alpha  occ. eigenvalues --   -0.45949  -0.45541  -0.45177  -0.44819  -0.44712
 Alpha  occ. eigenvalues --   -0.44408  -0.44296  -0.43629  -0.43269  -0.43115
 Alpha  occ. eigenvalues --   -0.42945  -0.42540  -0.42256  -0.42231  -0.42084
 Alpha  occ. eigenvalues --   -0.41683  -0.41467  -0.41215  -0.40984  -0.40703
 Alpha  occ. eigenvalues --   -0.40557  -0.40398  -0.39850  -0.39763  -0.39528
 Alpha  occ. eigenvalues --   -0.39114  -0.38852  -0.38636  -0.38462  -0.37728
 Alpha  occ. eigenvalues --   -0.37511  -0.37071  -0.36758  -0.36544  -0.35722
 Alpha  occ. eigenvalues --   -0.35570  -0.34671  -0.33899  -0.32798  -0.32232
 Alpha  occ. eigenvalues --   -0.31357  -0.30439  -0.28340  -0.25601  -0.22573
 Alpha  occ. eigenvalues --   -0.18228
 Alpha virt. eigenvalues --   -0.06738  -0.01791   0.01479   0.05543   0.07824
 Alpha virt. eigenvalues --    0.10475   0.10675   0.11397   0.11525   0.11929
 Alpha virt. eigenvalues --    0.12462   0.12962   0.12966   0.13389   0.13863

 Mulliken charges:
               1
     1  O   -0.531505
     2  O   -0.569026
     3  C   -0.045916
     4  C   -0.038435
     5  C   -0.158925
     6  C   -0.190342
     7  C    0.123319
     8  C    0.168343
     9  C    0.123317
    10  C    0.096483
    11  C   -0.225000
    12  C   -0.217635
    13  C    0.059140
    14  C    0.025613
    15  C   -0.277164
    16  C   -0.293313
    17  C   -0.300024
    18  C   -0.298088
    19  C   -0.098233
    20  C   -0.150818
    21  C   -0.370800
    22  C   -0.361934
    23  C   -0.129127
    24  C   -0.082375
    25  C    0.083645
    26  C    0.091154
    27  C   -0.381798
    28  C   -0.345879
    29  C   -0.096961
    30  C   -0.128388
    31  C   -0.052962
    32  C   -0.076193
    33  C   -0.142465
    34  C   -0.108315
    35  C    0.148044
    36  C    0.104994
    37  C   -0.333905
    38  C   -0.379227
    39  C   -0.136431
    40  C   -0.138227
    41  C   -0.072414
    42  C   -0.095889
    43  H    0.096188
    44  H    0.083355
    45  H    0.090834
    46  H    0.095707
    47  H    0.069423
    48  H    0.090167
    49  H    0.106988
    50  H    0.113665
    51  H    0.127871
    52  H    0.082753
    53  H    0.096644
    54  H    0.101031
    55  H    0.092400
    56  H    0.076232
    57  H    0.098981
    58  H    0.100530
    59  H    0.104141
    60  H    0.096976
    61  H    0.097628
    62  H    0.088781
    63  H    0.088113
    64  H    0.115759
    65  H    0.059266
    66  H    0.085635
    67  H    0.132081
    68  H    0.123961
    69  H    0.086319
    70  H    0.108156
    71  H    0.134247
    72  H    0.111526
    73  H    0.291219
    74  H    0.310451
    75  H    0.067747
    76  H    0.093736
    77  H    0.104027
    78  H    0.137369
    79  H    0.129020
    80  H    0.109251
    81  H    0.100950
    82  H    0.112215
    83  H    0.074617
    84  H    0.071498
    85  H    0.064433
    86  H    0.074871
    87  H    0.073403
    88  H    0.062611
    89  H    0.121920
    90  H    0.078249
    91  H    0.053213
    92  H    0.139176
    93  H    0.144997
    94  H    0.104093
    95  H    0.068281
    96  H    0.093188
    97  H    0.073467
    98  H    0.094305
 Sum of Mulliken charges =  -0.00000

 Dipole moment (field-independent basis, Debye):
    X=             -0.8704    Y=             -1.6030    Z=              1.6156  Tot=              2.4366
 Quadrupole moment (field-independent basis, Debye-Ang):
   XX=           -278.7831   YY=           -241.2497   ZZ=           -258.3037
   XY=              3.0951   XZ=            -17.4818   YZ=              3.3611

 Normal termination of Gaussian 16 at Mon Jul 15 02:47:24 2019.
