 Gaussian 16, Revision A.03,
 Gaussian 16:  ES64L-G16RevA.03 25-Dec-2016

 -------------------------------------
 # td=(NStates=1) CAM-B3LYP/6-31G(d,p)
 -------------------------------------

 --
 TD
 --
 Symbolic Z-matrix:
 Charge =  0 Multiplicity = 1

                         Standard orientation:
 ---------------------------------------------------------------------
 Center     Atomic      Atomic             Coordinates (Angstroms)
 Number     Number       Type             X           Y           Z
 ---------------------------------------------------------------------
      1          8           0       14.700628   -2.351794   -0.339644
      2          8           0      -14.784160    1.888974    0.949093
      3          6           0       11.243540   -1.479744    0.920181
      4          6           0      -12.434117   -1.089359    0.484553
      5          6           0       12.708412   -1.778895    0.963049
      6          6           0      -13.628036   -0.277004    0.648652
      7          6           0       13.339328   -1.931915   -0.366068
      8          6           0      -13.465976    1.254816    0.920642
      9          6           0       10.998848   -0.269817    0.036037
     10          6           0      -11.209974   -0.271461   -0.140075
     11          6           0       13.361789   -0.471298   -0.956777
     12          6           0      -12.732091    1.779034   -0.214008
     13          6           0       11.962640    0.157215   -0.835846
     14          6           0      -11.450993    1.031916   -0.543517
     15          6           0       10.908555   -1.049723    2.412915
     16          6           0       10.320499   -2.743120    0.539938
     17          6           0      -11.837322   -1.454953    1.981929
     18          6           0      -12.734437   -2.435700   -0.207348
     19          6           0        9.625497    0.372098    0.133316
     20          6           0      -10.029485   -1.002499   -0.462420
     21          6           0       11.638204    1.219097   -1.860004
     22          6           0      -10.539569    1.808320   -1.444377
     23          6           0        9.299934    1.651587    0.051376
     24          6           0       -8.743400   -0.487299   -0.387833
     25          6           0        7.996926    2.290280    0.137711
     26          6           0       -7.538759   -1.266558   -0.635033
     27          6           0        7.916643    3.725924    0.401943
     28          6           0       -7.620704   -2.540620   -1.130852
     29          6           0        6.870800    1.596025    0.031285
     30          6           0       -6.435012   -0.520956   -0.309031
     31          6           0        5.614536    2.047082    0.264484
     32          6           0       -5.050046   -1.055430   -0.522157
     33          6           0        4.455006    1.301347    0.013684
     34          6           0       -3.928465   -0.209115   -0.321962
     35          6           0        3.096626    1.700100    0.121774
     36          6           0       -2.615925   -0.642622   -0.346519
     37          6           0        2.797958    3.075614    0.492797
     38          6           0       -2.415560   -2.099838   -0.801881
     39          6           0        2.114515    0.649415   -0.148913
     40          6           0       -1.567145    0.194720   -0.066112
     41          6           0        0.788045    0.921880    0.002082
     42          6           0       -0.200314    0.041689   -0.318165
     43          1           0       13.341129   -1.060246    1.479248
     44          1           0       12.792721   -2.925158    1.509912
     45          1           0      -14.216240   -0.663402    1.516596
     46          1           0      -14.206793   -0.622096   -0.152551
     47          1           0       12.576742   -2.541411   -1.025431
     48          1           0      -13.050854    1.539076    1.766068
     49          1           0       14.200525    0.215028   -0.397974
     50          1           0       13.756635   -0.296648   -1.948470
     51          1           0      -13.321299    1.859630   -1.272348
     52          1           0      -12.514607    2.757771    0.068674
     53          1           0       11.117541   -2.050523    2.993037
     54          1           0        9.821008   -0.619617    2.583340
     55          1           0       11.702352   -0.269672    2.750168
     56          1           0       10.637393   -3.022582   -0.470425
     57          1           0       10.432180   -3.521121    1.210620
     58          1           0        9.339415   -2.574288    0.200187
     59          1           0      -11.591866   -0.375180    2.475940
     60          1           0      -10.859070   -2.108585    1.986654
     61          1           0      -12.781985   -2.063874    2.516826
     62          1           0      -13.767419   -2.765393    0.159890
     63          1           0      -11.961486   -3.249130    0.352398
     64          1           0      -12.778842   -2.354791   -1.235929
     65          1           0        8.848701   -0.419144    0.425975
     66          1           0      -10.029380   -1.979000   -0.784243
     67          1           0       10.499935    1.388668   -1.877963
     68          1           0       12.214347    2.294957   -1.664396
     69          1           0       11.965824    1.047197   -2.818777
     70          1           0      -11.175895    2.292969   -2.186643
     71          1           0       -9.901846    1.269390   -1.994888
     72          1           0      -10.016336    2.627815   -0.944570
     73          1           0       14.579827   -3.289770    0.097342
     74          1           0      -15.217246    1.492178    1.841793
     75          1           0       10.250084    2.328761    0.075024
     76          1           0       -8.617391    0.330117    0.280401
     77          1           0        8.776092    4.017820    0.321379
     78          1           0        7.204531    4.289655   -0.031339
     79          1           0        7.569921    4.007159    1.457480
     80          1           0       -8.033355   -3.139088   -0.463868
     81          1           0       -8.424426   -2.790038   -1.836713
     82          1           0       -6.734183   -3.015642   -1.476957
     83          1           0        6.945015    0.450220   -0.011740
     84          1           0       -6.734493    0.459856    0.119678
     85          1           0        5.380705    3.139100    0.417512
     86          1           0       -4.704772   -2.065917   -0.772068
     87          1           0        4.517834    0.119415   -0.316090
     88          1           0       -4.184340    0.844570   -0.106011
     89          1           0        3.192324    2.990928    1.495200
     90          1           0        1.649199    3.148588    0.677359
     91          1           0        3.128507    3.824013   -0.161200
     92          1           0       -3.176154   -2.628114   -0.185407
     93          1           0       -2.597745   -2.073598   -1.857971
     94          1           0       -1.401537   -2.537070   -0.511853
     95          1           0        2.260385   -0.426670   -0.267553
     96          1           0       -1.851179    1.278993    0.209662
     97          1           0        0.517387    1.722673    0.418402
     98          1           0        0.014905   -1.027613   -0.745687
 ---------------------------------------------------------------------

 SCF Done:  E(RCAM-B3LYP) =  -1706.92245807     A.U. after   15 cycles

 Excitation energies and oscillator strengths:

 Excited State   1:      Singlet-A      2.1075 eV  588.30 nm  f=3.7966  <S**2>=0.000
     155 ->158         0.14941
     156 ->157         0.69189
 This state for optimization and/or second-order correction.
 Total Energy, E(TD-HF/TD-DFT) =  -1706.84500913
 Copying the excited state density for this state as the 1-particle RhoCI density.

 The electronic state is 1-A.
 Alpha  occ. eigenvalues --  -19.22645 -19.21616 -10.31219 -10.29476 -10.28101
 Alpha  occ. eigenvalues --  -10.27964 -10.27866 -10.27628 -10.27192 -10.27122
 Alpha  occ. eigenvalues --  -10.26907 -10.26889 -10.26796 -10.26706 -10.26559
 Alpha  occ. eigenvalues --  -10.26545 -10.26479 -10.26475 -10.26469 -10.26460
 Alpha  occ. eigenvalues --  -10.26441 -10.26390 -10.26325 -10.26292 -10.26185
 Alpha  occ. eigenvalues --  -10.26178 -10.26063 -10.26051 -10.26044 -10.26000
 Alpha  occ. eigenvalues --  -10.25848 -10.25324 -10.25302 -10.25197 -10.25181
 Alpha  occ. eigenvalues --  -10.24656 -10.24651 -10.24324 -10.24053 -10.23897
 Alpha  occ. eigenvalues --  -10.23485 -10.22589  -1.08946  -1.06932  -0.93573
 Alpha  occ. eigenvalues --   -0.93544  -0.92734  -0.92363  -0.91824  -0.90858
 Alpha  occ. eigenvalues --   -0.87874  -0.87204  -0.86318  -0.85510  -0.84977
 Alpha  occ. eigenvalues --   -0.83421  -0.82412  -0.80886  -0.80594  -0.79620
 Alpha  occ. eigenvalues --   -0.77783  -0.77332  -0.76735  -0.75994  -0.75574
 Alpha  occ. eigenvalues --   -0.75179  -0.74108  -0.73719  -0.73220  -0.71118
 Alpha  occ. eigenvalues --   -0.68907  -0.67502  -0.65777  -0.64538  -0.63990
 Alpha  occ. eigenvalues --   -0.63231  -0.63071  -0.61857  -0.61233  -0.59601
 Alpha  occ. eigenvalues --   -0.59155  -0.58741  -0.58400  -0.57635  -0.56412
 Alpha  occ. eigenvalues --   -0.56299  -0.55591  -0.54918  -0.54343  -0.54169
 Alpha  occ. eigenvalues --   -0.53697  -0.52662  -0.52232  -0.51998  -0.50996
 Alpha  occ. eigenvalues --   -0.50706  -0.50692  -0.50574  -0.50284  -0.49849
 Alpha  occ. eigenvalues --   -0.49435  -0.49039  -0.48891  -0.48504  -0.48223
 Alpha  occ. eigenvalues --   -0.47993  -0.47220  -0.46721  -0.46421  -0.46247
 Alpha  occ. eigenvalues --   -0.45970  -0.45813  -0.45661  -0.45185  -0.45016
 Alpha  occ. eigenvalues --   -0.44638  -0.44509  -0.43925  -0.43781  -0.43624
 Alpha  occ. eigenvalues --   -0.43516  -0.43150  -0.42186  -0.42155  -0.41937
 Alpha  occ. eigenvalues --   -0.41726  -0.41361  -0.41005  -0.40797  -0.40571
 Alpha  occ. eigenvalues --   -0.40494  -0.40431  -0.39954  -0.39528  -0.39355
 Alpha  occ. eigenvalues --   -0.39122  -0.38714  -0.38573  -0.38518  -0.38246
 Alpha  occ. eigenvalues --   -0.38062  -0.37521  -0.37313  -0.37118  -0.35784
 Alpha  occ. eigenvalues --   -0.35008  -0.34586  -0.34100  -0.32619  -0.32225
 Alpha  occ. eigenvalues --   -0.32152  -0.29765  -0.27853  -0.25735  -0.23022
 Alpha  occ. eigenvalues --   -0.18897
 Alpha virt. eigenvalues --   -0.05967  -0.00854   0.02513   0.05323   0.08007
 Alpha virt. eigenvalues --    0.09694   0.10196   0.10583   0.11228   0.12130
 Alpha virt. eigenvalues --    0.12470   0.12854   0.13088   0.13727   0.14121

 Mulliken charges:
               1
     1  O   -0.549214
     2  O   -0.574132
     3  C   -0.022096
     4  C    0.008316
     5  C   -0.161756
     6  C   -0.197294
     7  C    0.168371
     8  C    0.181021
     9  C    0.059612
    10  C    0.071380
    11  C   -0.224584
    12  C   -0.206263
    13  C    0.063733
    14  C    0.020699
    15  C   -0.280092
    16  C   -0.317316
    17  C   -0.284560
    18  C   -0.309775
    19  C   -0.108781
    20  C   -0.140264
    21  C   -0.368379
    22  C   -0.350197
    23  C   -0.134400
    24  C   -0.128744
    25  C    0.097516
    26  C    0.185533
    27  C   -0.341847
    28  C   -0.414152
    29  C   -0.102729
    30  C   -0.155236
    31  C   -0.108818
    32  C   -0.126282
    33  C   -0.096950
    34  C   -0.092770
    35  C    0.068216
    36  C    0.094427
    37  C   -0.371563
    38  C   -0.378370
    39  C   -0.113608
    40  C   -0.133329
    41  C   -0.025263
    42  C   -0.097081
    43  H    0.119187
    44  H    0.032488
    45  H    0.066118
    46  H    0.110147
    47  H    0.072669
    48  H    0.097247
    49  H    0.093230
    50  H    0.110480
    51  H    0.105498
    52  H    0.111546
    53  H    0.080612
    54  H    0.098802
    55  H    0.095479
    56  H    0.099703
    57  H    0.115364
    58  H    0.116990
    59  H    0.082587
    60  H    0.097738
    61  H    0.066464
    62  H    0.098518
    63  H    0.083669
    64  H    0.123710
    65  H    0.083107
    66  H    0.074486
    67  H    0.123422
    68  H    0.073392
    69  H    0.116482
    70  H    0.099459
    71  H    0.127504
    72  H    0.110446
    73  H    0.304269
    74  H    0.300401
    75  H    0.096828
    76  H    0.089009
    77  H    0.101113
    78  H    0.126819
    79  H    0.101739
    80  H    0.143264
    81  H    0.123320
    82  H    0.119398
    83  H    0.071361
    84  H    0.092675
    85  H    0.077776
    86  H    0.090647
    87  H    0.064995
    88  H    0.079616
    89  H    0.144303
    90  H    0.100063
    91  H    0.139264
    92  H    0.122274
    93  H    0.140414
    94  H    0.106315
    95  H    0.093555
    96  H    0.065399
    97  H    0.052564
    98  H    0.063092
 Sum of Mulliken charges =  -0.00000

 Dipole moment (field-independent basis, Debye):
    X=             -1.7098    Y=             -1.8258    Z=              1.2155  Tot=              2.7811
 Quadrupole moment (field-independent basis, Debye-Ang):
   XX=           -297.7835   YY=           -240.7901   ZZ=           -262.8957
   XY=             13.9867   XZ=             -4.9444   YZ=              3.9861

 Normal termination of Gaussian 16 at Fri Jul 12 07:30:01 2019.
