 Gaussian 16, Revision A.03,
 Gaussian 16:  ES64L-G16RevA.03 25-Dec-2016

 -------------------------------------
 # td=(NStates=1) CAM-B3LYP/6-31G(d,p)
 -------------------------------------

 --
 TD
 --
 Symbolic Z-matrix:
 Charge =  0 Multiplicity = 1

                         Standard orientation:
 ---------------------------------------------------------------------
 Center     Atomic      Atomic             Coordinates (Angstroms)
 Number     Number       Type             X           Y           Z
 ---------------------------------------------------------------------
      1          8           0       14.699654   -2.234949   -0.109390
      2          8           0      -14.602322    1.822121    1.423189
      3          6           0       11.124660   -1.572483    0.977229
      4          6           0      -12.290422   -1.097158    0.614030
      5          6           0       12.644594   -1.906414    1.084661
      6          6           0      -13.639354   -0.322555    0.811704
      7          6           0       13.376545   -1.854359   -0.273565
      8          6           0      -13.367045    1.151350    1.093273
      9          6           0       11.003853   -0.270861    0.091972
     10          6           0      -11.255309   -0.214911   -0.111734
     11          6           0       13.331150   -0.515276   -0.788088
     12          6           0      -12.696558    1.769945   -0.048843
     13          6           0       11.930342    0.168800   -0.759783
     14          6           0      -11.542320    1.079642   -0.482341
     15          6           0       10.617545   -1.322017    2.463387
     16          6           0       10.379740   -2.654651    0.426491
     17          6           0      -11.684117   -1.470818    1.994642
     18          6           0      -12.629876   -2.361514   -0.154318
     19          6           0        9.653714    0.284478    0.181374
     20          6           0      -10.032548   -0.960329   -0.498860
     21          6           0       11.796465    1.208555   -1.762784
     22          6           0      -10.567204    1.837021   -1.482007
     23          6           0        9.357292    1.678171    0.089029
     24          6           0       -8.816527   -0.478402   -0.408423
     25          6           0        8.087132    2.297587    0.248166
     26          6           0       -7.537182   -1.186498   -0.695844
     27          6           0        7.932853    3.728315    0.612294
     28          6           0       -7.687270   -2.592441   -1.254268
     29          6           0        6.878391    1.606563    0.036460
     30          6           0       -6.367630   -0.569333   -0.439286
     31          6           0        5.554394    2.088061    0.131537
     32          6           0       -5.091865   -1.091936   -0.694861
     33          6           0        4.443458    1.265177   -0.096035
     34          6           0       -4.017642   -0.362894   -0.371308
     35          6           0        3.067695    1.744463    0.005359
     36          6           0       -2.705291   -0.742952   -0.628300
     37          6           0        2.756621    3.138657    0.442854
     38          6           0       -2.317157   -2.018303   -0.960410
     39          6           0        2.062773    0.780800   -0.327226
     40          6           0       -1.631951    0.249764   -0.438016
     41          6           0        0.680425    1.005555   -0.238392
     42          6           0       -0.272600    0.017323   -0.476436
     43          1           0       13.351132   -1.170150    1.701960
     44          1           0       12.804064   -2.937809    1.500951
     45          1           0      -14.156030   -0.491480    1.770558
     46          1           0      -14.537270   -0.366812   -0.058214
     47          1           0       12.807012   -2.549658   -0.831159
     48          1           0      -12.889848    1.200590    1.978087
     49          1           0       13.877333    0.057302   -0.276196
     50          1           0       13.659120   -0.432066   -1.780223
     51          1           0      -13.348169    1.993741   -0.988523
     52          1           0      -12.336270    2.760649    0.454180
     53          1           0       10.479662   -2.343146    2.955611
     54          1           0        9.591062   -0.852752    2.510088
     55          1           0       11.292675   -0.776450    2.908362
     56          1           0       10.414177   -2.787997   -0.550449
     57          1           0       10.447762   -3.590655    0.834784
     58          1           0        9.209639   -2.428298    0.594620
     59          1           0      -11.634052   -0.465007    2.570069
     60          1           0      -10.690578   -1.886972    1.908349
     61          1           0      -12.072944   -2.487710    2.386853
     62          1           0      -13.611149   -2.964127    0.186349
     63          1           0      -11.871762   -3.185355   -0.140685
     64          1           0      -13.124338   -2.142059   -1.076773
     65          1           0        8.797259   -0.321868    0.451646
     66          1           0      -10.261761   -1.868895   -0.882992
     67          1           0       10.731978    1.290478   -1.894444
     68          1           0       12.182638    2.180756   -1.404903
     69          1           0       12.397578    1.006749   -2.561342
     70          1           0      -11.130374    2.670296   -1.974630
     71          1           0       -9.862457    1.233368   -2.035665
     72          1           0       -9.855997    2.466505   -1.067026
     73          1           0       14.811243   -3.144876    0.160447
     74          1           0      -14.971720    1.063711    1.993112
     75          1           0       10.236698    2.417309   -0.088079
     76          1           0       -8.474982    0.530119   -0.257233
     77          1           0        8.959922    4.193480    0.513234
     78          1           0        7.461839    4.356200   -0.220915
     79          1           0        7.266213    3.876152    1.317796
     80          1           0       -8.308968   -3.125151   -0.382201
     81          1           0       -8.359877   -2.619222   -2.040752
     82          1           0       -6.731009   -2.907677   -1.477894
     83          1           0        7.043426    0.601630   -0.375000
     84          1           0       -6.412640    0.439695    0.116765
     85          1           0        5.250078    3.157115    0.361700
     86          1           0       -5.030829   -2.053965   -1.096391
     87          1           0        4.713370    0.408230   -0.541560
     88          1           0       -4.064731    0.795732   -0.092733
     89          1           0        3.449522    3.414106    1.115010
     90          1           0        1.731638    3.456752    0.612462
     91          1           0        2.997218    3.847619   -0.308634
     92          1           0       -2.666171   -2.839353   -0.264500
     93          1           0       -2.887562   -2.485175   -1.906543
     94          1           0       -1.260523   -2.246697   -1.140662
     95          1           0        2.311322   -0.067912   -0.756968
     96          1           0       -2.031590    1.223328    0.026715
     97          1           0        0.260791    1.921268    0.190433
     98          1           0        0.089908   -0.925684   -0.637229
 ---------------------------------------------------------------------

 SCF Done:  E(RCAM-B3LYP) =  -1706.97069826     A.U. after   15 cycles

 Excitation energies and oscillator strengths:

 Excited State   1:      Singlet-A      2.0156 eV  615.13 nm  f=3.5872  <S**2>=0.000
     155 ->158         0.14633
     156 ->157         0.69404
 This state for optimization and/or second-order correction.
 Total Energy, E(TD-HF/TD-DFT) =  -1706.89662735
 Copying the excited state density for this state as the 1-particle RhoCI density.

 The electronic state is 1-A.
 Alpha  occ. eigenvalues --  -19.20916 -19.20876 -10.28983 -10.28720 -10.28414
 Alpha  occ. eigenvalues --  -10.28283 -10.27324 -10.27191 -10.26974 -10.26903
 Alpha  occ. eigenvalues --  -10.26817 -10.26793 -10.26785 -10.26766 -10.26749
 Alpha  occ. eigenvalues --  -10.26543 -10.26375 -10.26287 -10.26132 -10.25955
 Alpha  occ. eigenvalues --  -10.25898 -10.25821 -10.25813 -10.25762 -10.25755
 Alpha  occ. eigenvalues --  -10.25739 -10.25736 -10.25703 -10.25526 -10.25401
 Alpha  occ. eigenvalues --  -10.25386 -10.25364 -10.25342 -10.25335 -10.24893
 Alpha  occ. eigenvalues --  -10.24847 -10.24694 -10.24504 -10.23916 -10.23883
 Alpha  occ. eigenvalues --  -10.23380 -10.22574  -1.10518  -1.08538  -0.93950
 Alpha  occ. eigenvalues --   -0.93857  -0.92896  -0.91632  -0.90787  -0.90034
 Alpha  occ. eigenvalues --   -0.88507  -0.87731  -0.87334  -0.86044  -0.85398
 Alpha  occ. eigenvalues --   -0.83534  -0.82680  -0.81020  -0.80169  -0.79535
 Alpha  occ. eigenvalues --   -0.77371  -0.77064  -0.76879  -0.76452  -0.76192
 Alpha  occ. eigenvalues --   -0.76109  -0.75971  -0.75310  -0.73280  -0.71125
 Alpha  occ. eigenvalues --   -0.69491  -0.67726  -0.66546  -0.65518  -0.64495
 Alpha  occ. eigenvalues --   -0.64291  -0.63293  -0.62784  -0.61526  -0.60803
 Alpha  occ. eigenvalues --   -0.60458  -0.59163  -0.58512  -0.58168  -0.56713
 Alpha  occ. eigenvalues --   -0.56191  -0.55441  -0.55127  -0.55054  -0.54227
 Alpha  occ. eigenvalues --   -0.53725  -0.53439  -0.52896  -0.52147  -0.51711
 Alpha  occ. eigenvalues --   -0.51435  -0.50794  -0.50362  -0.50070  -0.50017
 Alpha  occ. eigenvalues --   -0.49673  -0.49573  -0.49318  -0.48582  -0.48386
 Alpha  occ. eigenvalues --   -0.48091  -0.48003  -0.47436  -0.47020  -0.46586
 Alpha  occ. eigenvalues --   -0.46354  -0.46088  -0.45993  -0.45488  -0.45400
 Alpha  occ. eigenvalues --   -0.44949  -0.44529  -0.44442  -0.44123  -0.43981
 Alpha  occ. eigenvalues --   -0.43633  -0.43015  -0.42688  -0.42362  -0.42274
 Alpha  occ. eigenvalues --   -0.42175  -0.41895  -0.41611  -0.41568  -0.41361
 Alpha  occ. eigenvalues --   -0.41300  -0.40410  -0.40308  -0.40118  -0.39682
 Alpha  occ. eigenvalues --   -0.39089  -0.39020  -0.38728  -0.38417  -0.38314
 Alpha  occ. eigenvalues --   -0.37754  -0.37074  -0.37007  -0.36031  -0.35768
 Alpha  occ. eigenvalues --   -0.34981  -0.34604  -0.34286  -0.32182  -0.31726
 Alpha  occ. eigenvalues --   -0.31060  -0.29902  -0.28324  -0.25978  -0.23214
 Alpha  occ. eigenvalues --   -0.18610
 Alpha virt. eigenvalues --   -0.06188  -0.01110   0.02641   0.05793   0.08102
 Alpha virt. eigenvalues --    0.09770   0.10869   0.11496   0.12253   0.12431
 Alpha virt. eigenvalues --    0.12755   0.13218   0.13392   0.14091   0.14326

 Mulliken charges:
               1
     1  O   -0.558921
     2  O   -0.570872
     3  C   -0.013942
     4  C    0.008534
     5  C   -0.199984
     6  C   -0.206508
     7  C    0.170999
     8  C    0.160419
     9  C    0.077835
    10  C    0.035944
    11  C   -0.175787
    12  C   -0.230112
    13  C    0.018095
    14  C    0.087454
    15  C   -0.288560
    16  C   -0.290550
    17  C   -0.306636
    18  C   -0.324465
    19  C   -0.131660
    20  C   -0.141585
    21  C   -0.365604
    22  C   -0.372086
    23  C   -0.135331
    24  C   -0.059946
    25  C    0.099473
    26  C    0.073806
    27  C   -0.367957
    28  C   -0.348521
    29  C   -0.133156
    30  C   -0.126937
    31  C   -0.089995
    32  C   -0.079156
    33  C   -0.097428
    34  C   -0.123095
    35  C    0.091825
    36  C    0.175540
    37  C   -0.386021
    38  C   -0.414154
    39  C   -0.109375
    40  C   -0.148345
    41  C   -0.080451
    42  C   -0.070491
    43  H    0.081019
    44  H    0.063238
    45  H    0.069577
    46  H    0.084471
    47  H    0.072611
    48  H    0.102056
    49  H    0.126895
    50  H    0.098370
    51  H    0.117066
    52  H    0.103453
    53  H    0.086222
    54  H    0.098123
    55  H    0.115499
    56  H    0.114970
    57  H    0.111050
    58  H    0.071621
    59  H    0.100375
    60  H    0.113674
    61  H    0.093938
    62  H    0.081545
    63  H    0.099916
    64  H    0.118002
    65  H    0.095150
    66  H    0.091505
    67  H    0.129996
    68  H    0.114500
    69  H    0.112328
    70  H    0.096533
    71  H    0.124676
    72  H    0.121029
    73  H    0.303979
    74  H    0.299118
    75  H    0.083019
    76  H    0.079260
    77  H    0.101529
    78  H    0.107028
    79  H    0.136949
    80  H    0.104246
    81  H    0.132107
    82  H    0.103962
    83  H    0.077117
    84  H    0.078583
    85  H    0.072545
    86  H    0.088152
    87  H    0.079799
    88  H    0.077725
    89  H    0.128084
    90  H    0.121768
    91  H    0.131788
    92  H    0.121582
    93  H    0.090087
    94  H    0.119168
    95  H    0.072577
    96  H    0.072606
    97  H    0.076674
    98  H    0.078850
 Sum of Mulliken charges =  -0.00000

 Dipole moment (field-independent basis, Debye):
    X=              1.4454    Y=             -2.4005    Z=             -0.2452  Tot=              2.8128
 Quadrupole moment (field-independent basis, Debye-Ang):
   XX=           -289.5839   YY=           -239.2114   ZZ=           -264.6473
   XY=             16.4329   XZ=             -3.9039   YZ=              0.4963

 Normal termination of Gaussian 16 at Fri Jul 19 11:24:24 2019.
