 Gaussian 16, Revision A.03,
 Gaussian 16:  ES64L-G16RevA.03 25-Dec-2016

 -------------------------------------
 # td=(NStates=1) CAM-B3LYP/6-31G(d,p)
 -------------------------------------

 --
 TD
 --
 Symbolic Z-matrix:
 Charge =  0 Multiplicity = 1

                         Standard orientation:
 ---------------------------------------------------------------------
 Center     Atomic      Atomic             Coordinates (Angstroms)
 Number     Number       Type             X           Y           Z
 ---------------------------------------------------------------------
      1          8           0       14.455828   -2.517228   -0.267780
      2          8           0      -14.756484    1.767150    0.838936
      3          6           0       10.971797   -1.634145    0.930748
      4          6           0      -12.251432   -1.115367    0.693206
      5          6           0       12.403244   -2.136104    0.893706
      6          6           0      -13.593816   -0.334134    0.585226
      7          6           0       13.218175   -2.160630   -0.443921
      8          6           0      -13.414988    1.184377    0.765663
      9          6           0       10.870816   -0.381595    0.043662
     10          6           0      -11.296218   -0.305109   -0.197536
     11          6           0       13.158392   -0.767974   -1.041851
     12          6           0      -12.726996    1.774920   -0.460676
     13          6           0       11.901497    0.002381   -0.799540
     14          6           0      -11.442552    0.977541   -0.726700
     15          6           0       10.623070   -1.320788    2.357972
     16          6           0        9.993105   -2.713929    0.337414
     17          6           0      -11.805688   -1.270800    2.030153
     18          6           0      -12.644945   -2.459723    0.080106
     19          6           0        9.602537    0.478855    0.151641
     20          6           0       -9.972403   -1.106067   -0.384589
     21          6           0       11.643035    1.227803   -1.672894
     22          6           0      -10.472498    1.626907   -1.666176
     23          6           0        9.431336    1.722260    0.112419
     24          6           0       -8.765764   -0.633859   -0.306771
     25          6           0        8.146296    2.408240    0.277029
     26          6           0       -7.457286   -1.244181   -0.413482
     27          6           0        7.949993    3.883355    0.652065
     28          6           0       -7.448804   -2.778721   -0.760426
     29          6           0        6.949642    1.698230   -0.199270
     30          6           0       -6.306959   -0.546683   -0.394072
     31          6           0        5.678921    2.216517    0.167107
     32          6           0       -4.989181   -0.985292   -0.479762
     33          6           0        4.505448    1.515304    0.097009
     34          6           0       -3.868167   -0.152603   -0.375909
     35          6           0        3.182306    1.970944    0.238031
     36          6           0       -2.534934   -0.600939   -0.479353
     37          6           0        2.862737    3.275590    0.880553
     38          6           0       -2.237491   -2.059870   -0.848343
     39          6           0        2.138447    0.993083   -0.127946
     40          6           0       -1.552274    0.406830   -0.281332
     41          6           0        0.771684    1.199278   -0.038694
     42          6           0       -0.205126    0.309517   -0.453914
     43          1           0       12.968864   -1.548842    1.646276
     44          1           0       12.495421   -3.242350    1.313013
     45          1           0      -14.356620   -0.872209    1.366751
     46          1           0      -13.958338   -0.575823   -0.268534
     47          1           0       12.698119   -2.767163   -1.136444
     48          1           0      -13.009236    1.418054    1.840015
     49          1           0       13.821598   -0.122046   -0.675035
     50          1           0       13.162140   -0.716350   -2.220044
     51          1           0      -13.381694    1.851460   -1.326467
     52          1           0      -12.383326    2.764650   -0.295308
     53          1           0       10.592390   -2.326223    2.838641
     54          1           0        9.778726   -0.714046    2.265839
     55          1           0       11.299688   -0.552301    2.970368
     56          1           0       10.323935   -2.821005   -0.692234
     57          1           0       10.300057   -3.704532    0.863270
     58          1           0        8.947606   -2.401212    0.293072
     59          1           0      -11.791399   -0.446439    2.901431
     60          1           0      -10.881891   -1.745901    2.148627
     61          1           0      -12.523811   -2.157314    2.402856
     62          1           0      -13.585720   -2.898166    0.642455
     63          1           0      -11.788908   -3.337496    0.209317
     64          1           0      -12.736810   -2.453337   -1.043144
     65          1           0        8.620869   -0.135294    0.375878
     66          1           0      -10.053047   -2.293497   -0.573929
     67          1           0       10.509489    1.213162   -2.115324
     68          1           0       11.800487    2.137113   -1.226446
     69          1           0       12.276029    1.196866   -2.607586
     70          1           0      -10.883010    1.953356   -2.613570
     71          1           0       -9.609802    0.893073   -1.902188
     72          1           0       -9.966175    2.523685   -1.159593
     73          1           0       14.652206   -3.324046    0.296426
     74          1           0      -15.008646    1.577639    1.789116
     75          1           0       10.351124    2.307088    0.079028
     76          1           0       -8.643707    0.320218    0.078085
     77          1           0        9.011012    4.263764    0.686530
     78          1           0        7.586658    4.440766   -0.135584
     79          1           0        7.760184    4.024308    1.631002
     80          1           0       -8.357739   -3.334149   -0.216094
     81          1           0       -7.606457   -2.775563   -1.975114
     82          1           0       -6.382768   -3.150811   -0.562925
     83          1           0        6.973766    0.793822   -0.794843
     84          1           0       -6.331500    0.576395   -0.478622
     85          1           0        5.524965    3.115724    0.497116
     86          1           0       -4.890885   -1.984635   -0.718985
     87          1           0        4.391845    0.537709   -0.525734
     88          1           0       -4.124184    0.826046    0.255705
     89          1           0        2.889562    3.453750    2.060687
     90          1           0        1.791531    3.496667    0.469442
     91          1           0        3.845401    3.877730    0.268094
     92          1           0       -2.529715   -2.560066    0.133526
     93          1           0       -2.933466   -2.214312   -1.672048
     94          1           0       -1.147360   -2.280173   -1.230389
     95          1           0        2.295870    0.112977   -0.506166
     96          1           0       -1.958669    1.170053    0.039599
     97          1           0        0.277513    2.194318    0.417660
     98          1           0        0.193349   -0.565002   -1.120050
 ---------------------------------------------------------------------

 SCF Done:  E(RCAM-B3LYP) =  -1706.89210716     A.U. after   15 cycles

 Excitation energies and oscillator strengths:

 Excited State   1:      Singlet-A      2.0312 eV  610.40 nm  f=3.5765  <S**2>=0.000
     155 ->158         0.13382
     156 ->157         0.69848
     156 <-157        -0.10717
 This state for optimization and/or second-order correction.
 Total Energy, E(TD-HF/TD-DFT) =  -1706.81746174
 Copying the excited state density for this state as the 1-particle RhoCI density.

 The electronic state is 1-A.
 Alpha  occ. eigenvalues --  -19.21867 -19.20324 -10.31334 -10.30014 -10.28749
 Alpha  occ. eigenvalues --  -10.28545 -10.28168 -10.28040 -10.27589 -10.27565
 Alpha  occ. eigenvalues --  -10.27363 -10.27181 -10.27157 -10.27122 -10.27084
 Alpha  occ. eigenvalues --  -10.27077 -10.26914 -10.26890 -10.26742 -10.26558
 Alpha  occ. eigenvalues --  -10.26514 -10.26423 -10.26001 -10.25879 -10.25708
 Alpha  occ. eigenvalues --  -10.25703 -10.25503 -10.25453 -10.25451 -10.25448
 Alpha  occ. eigenvalues --  -10.25447 -10.25431 -10.25378 -10.25286 -10.25128
 Alpha  occ. eigenvalues --  -10.24994 -10.24881 -10.24827 -10.24431 -10.24330
 Alpha  occ. eigenvalues --  -10.24317 -10.24195  -1.13111  -1.07207  -0.93798
 Alpha  occ. eigenvalues --   -0.93209  -0.92169  -0.91471  -0.90548  -0.89811
 Alpha  occ. eigenvalues --   -0.87857  -0.87483  -0.87169  -0.85746  -0.84631
 Alpha  occ. eigenvalues --   -0.82686  -0.81551  -0.80708  -0.79674  -0.78610
 Alpha  occ. eigenvalues --   -0.76644  -0.75950  -0.75748  -0.75474  -0.75453
 Alpha  occ. eigenvalues --   -0.75026  -0.74804  -0.74654  -0.73176  -0.70871
 Alpha  occ. eigenvalues --   -0.69567  -0.67623  -0.65971  -0.64964  -0.63954
 Alpha  occ. eigenvalues --   -0.62930  -0.62488  -0.61483  -0.60436  -0.60172
 Alpha  occ. eigenvalues --   -0.60063  -0.59094  -0.58309  -0.57690  -0.57035
 Alpha  occ. eigenvalues --   -0.56087  -0.55007  -0.54830  -0.54455  -0.53161
 Alpha  occ. eigenvalues --   -0.52881  -0.52618  -0.52159  -0.51762  -0.51359
 Alpha  occ. eigenvalues --   -0.50847  -0.50556  -0.50151  -0.49663  -0.49381
 Alpha  occ. eigenvalues --   -0.49353  -0.48826  -0.48722  -0.48650  -0.47822
 Alpha  occ. eigenvalues --   -0.47118  -0.46998  -0.46812  -0.46676  -0.46387
 Alpha  occ. eigenvalues --   -0.45551  -0.45389  -0.45155  -0.44845  -0.44706
 Alpha  occ. eigenvalues --   -0.44562  -0.44404  -0.43939  -0.43457  -0.43322
 Alpha  occ. eigenvalues --   -0.43089  -0.42569  -0.42414  -0.42287  -0.42072
 Alpha  occ. eigenvalues --   -0.41606  -0.41026  -0.41023  -0.40709  -0.40601
 Alpha  occ. eigenvalues --   -0.40368  -0.40061  -0.39335  -0.39194  -0.38864
 Alpha  occ. eigenvalues --   -0.38792  -0.38666  -0.38446  -0.38073  -0.37764
 Alpha  occ. eigenvalues --   -0.37486  -0.37318  -0.37026  -0.36173  -0.35809
 Alpha  occ. eigenvalues --   -0.35404  -0.34296  -0.33892  -0.32060  -0.31670
 Alpha  occ. eigenvalues --   -0.30932  -0.29370  -0.28045  -0.26462  -0.23755
 Alpha  occ. eigenvalues --   -0.18571
 Alpha virt. eigenvalues --   -0.06270  -0.00737   0.02592   0.05746   0.07680
 Alpha virt. eigenvalues --    0.09448   0.10959   0.11204   0.11346   0.11798
 Alpha virt. eigenvalues --    0.11966   0.12384   0.12930   0.12972   0.13594

 Mulliken charges:
               1
     1  O   -0.540636
     2  O   -0.568454
     3  C   -0.013909
     4  C    0.007126
     5  C   -0.217191
     6  C   -0.144808
     7  C    0.225276
     8  C    0.137691
     9  C    0.054461
    10  C    0.037187
    11  C   -0.205390
    12  C   -0.207564
    13  C    0.019263
    14  C    0.047895
    15  C   -0.281230
    16  C   -0.297760
    17  C   -0.278452
    18  C   -0.304889
    19  C   -0.115725
    20  C   -0.145672
    21  C   -0.373633
    22  C   -0.370533
    23  C   -0.072752
    24  C   -0.069277
    25  C    0.023628
    26  C    0.080029
    27  C   -0.370770
    28  C   -0.350713
    29  C   -0.120333
    30  C   -0.117602
    31  C   -0.070063
    32  C   -0.087739
    33  C   -0.092498
    34  C   -0.132830
    35  C    0.076394
    36  C    0.069857
    37  C   -0.331080
    38  C   -0.355587
    39  C   -0.093278
    40  C   -0.053245
    41  C   -0.079871
    42  C   -0.100677
    43  H    0.099154
    44  H    0.044669
    45  H    0.050614
    46  H    0.111778
    47  H    0.066490
    48  H    0.075552
    49  H    0.130458
    50  H    0.094262
    51  H    0.130894
    52  H    0.114939
    53  H    0.097044
    54  H    0.113213
    55  H    0.081175
    56  H    0.109242
    57  H    0.088300
    58  H    0.110994
    59  H    0.090328
    60  H    0.118989
    61  H    0.072032
    62  H    0.099997
    63  H    0.067967
    64  H    0.116446
    65  H    0.074778
    66  H    0.069191
    67  H    0.115618
    68  H    0.131307
    69  H    0.087048
    70  H    0.117187
    71  H    0.119412
    72  H    0.105298
    73  H    0.316260
    74  H    0.302524
    75  H    0.078197
    76  H    0.084712
    77  H    0.097852
    78  H    0.145103
    79  H    0.143004
    80  H    0.103848
    81  H    0.108914
    82  H    0.107110
    83  H    0.096669
    84  H    0.075927
    85  H    0.072281
    86  H    0.073058
    87  H    0.063214
    88  H    0.087908
    89  H    0.123713
    90  H    0.111223
    91  H    0.076251
    92  H    0.131535
    93  H    0.128465
    94  H    0.106345
    95  H    0.068104
    96  H    0.043577
    97  H    0.066341
    98  H    0.068847
 Sum of Mulliken charges =  -0.00000

 Dipole moment (field-independent basis, Debye):
    X=              2.1157    Y=             -0.9589    Z=              1.2588  Tot=              2.6420
 Quadrupole moment (field-independent basis, Debye-Ang):
   XX=           -269.8624   YY=           -244.4521   ZZ=           -258.5674
   XY=              6.2912   XZ=             -4.5010   YZ=              3.1099

 Normal termination of Gaussian 16 at Sat Jul 20 00:24:26 2019.
