 Gaussian 16, Revision A.03,
 Gaussian 16:  ES64L-G16RevA.03 25-Dec-2016

 -------------------------------------
 # td=(NStates=1) CAM-B3LYP/6-31G(d,p)
 -------------------------------------

 --
 TD
 --
 Symbolic Z-matrix:
 Charge =  0 Multiplicity = 1

                         Standard orientation:
 ---------------------------------------------------------------------
 Center     Atomic      Atomic             Coordinates (Angstroms)
 Number     Number       Type             X           Y           Z
 ---------------------------------------------------------------------
      1          8           0       14.625662   -2.366689   -0.507875
      2          8           0      -14.855895    1.862832    0.408632
      3          6           0       11.092567   -1.689639    0.788556
      4          6           0      -12.336530   -0.986168    0.577707
      5          6           0       12.624042   -1.961848    0.734885
      6          6           0      -13.741518   -0.278259    0.462617
      7          6           0       13.267041   -1.864149   -0.595824
      8          6           0      -13.621480    1.194149    0.541832
      9          6           0       10.941525   -0.260649   -0.084529
     10          6           0      -11.264310   -0.321197   -0.216481
     11          6           0       13.345148   -0.355154   -1.079160
     12          6           0      -12.861164    1.648802   -0.720852
     13          6           0       11.938126    0.186731   -0.987935
     14          6           0      -11.500046    0.906335   -0.862616
     15          6           0       10.562305   -1.548941    2.220657
     16          6           0       10.272503   -2.813129    0.006857
     17          6           0      -12.064024   -1.079995    2.177357
     18          6           0      -12.510582   -2.469364    0.008101
     19          6           0        9.598931    0.371824    0.043981
     20          6           0       -9.944689   -1.070853   -0.276754
     21          6           0       11.726244    1.497347   -1.668708
     22          6           0      -10.494379    1.562982   -1.790752
     23          6           0        9.331482    1.625023    0.168196
     24          6           0       -8.734157   -0.445707   -0.303575
     25          6           0        8.066411    2.304047    0.244177
     26          6           0       -7.450740   -1.253146   -0.455121
     27          6           0        8.041304    3.862369    0.402039
     28          6           0       -7.499321   -2.659099   -0.861233
     29          6           0        6.923309    1.553712    0.187883
     30          6           0       -6.331517   -0.519267   -0.265483
     31          6           0        5.611200    2.151932    0.462230
     32          6           0       -5.009533   -1.011219   -0.301549
     33          6           0        4.500960    1.336933    0.309721
     34          6           0       -3.898511   -0.178971   -0.159473
     35          6           0        3.188077    1.751940    0.480672
     36          6           0       -2.534379   -0.633005   -0.215670
     37          6           0        2.946720    3.166806    0.830418
     38          6           0       -2.285137   -2.098798   -0.528711
     39          6           0        2.113837    0.806235    0.247954
     40          6           0       -1.504204    0.202631   -0.003379
     41          6           0        0.783468    0.927300    0.422748
     42          6           0       -0.207348    0.083051   -0.090317
     43          1           0       13.041972   -1.349984    1.466241
     44          1           0       12.752030   -2.795517    1.308613
     45          1           0      -14.499521   -0.759329    1.249916
     46          1           0      -14.327224   -0.480087   -0.468735
     47          1           0       12.655584   -2.424628   -1.452036
     48          1           0      -13.267749    1.647700    1.491827
     49          1           0       13.946203    0.127454   -0.261966
     50          1           0       13.795210   -0.134218   -2.068343
     51          1           0      -13.548752    1.528405   -1.611537
     52          1           0      -12.700259    2.883661   -0.666816
     53          1           0       10.583721   -2.582271    2.689907
     54          1           0        9.473426   -1.225400    1.945844
     55          1           0       11.223087   -0.675836    2.837227
     56          1           0       10.511432   -3.083889   -1.063656
     57          1           0       10.839115   -3.778691    0.508734
     58          1           0        9.112965   -2.748256    0.371846
     59          1           0      -12.129333    0.049219    2.424079
     60          1           0      -11.080808   -1.587005    2.367976
     61          1           0      -12.701107   -1.463564    2.856038
     62          1           0      -13.339284   -2.961810    0.576225
     63          1           0      -11.840973   -3.011058    0.067905
     64          1           0      -12.944711   -2.642732   -0.925401
     65          1           0        8.817011   -0.415507   -0.038561
     66          1           0       -9.867800   -2.315899   -0.326171
     67          1           0       10.670897    1.668331   -2.178081
     68          1           0       12.062322    2.431893   -1.187541
     69          1           0       12.167832    1.359654   -2.666435
     70          1           0      -11.096697    2.189699   -2.703010
     71          1           0       -9.815288    0.722907   -2.074506
     72          1           0       -9.814228    2.399247   -1.336128
     73          1           0       14.612626   -3.381863   -0.330611
     74          1           0      -15.462530    1.465753    1.022205
     75          1           0       10.352632    2.244377    0.119007
     76          1           0       -8.755199    0.623621   -0.302892
     77          1           0        9.034013    4.318869    0.287628
     78          1           0        7.358296    4.279674   -0.396188
     79          1           0        7.600570    4.026966    1.496841
     80          1           0       -8.242872   -3.252491   -0.208683
     81          1           0       -7.956946   -2.711001   -1.762142
     82          1           0       -6.553194   -3.154416   -0.811065
     83          1           0        6.945206    0.481777   -0.154069
     84          1           0       -6.335318    0.579413    0.179322
     85          1           0        5.461414    3.203112    0.573032
     86          1           0       -4.792306   -2.057790   -0.491920
     87          1           0        4.634205    0.361124   -0.073339
     88          1           0       -4.126181    0.661091    0.283758
     89          1           0        3.678079    3.514619    1.656497
     90          1           0        1.722805    3.367331    1.186318
     91          1           0        2.916626    4.057048   -0.180370
     92          1           0       -2.908322   -2.602763    0.263638
     93          1           0       -2.694367   -2.371082   -1.644260
     94          1           0       -1.230271   -2.217065   -0.628370
     95          1           0        2.639216   -0.174188    0.154095
     96          1           0       -1.873438    1.261777    0.208385
     97          1           0        0.456100    1.886425    0.731763
     98          1           0        0.192183   -0.801515   -0.620890
 ---------------------------------------------------------------------

 SCF Done:  E(RCAM-B3LYP) =  -1706.89645310     A.U. after   15 cycles

 Excitation energies and oscillator strengths:

 Excited State   1:      Singlet-A      2.1146 eV  586.33 nm  f=3.5980  <S**2>=0.000
     155 ->158        -0.13379
     156 ->157         0.69637
 This state for optimization and/or second-order correction.
 Total Energy, E(TD-HF/TD-DFT) =  -1706.81874341
 Copying the excited state density for this state as the 1-particle RhoCI density.

 The electronic state is 1-A.
 Alpha  occ. eigenvalues --  -19.21264 -19.20242 -10.31743 -10.30128 -10.29554
 Alpha  occ. eigenvalues --  -10.28835 -10.28498 -10.27986 -10.27975 -10.27956
 Alpha  occ. eigenvalues --  -10.27893 -10.27538 -10.27358 -10.27350 -10.27332
 Alpha  occ. eigenvalues --  -10.27251 -10.27204 -10.27123 -10.27040 -10.26751
 Alpha  occ. eigenvalues --  -10.26717 -10.26668 -10.26660 -10.26538 -10.26426
 Alpha  occ. eigenvalues --  -10.26303 -10.26303 -10.26231 -10.26153 -10.26119
 Alpha  occ. eigenvalues --  -10.26026 -10.25783 -10.25775 -10.25490 -10.25386
 Alpha  occ. eigenvalues --  -10.25159 -10.25092 -10.25089 -10.24997 -10.24954
 Alpha  occ. eigenvalues --  -10.23464 -10.22036  -1.09974  -1.07101  -0.92987
 Alpha  occ. eigenvalues --   -0.92656  -0.92130  -0.91645  -0.90996  -0.89818
 Alpha  occ. eigenvalues --   -0.87817  -0.86504  -0.85749  -0.85189  -0.84464
 Alpha  occ. eigenvalues --   -0.83405  -0.81461  -0.80217  -0.79908  -0.78461
 Alpha  occ. eigenvalues --   -0.77747  -0.77074  -0.75843  -0.75477  -0.74982
 Alpha  occ. eigenvalues --   -0.74470  -0.74204  -0.74040  -0.73273  -0.70787
 Alpha  occ. eigenvalues --   -0.68125  -0.67027  -0.65896  -0.64716  -0.64487
 Alpha  occ. eigenvalues --   -0.62785  -0.61887  -0.61567  -0.60888  -0.60061
 Alpha  occ. eigenvalues --   -0.59515  -0.58529  -0.57697  -0.57059  -0.56049
 Alpha  occ. eigenvalues --   -0.55532  -0.54825  -0.54536  -0.54141  -0.54079
 Alpha  occ. eigenvalues --   -0.52862  -0.52396  -0.51715  -0.51408  -0.50684
 Alpha  occ. eigenvalues --   -0.50208  -0.49950  -0.49663  -0.49341  -0.49132
 Alpha  occ. eigenvalues --   -0.48921  -0.48617  -0.48220  -0.48049  -0.47913
 Alpha  occ. eigenvalues --   -0.47834  -0.47124  -0.46967  -0.46349  -0.45910
 Alpha  occ. eigenvalues --   -0.45780  -0.45556  -0.45336  -0.44903  -0.44623
 Alpha  occ. eigenvalues --   -0.44301  -0.43900  -0.43812  -0.43598  -0.43434
 Alpha  occ. eigenvalues --   -0.42957  -0.42645  -0.42162  -0.42074  -0.41856
 Alpha  occ. eigenvalues --   -0.41657  -0.41544  -0.41319  -0.41245  -0.40940
 Alpha  occ. eigenvalues --   -0.40489  -0.40008  -0.39610  -0.39588  -0.39430
 Alpha  occ. eigenvalues --   -0.39161  -0.39058  -0.38137  -0.37636  -0.37610
 Alpha  occ. eigenvalues --   -0.37217  -0.36887  -0.36263  -0.35832  -0.35430
 Alpha  occ. eigenvalues --   -0.35246  -0.34424  -0.33440  -0.32318  -0.32184
 Alpha  occ. eigenvalues --   -0.32093  -0.29296  -0.27851  -0.26027  -0.23895
 Alpha  occ. eigenvalues --   -0.19133
 Alpha virt. eigenvalues --   -0.06335  -0.00589   0.02245   0.05101   0.07026
 Alpha virt. eigenvalues --    0.09173   0.10555   0.10819   0.11154   0.11946
 Alpha virt. eigenvalues --    0.12020   0.12235   0.12445   0.12973   0.13585

 Mulliken charges:
               1
     1  O   -0.577101
     2  O   -0.564120
     3  C   -0.016591
     4  C   -0.026692
     5  C   -0.175145
     6  C   -0.203328
     7  C    0.177182
     8  C    0.174129
     9  C    0.026497
    10  C    0.073397
    11  C   -0.201179
    12  C   -0.211830
    13  C    0.039989
    14  C    0.061405
    15  C   -0.282835
    16  C   -0.289942
    17  C   -0.303759
    18  C   -0.282361
    19  C   -0.102887
    20  C   -0.131033
    21  C   -0.377964
    22  C   -0.366129
    23  C   -0.090162
    24  C   -0.095672
    25  C    0.071705
    26  C    0.094869
    27  C   -0.357950
    28  C   -0.374548
    29  C   -0.119925
    30  C   -0.118892
    31  C   -0.101571
    32  C   -0.094359
    33  C   -0.105263
    34  C   -0.097357
    35  C    0.134219
    36  C    0.098349
    37  C   -0.355154
    38  C   -0.355630
    39  C   -0.117338
    40  C   -0.101167
    41  C   -0.086874
    42  C   -0.089023
    43  H    0.105407
    44  H    0.080161
    45  H    0.064632
    46  H    0.104829
    47  H    0.064711
    48  H    0.089024
    49  H    0.122225
    50  H    0.108653
    51  H    0.124728
    52  H    0.085857
    53  H    0.103975
    54  H    0.103209
    55  H    0.093155
    56  H    0.120265
    57  H    0.065782
    58  H    0.091105
    59  H    0.088646
    60  H    0.100656
    61  H    0.117062
    62  H    0.078396
    63  H    0.092296
    64  H    0.104916
    65  H    0.075391
    66  H    0.072729
    67  H    0.108190
    68  H    0.123464
    69  H    0.094325
    70  H    0.082941
    71  H    0.128968
    72  H    0.109016
    73  H    0.306513
    74  H    0.294537
    75  H    0.071844
    76  H    0.103356
    77  H    0.115909
    78  H    0.124171
    79  H    0.114403
    80  H    0.110873
    81  H    0.146715
    82  H    0.119220
    83  H    0.090636
    84  H    0.080755
    85  H    0.099954
    86  H    0.079026
    87  H    0.078817
    88  H    0.072084
    89  H    0.119255
    90  H    0.077143
    91  H    0.078403
    92  H    0.125769
    93  H    0.097856
    94  H    0.111783
    95  H    0.076018
    96  H    0.068337
    97  H    0.075185
    98  H    0.078762
 Sum of Mulliken charges =  -0.00000

 Dipole moment (field-independent basis, Debye):
    X=             -1.1647    Y=             -2.3903    Z=              0.6952  Tot=              2.7484
 Quadrupole moment (field-independent basis, Debye-Ang):
   XX=           -274.2597   YY=           -243.0564   ZZ=           -263.4476
   XY=             14.0641   XZ=             -9.4311   YZ=              2.2229

 Normal termination of Gaussian 16 at Tue Jul 16 12:49:58 2019.
