 Gaussian 16, Revision A.03,
 Gaussian 16:  ES64L-G16RevA.03 25-Dec-2016

 -------------------------------------
 # td=(NStates=1) CAM-B3LYP/6-31G(d,p)
 -------------------------------------

 --
 TD
 --
 Symbolic Z-matrix:
 Charge =  0 Multiplicity = 1

                         Standard orientation:
 ---------------------------------------------------------------------
 Center     Atomic      Atomic             Coordinates (Angstroms)
 Number     Number       Type             X           Y           Z
 ---------------------------------------------------------------------
      1          8           0       14.584745   -2.355602   -0.378137
      2          8           0      -14.414790    2.085219    1.162873
      3          6           0       11.135298   -1.467292    1.054978
      4          6           0      -12.224855   -0.997832    0.685606
      5          6           0       12.658240   -1.866724    0.978465
      6          6           0      -13.588439   -0.274933    0.740526
      7          6           0       13.218147   -2.092235   -0.479509
      8          6           0      -13.315785    1.213221    0.982046
      9          6           0       10.906387   -0.292290    0.065545
     10          6           0      -11.201612   -0.229505   -0.188136
     11          6           0       13.075583   -0.681289   -1.081787
     12          6           0      -12.608220    1.893264   -0.187598
     13          6           0       11.810570    0.051488   -0.893652
     14          6           0      -11.435655    1.032196   -0.588668
     15          6           0       10.883588   -1.172660    2.525182
     16          6           0       10.181650   -2.534346    0.723145
     17          6           0      -11.665079   -1.354197    2.090779
     18          6           0      -12.556742   -2.329193    0.014518
     19          6           0        9.651549    0.421079    0.230378
     20          6           0      -10.064744   -1.104024   -0.394517
     21          6           0       11.554216    1.151570   -1.741756
     22          6           0      -10.583036    1.745992   -1.724017
     23          6           0        9.281432    1.830803    0.189877
     24          6           0       -8.851250   -0.591348   -0.474402
     25          6           0        8.000659    2.350558    0.304504
     26          6           0       -7.575849   -1.316471   -0.555130
     27          6           0        7.973563    3.775079    0.656953
     28          6           0       -7.756928   -2.811918   -0.792831
     29          6           0        6.831317    1.726564    0.001489
     30          6           0       -6.295035   -0.634963   -0.645394
     31          6           0        5.555879    2.158770    0.109016
     32          6           0       -5.070075   -1.206577   -0.719079
     33          6           0        4.449146    1.453967   -0.004992
     34          6           0       -4.004980   -0.355006   -0.482337
     35          6           0        3.054980    1.756658   -0.116339
     36          6           0       -2.618859   -0.791892   -0.492731
     37          6           0        2.751287    3.212938    0.381625
     38          6           0       -2.258738   -2.189126   -0.889576
     39          6           0        2.119051    0.789242   -0.370029
     40          6           0       -1.585719    0.161129   -0.376014
     41          6           0        0.768409    0.914927   -0.214609
     42          6           0       -0.214358   -0.038432   -0.390449
     43          1           0       13.190768   -0.856975    1.359480
     44          1           0       12.921761   -2.638439    1.789893
     45          1           0      -14.118192   -0.568566    1.708865
     46          1           0      -14.258446   -0.431076    0.027039
     47          1           0       12.712095   -2.977210   -1.196301
     48          1           0      -12.534952    1.329920    1.910956
     49          1           0       13.874921   -0.009617   -0.650750
     50          1           0       13.276135   -0.658687   -2.251787
     51          1           0      -13.303681    1.922108   -0.988497
     52          1           0      -12.557427    3.018687    0.019219
     53          1           0       11.156024   -1.920537    3.233283
     54          1           0        9.755688   -1.171720    2.688363
     55          1           0       11.235455   -0.116988    2.878334
     56          1           0       10.476290   -3.201721   -0.180335
     57          1           0       10.180980   -3.347418    1.436922
     58          1           0        9.197343   -1.994171    0.798904
     59          1           0      -11.038836   -0.508267    2.594383
     60          1           0      -10.757186   -2.117185    2.148982
     61          1           0      -12.545830   -1.684827    2.877727
     62          1           0      -13.432885   -2.790746    0.302095
     63          1           0      -11.845075   -3.013833    0.237469
     64          1           0      -12.730149   -2.225708   -1.049843
     65          1           0        8.914206   -0.127647    0.628266
     66          1           0      -10.146053   -2.153880   -0.745216
     67          1           0       10.488152    1.254202   -1.971277
     68          1           0       11.961560    2.230754   -1.354291
     69          1           0       11.961201    0.989722   -2.791246
     70          1           0      -11.163600    2.142196   -2.537314
     71          1           0       -9.796366    1.039827   -2.193680
     72          1           0      -10.097753    2.788411   -1.233462
     73          1           0       14.738180   -3.150654    0.207839
     74          1           0      -14.917211    1.740937    1.959599
     75          1           0        9.978329    2.741882   -0.096321
     76          1           0       -8.550580    0.427569   -0.110658
     77          1           0        9.006591    4.008133    0.588852
     78          1           0        7.091017    4.591386    0.310702
     79          1           0        7.888110    3.881913    1.842702
     80          1           0       -8.272038   -3.123997    0.291751
     81          1           0       -8.476035   -3.075420   -1.627449
     82          1           0       -6.791728   -3.235602   -0.988581
     83          1           0        6.997715    0.744464   -0.151705
     84          1           0       -6.527584    0.337877   -0.445462
     85          1           0        5.320288    3.146891    0.395517
     86          1           0       -4.851383   -2.251464   -0.851933
     87          1           0        4.473629    0.298652   -0.226274
     88          1           0       -4.304966    0.765965   -0.451240
     89          1           0        3.174931    3.333264    1.535786
     90          1           0        1.556697    3.283082    0.425404
     91          1           0        3.502869    3.944398   -0.242273
     92          1           0       -2.758717   -2.964291   -0.128717
     93          1           0       -2.783524   -2.591238   -1.688305
     94          1           0       -1.237579   -2.597410   -0.891952
     95          1           0        2.437700    0.070307   -0.782178
     96          1           0       -1.872128    1.163377   -0.085595
     97          1           0        0.355431    1.760049    0.395834
     98          1           0        0.176237   -1.130791   -0.545909
 ---------------------------------------------------------------------

 SCF Done:  E(RCAM-B3LYP) =  -1706.90470986     A.U. after   15 cycles

 Excitation energies and oscillator strengths:

 Excited State   1:      Singlet-A      2.0435 eV  606.72 nm  f=3.7876  <S**2>=0.000
     155 ->158         0.16446
     156 ->157         0.68679
 This state for optimization and/or second-order correction.
 Total Energy, E(TD-HF/TD-DFT) =  -1706.82961239
 Copying the excited state density for this state as the 1-particle RhoCI density.

 The electronic state is 1-A.
 Alpha  occ. eigenvalues --  -19.21746 -19.21414 -10.32875 -10.30439 -10.28715
 Alpha  occ. eigenvalues --  -10.28425 -10.27792 -10.27599 -10.27457 -10.27439
 Alpha  occ. eigenvalues --  -10.27439 -10.27382 -10.27303 -10.27209 -10.27015
 Alpha  occ. eigenvalues --  -10.26807 -10.26798 -10.26663 -10.26656 -10.26618
 Alpha  occ. eigenvalues --  -10.26558 -10.26374 -10.26327 -10.26311 -10.26254
 Alpha  occ. eigenvalues --  -10.26248 -10.26212 -10.26203 -10.25937 -10.25799
 Alpha  occ. eigenvalues --  -10.25797 -10.25704 -10.25605 -10.25468 -10.25417
 Alpha  occ. eigenvalues --  -10.25114 -10.24922 -10.24643 -10.24621 -10.24005
 Alpha  occ. eigenvalues --  -10.23855 -10.22563  -1.10023  -1.08936  -0.94332
 Alpha  occ. eigenvalues --   -0.93549  -0.92959  -0.92107  -0.91390  -0.89757
 Alpha  occ. eigenvalues --   -0.88704  -0.87970  -0.86566  -0.86075  -0.84471
 Alpha  occ. eigenvalues --   -0.83598  -0.82327  -0.80162  -0.79238  -0.78824
 Alpha  occ. eigenvalues --   -0.76337  -0.76038  -0.75940  -0.75779  -0.75202
 Alpha  occ. eigenvalues --   -0.74950  -0.74687  -0.74479  -0.73944  -0.70937
 Alpha  occ. eigenvalues --   -0.69695  -0.67479  -0.65896  -0.65252  -0.64479
 Alpha  occ. eigenvalues --   -0.63742  -0.63338  -0.62092  -0.61243  -0.60112
 Alpha  occ. eigenvalues --   -0.59290  -0.58494  -0.58171  -0.57496  -0.56503
 Alpha  occ. eigenvalues --   -0.56150  -0.55412  -0.54758  -0.54413  -0.54050
 Alpha  occ. eigenvalues --   -0.53506  -0.52592  -0.52378  -0.51676  -0.51348
 Alpha  occ. eigenvalues --   -0.50905  -0.50423  -0.49993  -0.49148  -0.48793
 Alpha  occ. eigenvalues --   -0.48706  -0.48608  -0.48426  -0.47754  -0.47303
 Alpha  occ. eigenvalues --   -0.47068  -0.46732  -0.46588  -0.46328  -0.46134
 Alpha  occ. eigenvalues --   -0.45911  -0.45658  -0.45502  -0.45329  -0.45177
 Alpha  occ. eigenvalues --   -0.44755  -0.43881  -0.43706  -0.43630  -0.43505
 Alpha  occ. eigenvalues --   -0.43415  -0.43028  -0.42483  -0.42422  -0.42321
 Alpha  occ. eigenvalues --   -0.41995  -0.41387  -0.41371  -0.40938  -0.40695
 Alpha  occ. eigenvalues --   -0.40315  -0.40249  -0.39826  -0.39744  -0.39223
 Alpha  occ. eigenvalues --   -0.38785  -0.38689  -0.38438  -0.38195  -0.37552
 Alpha  occ. eigenvalues --   -0.37524  -0.37265  -0.36048  -0.35843  -0.35675
 Alpha  occ. eigenvalues --   -0.35575  -0.34347  -0.33601  -0.32976  -0.32042
 Alpha  occ. eigenvalues --   -0.31753  -0.29805  -0.28509  -0.26050  -0.23002
 Alpha  occ. eigenvalues --   -0.19158
 Alpha virt. eigenvalues --   -0.06398  -0.02083   0.01610   0.05508   0.07423
 Alpha virt. eigenvalues --    0.09458   0.11238   0.11485   0.11672   0.11994
 Alpha virt. eigenvalues --    0.12333   0.12544   0.12927   0.13324   0.13471

 Mulliken charges:
               1
     1  O   -0.552043
     2  O   -0.563332
     3  C   -0.008666
     4  C   -0.010107
     5  C   -0.213930
     6  C   -0.175223
     7  C    0.200759
     8  C    0.157314
     9  C    0.079458
    10  C    0.067329
    11  C   -0.233104
    12  C   -0.216471
    13  C    0.108341
    14  C    0.046008
    15  C   -0.299702
    16  C   -0.285412
    17  C   -0.299639
    18  C   -0.308933
    19  C   -0.134415
    20  C   -0.125514
    21  C   -0.380969
    22  C   -0.348075
    23  C   -0.140975
    24  C   -0.087859
    25  C    0.121890
    26  C    0.035731
    27  C   -0.368725
    28  C   -0.354307
    29  C   -0.088527
    30  C   -0.092075
    31  C   -0.053181
    32  C   -0.060949
    33  C   -0.110134
    34  C   -0.126217
    35  C    0.097159
    36  C    0.115737
    37  C   -0.357166
    38  C   -0.391323
    39  C   -0.040944
    40  C   -0.123181
    41  C   -0.097940
    42  C   -0.083126
    43  H    0.095288
    44  H    0.070928
    45  H    0.069176
    46  H    0.108984
    47  H    0.060392
    48  H    0.054409
    49  H    0.131829
    50  H    0.089457
    51  H    0.120945
    52  H    0.117048
    53  H    0.113974
    54  H    0.082851
    55  H    0.097180
    56  H    0.090759
    57  H    0.097780
    58  H    0.101710
    59  H    0.099857
    60  H    0.095680
    61  H    0.082660
    62  H    0.102865
    63  H    0.105572
    64  H    0.103960
    65  H    0.081589
    66  H    0.106371
    67  H    0.137520
    68  H    0.100925
    69  H    0.092995
    70  H    0.116057
    71  H    0.111065
    72  H    0.076634
    73  H    0.310304
    74  H    0.299963
    75  H    0.090478
    76  H    0.082531
    77  H    0.103340
    78  H    0.106676
    79  H    0.103247
    80  H    0.096111
    81  H    0.119918
    82  H    0.102786
    83  H    0.059161
    84  H    0.073565
    85  H    0.067365
    86  H    0.092547
    87  H    0.048938
    88  H    0.095714
    89  H    0.099849
    90  H    0.101069
    91  H    0.111515
    92  H    0.090711
    93  H    0.135579
    94  H    0.124178
    95  H    0.043219
    96  H    0.077636
    97  H    0.079088
    98  H    0.070491
 Sum of Mulliken charges =  -0.00000

 Dipole moment (field-independent basis, Debye):
    X=              0.6809    Y=             -2.6753    Z=              1.6299  Tot=              3.2059
 Quadrupole moment (field-independent basis, Debye-Ang):
   XX=           -252.3439   YY=           -246.3189   ZZ=           -261.4661
   XY=              8.0681   XZ=              5.4900   YZ=              0.2549

 Normal termination of Gaussian 16 at Thu Jul 11 00:47:37 2019.
