 Gaussian 16, Revision A.03,
 Gaussian 16:  ES64L-G16RevA.03 25-Dec-2016

 -------------------------------------
 # td=(NStates=1) CAM-B3LYP/6-31G(d,p)
 -------------------------------------

 --
 TD
 --
 Symbolic Z-matrix:
 Charge =  0 Multiplicity = 1

                         Standard orientation:
 ---------------------------------------------------------------------
 Center     Atomic      Atomic             Coordinates (Angstroms)
 Number     Number       Type             X           Y           Z
 ---------------------------------------------------------------------
      1          8           0       14.613266   -2.398086   -0.227128
      2          8           0      -14.790384    1.749813    1.135095
      3          6           0       11.157345   -1.408222    1.048202
      4          6           0      -12.320063   -1.091687    0.714527
      5          6           0       12.562639   -1.929715    1.068400
      6          6           0      -13.687530   -0.309697    0.681746
      7          6           0       13.304590   -2.005604   -0.336710
      8          6           0      -13.566491    1.146055    1.075014
      9          6           0       10.895091   -0.264165    0.196844
     10          6           0      -11.313342   -0.219202   -0.115203
     11          6           0       13.147933   -0.648998   -0.958891
     12          6           0      -12.745242    1.818858   -0.030285
     13          6           0       11.828025    0.151076   -0.772014
     14          6           0      -11.582818    1.063578   -0.547878
     15          6           0       10.819791   -1.110221    2.558378
     16          6           0       10.150056   -2.482977    0.526277
     17          6           0      -11.851176   -1.399866    2.112309
     18          6           0      -12.614693   -2.346046   -0.003488
     19          6           0        9.623894    0.334524    0.244223
     20          6           0      -10.043904   -0.932375   -0.354079
     21          6           0       11.599012    1.168011   -1.775501
     22          6           0      -10.670150    1.831238   -1.440173
     23          6           0        9.373346    1.718959    0.182901
     24          6           0       -8.676873   -0.498576   -0.360243
     25          6           0        8.085935    2.383228    0.268522
     26          6           0       -7.512592   -1.199746   -0.706677
     27          6           0        7.979988    3.881042    0.505763
     28          6           0       -7.640643   -2.759202   -0.997430
     29          6           0        6.985969    1.562285    0.011621
     30          6           0       -6.373201   -0.509303   -0.601068
     31          6           0        5.613811    2.023540    0.057266
     32          6           0       -5.020487   -1.013796   -0.760573
     33          6           0        4.500589    1.200355   -0.042049
     34          6           0       -3.804197   -0.277169   -0.629398
     35          6           0        3.198942    1.747518    0.093092
     36          6           0       -2.538971   -0.776078   -0.764600
     37          6           0        2.791457    3.125188    0.490533
     38          6           0       -2.191222   -2.214161   -0.958402
     39          6           0        2.165018    0.811637   -0.205756
     40          6           0       -1.522791    0.175355   -0.593337
     41          6           0        0.806494    1.068069   -0.280398
     42          6           0       -0.030587    0.005174   -0.525950
     43          1           0       13.157311   -1.393265    1.710285
     44          1           0       12.765080   -3.026086    1.426189
     45          1           0      -14.223166   -0.889740    1.398149
     46          1           0      -14.120065   -0.269919   -0.414733
     47          1           0       12.583563   -2.540888   -1.000063
     48          1           0      -13.139407    1.228530    2.168920
     49          1           0       14.066648    0.007409   -0.556347
     50          1           0       13.327710   -0.562589   -2.043719
     51          1           0      -13.481937    1.838991   -0.840814
     52          1           0      -12.385489    2.885393    0.253778
     53          1           0       10.713232   -1.993195    3.294802
     54          1           0        9.913122   -0.544856    2.659362
     55          1           0       11.589361   -0.158010    2.981530
     56          1           0       10.306243   -2.897302   -0.557166
     57          1           0       10.434990   -3.517876    1.078543
     58          1           0        9.156791   -2.100430    0.712551
     59          1           0      -11.449579   -0.380405    2.702502
     60          1           0      -11.025984   -1.838228    2.104009
     61          1           0      -12.787819   -1.786740    2.759222
     62          1           0      -13.610135   -3.115335    0.483523
     63          1           0      -11.763613   -2.883966   -0.073625
     64          1           0      -13.203165   -2.061775   -1.056583
     65          1           0        8.741111   -0.221106    0.568560
     66          1           0      -10.096394   -2.029404   -0.212353
     67          1           0       10.537884    1.239370   -2.050663
     68          1           0       11.850709    2.170402   -1.475810
     69          1           0       12.075423    0.962785   -2.603168
     70          1           0      -11.274808    2.399348   -2.231247
     71          1           0       -9.860840    1.207691   -2.248253
     72          1           0      -10.298896    2.689506   -0.951789
     73          1           0       14.723497   -3.352505    0.207381
     74          1           0      -15.304379    1.775397    2.016876
     75          1           0       10.297884    2.422079    0.109655
     76          1           0       -8.659305    0.645934   -0.168736
     77          1           0        8.940657    4.307877    0.661032
     78          1           0        7.265168    4.421503   -0.218144
     79          1           0        7.551407    3.950697    1.450794
     80          1           0       -8.167728   -3.388523   -0.114706
     81          1           0       -8.136887   -3.109350   -1.928891
     82          1           0       -6.508064   -3.340463   -0.919415
     83          1           0        7.046791    0.587199   -0.447661
     84          1           0       -6.217908    0.555846   -0.390634
     85          1           0        5.657533    3.094531    0.285007
     86          1           0       -4.751457   -2.016099   -0.778721
     87          1           0        4.359035    0.189404   -0.132536
     88          1           0       -3.923527    0.836512   -0.542501
     89          1           0        3.003413    3.300757    1.491288
     90          1           0        1.676198    3.331543    0.431929
     91          1           0        3.437900    3.748792   -0.184375
     92          1           0       -2.370929   -2.906745   -0.086321
     93          1           0       -2.642652   -2.811270   -1.687673
     94          1           0       -1.123479   -2.360324   -1.256684
     95          1           0        2.601246   -0.091197   -0.282840
     96          1           0       -2.103313    1.095211   -0.650833
     97          1           0        0.449735    1.954703    0.152908
     98          1           0        0.520507   -0.986951   -0.718623
 ---------------------------------------------------------------------

 SCF Done:  E(RCAM-B3LYP) =  -1706.91251188     A.U. after   15 cycles

 Excitation energies and oscillator strengths:

 Excited State   1:      Singlet-A      2.0762 eV  597.16 nm  f=3.8303  <S**2>=0.000
     155 ->158        -0.17990
     156 ->157         0.68049
 This state for optimization and/or second-order correction.
 Total Energy, E(TD-HF/TD-DFT) =  -1706.83621122
 Copying the excited state density for this state as the 1-particle RhoCI density.

 The electronic state is 1-A.
 Alpha  occ. eigenvalues --  -19.23009 -19.20770 -10.30561 -10.30469 -10.28915
 Alpha  occ. eigenvalues --  -10.27937 -10.27749 -10.27741 -10.27397 -10.27027
 Alpha  occ. eigenvalues --  -10.26991 -10.26980 -10.26913 -10.26911 -10.26795
 Alpha  occ. eigenvalues --  -10.26687 -10.26622 -10.26592 -10.26569 -10.26401
 Alpha  occ. eigenvalues --  -10.26381 -10.26377 -10.26331 -10.26305 -10.26213
 Alpha  occ. eigenvalues --  -10.26113 -10.26107 -10.25929 -10.25890 -10.25888
 Alpha  occ. eigenvalues --  -10.25784 -10.25651 -10.25637 -10.25547 -10.25535
 Alpha  occ. eigenvalues --  -10.25532 -10.25332 -10.25205 -10.24723 -10.24553
 Alpha  occ. eigenvalues --  -10.24275 -10.23016  -1.10095  -1.09541  -0.94149
 Alpha  occ. eigenvalues --   -0.93134  -0.92451  -0.91701  -0.90305  -0.89867
 Alpha  occ. eigenvalues --   -0.87484  -0.87183  -0.86893  -0.84923  -0.84034
 Alpha  occ. eigenvalues --   -0.82467  -0.81611  -0.80422  -0.78858  -0.78388
 Alpha  occ. eigenvalues --   -0.77718  -0.77016  -0.76075  -0.75736  -0.75032
 Alpha  occ. eigenvalues --   -0.74798  -0.74350  -0.74202  -0.73325  -0.70887
 Alpha  occ. eigenvalues --   -0.69151  -0.67367  -0.65741  -0.64750  -0.64107
 Alpha  occ. eigenvalues --   -0.63058  -0.62639  -0.61630  -0.60883  -0.60516
 Alpha  occ. eigenvalues --   -0.59099  -0.58994  -0.58390  -0.58257  -0.56317
 Alpha  occ. eigenvalues --   -0.56220  -0.55923  -0.55059  -0.54282  -0.53890
 Alpha  occ. eigenvalues --   -0.53093  -0.52508  -0.51614  -0.51253  -0.50751
 Alpha  occ. eigenvalues --   -0.50266  -0.50074  -0.49415  -0.49353  -0.49125
 Alpha  occ. eigenvalues --   -0.49030  -0.48969  -0.48358  -0.48122  -0.47617
 Alpha  occ. eigenvalues --   -0.47554  -0.47203  -0.46779  -0.46583  -0.46343
 Alpha  occ. eigenvalues --   -0.46047  -0.45838  -0.45401  -0.45326  -0.44908
 Alpha  occ. eigenvalues --   -0.44376  -0.44280  -0.43970  -0.43781  -0.43002
 Alpha  occ. eigenvalues --   -0.42484  -0.42068  -0.41839  -0.41798  -0.41361
 Alpha  occ. eigenvalues --   -0.41292  -0.41243  -0.40911  -0.40427  -0.40400
 Alpha  occ. eigenvalues --   -0.40108  -0.39990  -0.39677  -0.39326  -0.39198
 Alpha  occ. eigenvalues --   -0.38726  -0.38526  -0.38248  -0.38046  -0.37874
 Alpha  occ. eigenvalues --   -0.37531  -0.37027  -0.36815  -0.35957  -0.35410
 Alpha  occ. eigenvalues --   -0.35377  -0.34874  -0.34154  -0.31830  -0.31356
 Alpha  occ. eigenvalues --   -0.30869  -0.29824  -0.27529  -0.25127  -0.22135
 Alpha  occ. eigenvalues --   -0.18877
 Alpha virt. eigenvalues --   -0.05772  -0.01794   0.01827   0.05223   0.07820
 Alpha virt. eigenvalues --    0.09649   0.09987   0.10798   0.11566   0.11955
 Alpha virt. eigenvalues --    0.12391   0.12620   0.12785   0.13503   0.13907

 Mulliken charges:
               1
     1  O   -0.557700
     2  O   -0.568245
     3  C   -0.032561
     4  C   -0.033437
     5  C   -0.179164
     6  C   -0.166380
     7  C    0.194264
     8  C    0.188151
     9  C    0.116757
    10  C    0.074039
    11  C   -0.227211
    12  C   -0.231964
    13  C    0.049559
    14  C    0.080750
    15  C   -0.299568
    16  C   -0.291838
    17  C   -0.257292
    18  C   -0.243387
    19  C   -0.130879
    20  C   -0.150936
    21  C   -0.369789
    22  C   -0.369871
    23  C   -0.127794
    24  C   -0.119875
    25  C    0.073694
    26  C    0.128579
    27  C   -0.379183
    28  C   -0.357849
    29  C   -0.115753
    30  C   -0.107465
    31  C   -0.120130
    32  C   -0.098281
    33  C   -0.090168
    34  C   -0.150439
    35  C    0.102100
    36  C    0.157271
    37  C   -0.367679
    38  C   -0.392774
    39  C   -0.126319
    40  C   -0.138446
    41  C   -0.048964
    42  C   -0.117162
    43  H    0.110332
    44  H    0.052002
    45  H    0.078333
    46  H    0.084901
    47  H    0.069026
    48  H    0.052202
    49  H    0.091213
    50  H    0.097409
    51  H    0.126130
    52  H    0.097477
    53  H    0.103331
    54  H    0.111585
    55  H    0.065220
    56  H    0.099565
    57  H    0.074520
    58  H    0.111952
    59  H    0.066805
    60  H    0.113577
    61  H    0.089401
    62  H    0.043878
    63  H    0.105299
    64  H    0.085916
    65  H    0.091892
    66  H    0.063561
    67  H    0.126727
    68  H    0.121734
    69  H    0.108355
    70  H    0.097168
    71  H    0.105959
    72  H    0.124554
    73  H    0.319390
    74  H    0.318103
    75  H    0.074686
    76  H    0.083465
    77  H    0.119230
    78  H    0.123866
    79  H    0.142983
    80  H    0.105062
    81  H    0.135792
    82  H    0.081490
    83  H    0.091742
    84  H    0.090623
    85  H    0.079142
    86  H    0.067948
    87  H    0.085573
    88  H    0.075488
    89  H    0.135495
    90  H    0.105427
    91  H    0.114208
    92  H    0.116280
    93  H    0.127596
    94  H    0.107007
    95  H    0.060848
    96  H    0.082883
    97  H    0.093066
    98  H    0.095922
 Sum of Mulliken charges =  -0.00000

 Dipole moment (field-independent basis, Debye):
    X=              0.9243    Y=             -0.3346    Z=              1.9698  Tot=              2.2014
 Quadrupole moment (field-independent basis, Debye-Ang):
   XX=           -276.8694   YY=           -237.9650   ZZ=           -261.1867
   XY=             -7.3638   XZ=            -14.4724   YZ=              3.0155

 Normal termination of Gaussian 16 at Mon Jul 15 12:44:50 2019.
