 Gaussian 16, Revision A.03,
 Gaussian 16:  ES64L-G16RevA.03 25-Dec-2016

 -------------------------------------
 # td=(NStates=1) CAM-B3LYP/6-31G(d,p)
 -------------------------------------

 --
 TD
 --
 Symbolic Z-matrix:
 Charge =  0 Multiplicity = 1

                         Standard orientation:
 ---------------------------------------------------------------------
 Center     Atomic      Atomic             Coordinates (Angstroms)
 Number     Number       Type             X           Y           Z
 ---------------------------------------------------------------------
      1          8           0       14.658255   -2.375476   -0.108490
      2          8           0      -14.687930    1.927013    1.262744
      3          6           0       11.181912   -1.361222    1.145383
      4          6           0      -12.350045   -1.014409    0.632725
      5          6           0       12.674495   -1.590893    1.220098
      6          6           0      -13.740167   -0.306981    0.644110
      7          6           0       13.205410   -1.901219   -0.063583
      8          6           0      -13.484929    1.183793    1.088797
      9          6           0       10.878734   -0.356278    0.018324
     10          6           0      -11.220732   -0.183193   -0.117078
     11          6           0       13.160699   -0.740765   -0.996138
     12          6           0      -12.738136    1.855923    0.007521
     13          6           0       11.794214   -0.058680   -0.928130
     14          6           0      -11.457836    1.067733   -0.464028
     15          6           0       10.699430   -0.932186    2.492237
     16          6           0       10.472844   -2.658081    0.888242
     17          6           0      -11.816847   -1.491239    2.030131
     18          6           0      -12.642828   -2.349813   -0.195309
     19          6           0        9.604053    0.405225    0.055534
     20          6           0      -10.059190   -0.860967   -0.556246
     21          6           0       11.554237    1.104600   -2.000834
     22          6           0      -10.469693    1.857052   -1.339933
     23          6           0        9.377216    1.706518    0.016590
     24          6           0       -8.796451   -0.453898   -0.353911
     25          6           0        8.125031    2.324894    0.049988
     26          6           0       -7.626253   -1.244367   -0.627720
     27          6           0        7.994625    3.768362    0.483832
     28          6           0       -7.705184   -2.633400   -1.182491
     29          6           0        6.942964    1.618360   -0.146500
     30          6           0       -6.359972   -0.723366   -0.328724
     31          6           0        5.627338    2.041996    0.126238
     32          6           0       -5.058195   -1.176193   -0.541726
     33          6           0        4.474912    1.423314   -0.226985
     34          6           0       -3.890404   -0.487769   -0.387281
     35          6           0        3.090276    1.765573   -0.026371
     36          6           0       -2.532593   -0.791308   -0.656470
     37          6           0        2.836624    3.102677    0.571097
     38          6           0       -2.230838   -2.178286   -1.008808
     39          6           0        2.045203    0.858579   -0.350037
     40          6           0       -1.602631    0.135802   -0.545025
     41          6           0        0.705749    1.076036   -0.069691
     42          6           0       -0.157468    0.051132   -0.527860
     43          1           0       13.402180   -0.729308    1.747420
     44          1           0       12.874959   -2.455780    1.937606
     45          1           0      -14.415077   -0.930031    1.316969
     46          1           0      -14.296194   -0.350458   -0.340249
     47          1           0       12.776949   -2.895346   -0.731062
     48          1           0      -12.801946    1.128102    2.113733
     49          1           0       13.927886    0.091855   -0.794610
     50          1           0       13.288059   -1.117748   -2.076896
     51          1           0      -13.348797    1.980554   -0.807817
     52          1           0      -12.341028    2.862022    0.186004
     53          1           0       10.997798   -1.615565    3.262844
     54          1           0        9.441425   -1.092540    2.558149
     55          1           0       10.899016    0.147742    2.546371
     56          1           0       10.725142   -3.202403   -0.025709
     57          1           0       10.670639   -3.508535    1.632674
     58          1           0        9.310866   -2.487644    0.822014
     59          1           0      -11.833347   -0.451695    2.822998
     60          1           0      -10.686053   -1.702948    1.939297
     61          1           0      -12.508323   -2.288318    2.385188
     62          1           0      -13.427513   -3.083698    0.311772
     63          1           0      -11.778207   -3.034846   -0.149528
     64          1           0      -12.828327   -1.997600   -1.192987
     65          1           0        8.569169   -0.345543    0.180434
     66          1           0       -9.984673   -1.981822   -0.754105
     67          1           0       10.551674    1.090428   -2.408471
     68          1           0       12.094634    1.941846   -1.586915
     69          1           0       12.259722    0.667158   -2.881949
     70          1           0      -10.996809    2.527379   -1.916023
     71          1           0       -9.885858    1.236222   -2.111578
     72          1           0       -9.646239    2.378200   -0.730971
     73          1           0       14.527783   -3.114817    0.735811
     74          1           0      -15.307609    1.325251    1.671976
     75          1           0       10.187817    2.291592   -0.117336
     76          1           0       -8.730024    0.474933    0.065703
     77          1           0        9.042231    4.242197    0.356390
     78          1           0        7.441539    4.513856   -0.140971
     79          1           0        7.697217    3.843836    1.604208
     80          1           0       -8.146961   -3.316550   -0.475371
     81          1           0       -8.450126   -2.609521   -1.966021
     82          1           0       -6.523970   -3.171188   -1.627306
     83          1           0        7.081718    0.432881   -0.494378
     84          1           0       -6.388706    0.316574    0.336169
     85          1           0        5.312579    3.042305    0.499956
     86          1           0       -5.065692   -2.281575   -0.702369
     87          1           0        4.589147    0.229932   -0.613814
     88          1           0       -3.914924    0.687973   -0.055858
     89          1           0        3.024029    3.093626    1.694779
     90          1           0        1.827577    3.397323    0.288080
     91          1           0        3.533009    4.068478    0.193325
     92          1           0       -2.474966   -2.917490   -0.309077
     93          1           0       -2.651850   -2.472379   -2.023836
     94          1           0       -1.236756   -2.348034   -1.376825
     95          1           0        2.308528   -0.122887   -0.718808
     96          1           0       -1.906380    1.110718   -0.169207
     97          1           0        0.178011    1.968064    0.362966
     98          1           0        0.239009   -0.995402   -0.486616
 ---------------------------------------------------------------------

 SCF Done:  E(RCAM-B3LYP) =  -1706.94397584     A.U. after   15 cycles

 Excitation energies and oscillator strengths:

 Excited State   1:      Singlet-A      2.2581 eV  549.08 nm  f=3.6088  <S**2>=0.000
     155 ->158        -0.15808
     156 ->157         0.68742
 This state for optimization and/or second-order correction.
 Total Energy, E(TD-HF/TD-DFT) =  -1706.86099392
 Copying the excited state density for this state as the 1-particle RhoCI density.

 The electronic state is 1-A.
 Alpha  occ. eigenvalues --  -19.21666 -19.21279 -10.31766 -10.31559 -10.28462
 Alpha  occ. eigenvalues --  -10.27957 -10.27937 -10.27822 -10.27806 -10.27695
 Alpha  occ. eigenvalues --  -10.27561 -10.27531 -10.27490 -10.27442 -10.27370
 Alpha  occ. eigenvalues --  -10.27327 -10.27287 -10.27255 -10.27164 -10.26998
 Alpha  occ. eigenvalues --  -10.26948 -10.26938 -10.26858 -10.26828 -10.26783
 Alpha  occ. eigenvalues --  -10.26723 -10.26693 -10.26669 -10.26582 -10.26320
 Alpha  occ. eigenvalues --  -10.26117 -10.25884 -10.25812 -10.25724 -10.25691
 Alpha  occ. eigenvalues --  -10.25654 -10.25500 -10.25260 -10.25246 -10.24864
 Alpha  occ. eigenvalues --  -10.24790 -10.24738  -1.09720  -1.04463  -0.94804
 Alpha  occ. eigenvalues --   -0.93513  -0.92739  -0.91747  -0.90958  -0.90516
 Alpha  occ. eigenvalues --   -0.87780  -0.87237  -0.86507  -0.85819  -0.85044
 Alpha  occ. eigenvalues --   -0.83611  -0.82498  -0.80158  -0.79705  -0.78752
 Alpha  occ. eigenvalues --   -0.76474  -0.76230  -0.76132  -0.75939  -0.75572
 Alpha  occ. eigenvalues --   -0.75322  -0.74969  -0.74544  -0.73630  -0.70730
 Alpha  occ. eigenvalues --   -0.68610  -0.67232  -0.65822  -0.64077  -0.63886
 Alpha  occ. eigenvalues --   -0.63368  -0.62634  -0.61869  -0.60375  -0.58996
 Alpha  occ. eigenvalues --   -0.58748  -0.58012  -0.57607  -0.57018  -0.56349
 Alpha  occ. eigenvalues --   -0.55745  -0.55371  -0.54911  -0.53942  -0.53299
 Alpha  occ. eigenvalues --   -0.53100  -0.52528  -0.51943  -0.51180  -0.51040
 Alpha  occ. eigenvalues --   -0.50710  -0.50384  -0.49955  -0.49632  -0.49458
 Alpha  occ. eigenvalues --   -0.49032  -0.48929  -0.48712  -0.48094  -0.47904
 Alpha  occ. eigenvalues --   -0.47575  -0.47318  -0.47200  -0.46787  -0.46763
 Alpha  occ. eigenvalues --   -0.45846  -0.45532  -0.45315  -0.44915  -0.44531
 Alpha  occ. eigenvalues --   -0.44186  -0.43790  -0.43513  -0.42965  -0.42818
 Alpha  occ. eigenvalues --   -0.42761  -0.42372  -0.42217  -0.42107  -0.41948
 Alpha  occ. eigenvalues --   -0.41757  -0.41474  -0.41149  -0.40986  -0.40726
 Alpha  occ. eigenvalues --   -0.40609  -0.40152  -0.39661  -0.39487  -0.39279
 Alpha  occ. eigenvalues --   -0.38959  -0.38457  -0.38101  -0.37903  -0.37815
 Alpha  occ. eigenvalues --   -0.37146  -0.36917  -0.36858  -0.36340  -0.36301
 Alpha  occ. eigenvalues --   -0.35637  -0.35495  -0.34874  -0.33038  -0.31515
 Alpha  occ. eigenvalues --   -0.31271  -0.29970  -0.29039  -0.26661  -0.23559
 Alpha  occ. eigenvalues --   -0.19949
 Alpha virt. eigenvalues --   -0.05960  -0.01353   0.02134   0.06058   0.07589
 Alpha virt. eigenvalues --    0.08908   0.09261   0.10332   0.11059   0.11274
 Alpha virt. eigenvalues --    0.11567   0.11659   0.12264   0.12446   0.13175

 Mulliken charges:
               1
     1  O   -0.572777
     2  O   -0.557415
     3  C    0.006187
     4  C   -0.014685
     5  C   -0.187241
     6  C   -0.203590
     7  C    0.163769
     8  C    0.178773
     9  C    0.057786
    10  C    0.085569
    11  C   -0.198202
    12  C   -0.196151
    13  C    0.006343
    14  C    0.014115
    15  C   -0.278589
    16  C   -0.297971
    17  C   -0.279163
    18  C   -0.306305
    19  C   -0.120174
    20  C   -0.151051
    21  C   -0.348110
    22  C   -0.369561
    23  C   -0.057769
    24  C   -0.055348
    25  C    0.090242
    26  C    0.107317
    27  C   -0.372062
    28  C   -0.373087
    29  C   -0.112360
    30  C   -0.123101
    31  C   -0.079966
    32  C   -0.089224
    33  C   -0.101660
    34  C   -0.120171
    35  C    0.107459
    36  C    0.179483
    37  C   -0.378372
    38  C   -0.393626
    39  C   -0.107710
    40  C   -0.154176
    41  C   -0.083360
    42  C   -0.107308
    43  H    0.096011
    44  H    0.076293
    45  H    0.081073
    46  H    0.102459
    47  H    0.079077
    48  H    0.057045
    49  H    0.115175
    50  H    0.112255
    51  H    0.126616
    52  H    0.114293
    53  H    0.110575
    54  H    0.065855
    55  H    0.110715
    56  H    0.104092
    57  H    0.087749
    58  H    0.095712
    59  H    0.057490
    60  H    0.114482
    61  H    0.103569
    62  H    0.082345
    63  H    0.097819
    64  H    0.114687
    65  H    0.057526
    66  H    0.067305
    67  H    0.143403
    68  H    0.135059
    69  H    0.077952
    70  H    0.110878
    71  H    0.118161
    72  H    0.111604
    73  H    0.284511
    74  H    0.305103
    75  H    0.076907
    76  H    0.079971
    77  H    0.089311
    78  H    0.123054
    79  H    0.121741
    80  H    0.133520
    81  H    0.127421
    82  H    0.076014
    83  H    0.067763
    84  H    0.059876
    85  H    0.078937
    86  H    0.082473
    87  H    0.039587
    88  H    0.062768
    89  H    0.128453
    90  H    0.115020
    91  H    0.091903
    92  H    0.132172
    93  H    0.111087
    94  H    0.110262
    95  H    0.096233
    96  H    0.072977
    97  H    0.105349
    98  H    0.093555
 Sum of Mulliken charges =  -0.00000

 Dipole moment (field-independent basis, Debye):
    X=             -1.3095    Y=             -1.7419    Z=              1.4189  Tot=              2.6004
 Quadrupole moment (field-independent basis, Debye-Ang):
   XX=           -283.5827   YY=           -247.7316   ZZ=           -264.1170
   XY=             28.2910   XZ=             13.3097   YZ=             -2.1651

 Normal termination of Gaussian 16 at Thu Jul 11 10:45:08 2019.
