 Gaussian 16, Revision A.03,
 Gaussian 16:  ES64L-G16RevA.03 25-Dec-2016

 -------------------------------------
 # td=(NStates=1) CAM-B3LYP/6-31G(d,p)
 -------------------------------------

 --
 TD
 --
 Symbolic Z-matrix:
 Charge =  0 Multiplicity = 1

                         Standard orientation:
 ---------------------------------------------------------------------
 Center     Atomic      Atomic             Coordinates (Angstroms)
 Number     Number       Type             X           Y           Z
 ---------------------------------------------------------------------
      1          8           0       14.712905   -2.236861    0.021430
      2          8           0      -14.830775    1.891353    0.937131
      3          6           0       11.167902   -1.501037    0.965176
      4          6           0      -12.411340   -0.987779    0.651326
      5          6           0       12.570995   -1.818375    1.186184
      6          6           0      -13.673860   -0.251587    0.788050
      7          6           0       13.359829   -1.925537   -0.228351
      8          6           0      -13.574914    1.175562    0.937715
      9          6           0       11.019800   -0.265374    0.043842
     10          6           0      -11.333505   -0.169785   -0.105834
     11          6           0       13.350383   -0.458987   -0.797390
     12          6           0      -12.728515    1.838003   -0.173328
     13          6           0       11.982321    0.175381   -0.811740
     14          6           0      -11.500738    1.097091   -0.572325
     15          6           0       10.548402   -1.152156    2.316331
     16          6           0       10.324216   -2.622744    0.271595
     17          6           0      -11.830040   -1.312357    2.026488
     18          6           0      -12.539489   -2.461485    0.031513
     19          6           0        9.648680    0.366313    0.153209
     20          6           0      -10.131540   -0.942627   -0.492884
     21          6           0       11.868100    1.165991   -1.814985
     22          6           0      -10.525521    1.855635   -1.281831
     23          6           0        9.435685    1.734492    0.150966
     24          6           0       -8.858418   -0.445275   -0.298699
     25          6           0        8.044855    2.359449    0.204875
     26          6           0       -7.541931   -1.182322   -0.759686
     27          6           0        7.910704    3.763711    0.658303
     28          6           0       -7.756109   -2.542182   -1.239669
     29          6           0        6.895446    1.565919   -0.046709
     30          6           0       -6.365893   -0.566524   -0.453163
     31          6           0        5.625922    2.036055    0.021155
     32          6           0       -5.086546   -1.226382   -0.534845
     33          6           0        4.465044    1.317613   -0.126457
     34          6           0       -3.846769   -0.508925   -0.258089
     35          6           0        3.092613    1.822607   -0.087207
     36          6           0       -2.578420   -0.905418   -0.465777
     37          6           0        2.740207    3.106842    0.357823
     38          6           0       -2.340047   -2.355227   -0.875429
     39          6           0        2.165961    0.823987   -0.350129
     40          6           0       -1.545432    0.020526   -0.312944
     41          6           0        0.786735    0.953687   -0.227705
     42          6           0       -0.068330   -0.109131   -0.379183
     43          1           0       13.145487   -1.087347    1.792493
     44          1           0       12.518260   -2.764528    1.776671
     45          1           0      -14.190105   -0.823162    1.830369
     46          1           0      -14.254402   -0.520542   -0.304285
     47          1           0       13.099616   -2.601083   -1.069180
     48          1           0      -12.921448    1.223673    1.946997
     49          1           0       14.029216    0.140101   -0.193272
     50          1           0       13.659022   -0.587730   -1.742948
     51          1           0      -13.363286    2.068283   -0.875923
     52          1           0      -12.384552    2.879180    0.281870
     53          1           0       10.711890   -1.933133    3.073927
     54          1           0        9.545453   -0.888622    2.397939
     55          1           0       11.093025   -0.331221    2.868444
     56          1           0       10.642597   -2.981790   -0.678220
     57          1           0       10.149158   -3.728948    0.852720
     58          1           0        9.362342   -2.385951    0.217649
     59          1           0      -11.855902   -0.394751    2.607891
     60          1           0      -10.698987   -1.650085    2.049975
     61          1           0      -12.536316   -2.014487    2.448691
     62          1           0      -13.380807   -2.825969    0.517400
     63          1           0      -11.639111   -2.971085    0.281139
     64          1           0      -12.799524   -2.439368   -1.134227
     65          1           0        8.831192   -0.319324    0.268253
     66          1           0      -10.210533   -1.823902   -0.966866
     67          1           0       10.826915    1.404140   -1.940897
     68          1           0       12.360869    1.992151   -1.319691
     69          1           0       12.434040    0.896264   -2.702249
     70          1           0      -11.148154    2.881215   -1.623091
     71          1           0      -10.068468    1.344205   -2.233280
     72          1           0       -9.676622    2.199791   -0.720825
     73          1           0       14.463428   -3.133214    0.415361
     74          1           0      -15.276896    1.643056    1.966533
     75          1           0       10.424049    2.389619    0.298495
     76          1           0       -8.723471    0.405539    0.521393
     77          1           0        8.887106    4.178332    0.504887
     78          1           0        7.042024    4.466146   -0.043600
     79          1           0        7.549842    3.773055    1.675693
     80          1           0       -8.193768   -3.065785   -0.386390
     81          1           0       -8.378950   -2.653781   -2.170980
     82          1           0       -6.877953   -3.085117   -1.656539
     83          1           0        7.141267    0.470665   -0.448502
     84          1           0       -6.292534    0.330227    0.187471
     85          1           0        5.303851    3.165700    0.206267
     86          1           0       -4.920206   -2.083585   -1.074486
     87          1           0        4.533873    0.410449   -0.528537
     88          1           0       -4.019171    0.431434    0.066297
     89          1           0        2.754790    3.185482    1.400186
     90          1           0        1.704489    3.258364    0.096021
     91          1           0        3.395498    4.137501   -0.115295
     92          1           0       -3.280999   -3.009852   -0.655883
     93          1           0       -2.224971   -2.235111   -2.133055
     94          1           0       -1.188993   -2.832101   -0.402031
     95          1           0        2.494055   -0.076071   -0.669838
     96          1           0       -1.803541    0.968398   -0.067802
     97          1           0        0.337801    2.006960    0.158088
     98          1           0        0.212832   -1.044107   -0.940876
 ---------------------------------------------------------------------

 SCF Done:  E(RCAM-B3LYP) =  -1706.89570407     A.U. after   15 cycles

 Excitation energies and oscillator strengths:

 Excited State   1:      Singlet-A      2.1959 eV  564.62 nm  f=3.5413  <S**2>=0.000
     155 ->158        -0.16077
     156 ->157         0.68786
 This state for optimization and/or second-order correction.
 Total Energy, E(TD-HF/TD-DFT) =  -1706.81500681
 Copying the excited state density for this state as the 1-particle RhoCI density.

 The electronic state is 1-A.
 Alpha  occ. eigenvalues --  -19.23254 -19.21392 -10.31150 -10.31030 -10.29800
 Alpha  occ. eigenvalues --  -10.28286 -10.28087 -10.27854 -10.27671 -10.27615
 Alpha  occ. eigenvalues --  -10.27534 -10.27381 -10.27236 -10.27089 -10.27018
 Alpha  occ. eigenvalues --  -10.26981 -10.26935 -10.26697 -10.26618 -10.26529
 Alpha  occ. eigenvalues --  -10.26297 -10.26256 -10.26109 -10.26011 -10.25963
 Alpha  occ. eigenvalues --  -10.25848 -10.25806 -10.25761 -10.25723 -10.25714
 Alpha  occ. eigenvalues --  -10.25412 -10.25293 -10.25208 -10.25185 -10.25128
 Alpha  occ. eigenvalues --  -10.25061 -10.24814 -10.24805 -10.24677 -10.24084
 Alpha  occ. eigenvalues --  -10.24083 -10.23965  -1.09928  -1.06916  -0.93959
 Alpha  occ. eigenvalues --   -0.93938  -0.92792  -0.91614  -0.90139  -0.89641
 Alpha  occ. eigenvalues --   -0.88739  -0.88002  -0.86828  -0.85184  -0.84630
 Alpha  occ. eigenvalues --   -0.82815  -0.81964  -0.80172  -0.80008  -0.78504
 Alpha  occ. eigenvalues --   -0.77361  -0.76560  -0.76050  -0.76042  -0.75587
 Alpha  occ. eigenvalues --   -0.75430  -0.75095  -0.74650  -0.73173  -0.70054
 Alpha  occ. eigenvalues --   -0.68017  -0.66501  -0.65584  -0.65012  -0.64175
 Alpha  occ. eigenvalues --   -0.63474  -0.61759  -0.61390  -0.60717  -0.60258
 Alpha  occ. eigenvalues --   -0.59153  -0.58427  -0.58154  -0.57651  -0.56134
 Alpha  occ. eigenvalues --   -0.55316  -0.54732  -0.54650  -0.54180  -0.53428
 Alpha  occ. eigenvalues --   -0.53149  -0.52786  -0.52508  -0.51487  -0.51343
 Alpha  occ. eigenvalues --   -0.51130  -0.50383  -0.50120  -0.50003  -0.49936
 Alpha  occ. eigenvalues --   -0.49411  -0.49179  -0.48947  -0.48513  -0.47821
 Alpha  occ. eigenvalues --   -0.47667  -0.47194  -0.47056  -0.46760  -0.46549
 Alpha  occ. eigenvalues --   -0.46188  -0.45758  -0.45416  -0.45226  -0.44828
 Alpha  occ. eigenvalues --   -0.44587  -0.44355  -0.43908  -0.43273  -0.43177
 Alpha  occ. eigenvalues --   -0.43072  -0.42902  -0.42739  -0.42619  -0.42301
 Alpha  occ. eigenvalues --   -0.41941  -0.41897  -0.41616  -0.41166  -0.40975
 Alpha  occ. eigenvalues --   -0.40752  -0.39922  -0.39608  -0.39273  -0.39263
 Alpha  occ. eigenvalues --   -0.39169  -0.38755  -0.38562  -0.38343  -0.37767
 Alpha  occ. eigenvalues --   -0.37707  -0.37500  -0.36733  -0.36546  -0.35529
 Alpha  occ. eigenvalues --   -0.35078  -0.34160  -0.33488  -0.32646  -0.32013
 Alpha  occ. eigenvalues --   -0.31453  -0.29507  -0.27598  -0.26322  -0.23169
 Alpha  occ. eigenvalues --   -0.19309
 Alpha virt. eigenvalues --   -0.05746  -0.01221   0.02710   0.05363   0.07414
 Alpha virt. eigenvalues --    0.07996   0.09115   0.10459   0.10586   0.10985
 Alpha virt. eigenvalues --    0.11313   0.11835   0.12347   0.12846   0.13314

 Mulliken charges:
               1
     1  O   -0.544587
     2  O   -0.556169
     3  C    0.011137
     4  C   -0.020843
     5  C   -0.206707
     6  C   -0.149829
     7  C    0.120346
     8  C    0.172389
     9  C    0.051601
    10  C    0.056026
    11  C   -0.212568
    12  C   -0.224450
    13  C    0.035667
    14  C    0.100340
    15  C   -0.317000
    16  C   -0.296136
    17  C   -0.297002
    18  C   -0.293749
    19  C   -0.105972
    20  C   -0.132502
    21  C   -0.356026
    22  C   -0.362495
    23  C   -0.133899
    24  C   -0.120617
    25  C    0.074096
    26  C    0.097575
    27  C   -0.348081
    28  C   -0.380376
    29  C   -0.111224
    30  C   -0.119588
    31  C   -0.076780
    32  C   -0.103417
    33  C   -0.108079
    34  C   -0.113678
    35  C    0.132197
    36  C    0.150112
    37  C   -0.382370
    38  C   -0.349754
    39  C   -0.099762
    40  C   -0.136081
    41  C   -0.082883
    42  C   -0.106002
    43  H    0.114698
    44  H    0.080894
    45  H    0.039829
    46  H    0.068127
    47  H    0.087938
    48  H    0.055697
    49  H    0.124905
    50  H    0.106905
    51  H    0.133660
    52  H    0.097080
    53  H    0.092350
    54  H    0.114126
    55  H    0.096349
    56  H    0.113810
    57  H    0.052228
    58  H    0.119666
    59  H    0.096406
    60  H    0.100703
    61  H    0.098421
    62  H    0.110640
    63  H    0.114476
    64  H    0.084331
    65  H    0.094330
    66  H    0.092806
    67  H    0.125708
    68  H    0.120357
    69  H    0.109675
    70  H    0.068792
    71  H    0.115118
    72  H    0.131090
    73  H    0.305389
    74  H    0.304179
    75  H    0.089625
    76  H    0.083601
    77  H    0.114138
    78  H    0.076477
    79  H    0.141751
    80  H    0.135294
    81  H    0.117951
    82  H    0.108403
    83  H    0.080008
    84  H    0.087798
    85  H    0.071980
    86  H    0.075593
    87  H    0.064917
    88  H    0.070304
    89  H    0.145991
    90  H    0.116421
    91  H    0.080351
    92  H    0.115846
    93  H    0.098596
    94  H    0.085742
    95  H    0.080467
    96  H    0.069995
    97  H    0.079642
    98  H    0.085564
 Sum of Mulliken charges =  -0.00000

 Dipole moment (field-independent basis, Debye):
    X=              0.6064    Y=             -1.3616    Z=              1.4141  Tot=              2.0546
 Quadrupole moment (field-independent basis, Debye-Ang):
   XX=           -294.6571   YY=           -247.1231   ZZ=           -258.3477
   XY=             12.1040   XZ=            -14.4539   YZ=              7.0208

 Normal termination of Gaussian 16 at Thu Jul 11 20:24:12 2019.
