 Gaussian 16, Revision A.03,
 Gaussian 16:  ES64L-G16RevA.03 25-Dec-2016

 -------------------------------------
 # td=(NStates=1) CAM-B3LYP/6-31G(d,p)
 -------------------------------------

 --
 TD
 --
 Symbolic Z-matrix:
 Charge =  0 Multiplicity = 1

                         Standard orientation:
 ---------------------------------------------------------------------
 Center     Atomic      Atomic             Coordinates (Angstroms)
 Number     Number       Type             X           Y           Z
 ---------------------------------------------------------------------
      1          8           0       14.810104   -2.210787   -0.328693
      2          8           0      -14.929997    1.725620    1.031260
      3          6           0       11.278791   -1.497489    0.961730
      4          6           0      -12.380076   -1.048076    0.529409
      5          6           0       12.716211   -1.877532    1.023655
      6          6           0      -13.695771   -0.420392    0.684034
      7          6           0       13.396571   -1.917967   -0.364871
      8          6           0      -13.660341    1.060752    0.886851
      9          6           0       11.022949   -0.287012    0.097276
     10          6           0      -11.338793   -0.206149   -0.227469
     11          6           0       13.252627   -0.496420   -0.983927
     12          6           0      -12.923435    1.697074   -0.247141
     13          6           0       11.949275    0.140733   -0.901973
     14          6           0      -11.618226    1.050945   -0.558557
     15          6           0       10.744955   -1.135289    2.318538
     16          6           0       10.467982   -2.837900    0.455408
     17          6           0      -11.833473   -1.330500    1.989865
     18          6           0      -12.580031   -2.478183   -0.096531
     19          6           0        9.645621    0.266431    0.164142
     20          6           0      -10.120965   -0.993969   -0.437559
     21          6           0       11.724406    1.252741   -1.910638
     22          6           0      -10.669849    1.770399   -1.456541
     23          6           0        9.360830    1.597441    0.136771
     24          6           0       -8.786848   -0.521299   -0.177040
     25          6           0        8.089044    2.221703    0.267880
     26          6           0       -7.524345   -1.225819   -0.521316
     27          6           0        8.115443    3.692161    0.395574
     28          6           0       -7.447147   -2.652082   -0.976875
     29          6           0        6.900527    1.526138    0.160711
     30          6           0       -6.386804   -0.428264   -0.484008
     31          6           0        5.687051    2.094078    0.295514
     32          6           0       -5.022929   -0.849143   -0.693555
     33          6           0        4.417569    1.351885    0.188199
     34          6           0       -3.956434   -0.088284   -0.458510
     35          6           0        3.089391    1.745116    0.223361
     36          6           0       -2.617441   -0.500993   -0.586209
     37          6           0        2.735822    3.092904    0.484578
     38          6           0       -2.345169   -2.097189   -0.909983
     39          6           0        2.128835    0.817357   -0.128950
     40          6           0       -1.563966    0.305238   -0.343305
     41          6           0        0.750578    1.003248   -0.114332
     42          6           0       -0.236031    0.039755   -0.259896
     43          1           0       13.196140   -1.193504    1.822457
     44          1           0       12.861189   -2.951243    1.326961
     45          1           0      -14.144589   -1.004564    1.529786
     46          1           0      -14.295106   -0.447726   -0.222731
     47          1           0       12.751669   -2.695457   -1.014430
     48          1           0      -12.977023    1.183752    1.896921
     49          1           0       13.910285    0.107539   -0.338352
     50          1           0       13.613574   -0.557890   -2.010245
     51          1           0      -13.781835    1.631405   -1.001169
     52          1           0      -12.644130    2.778391   -0.059348
     53          1           0       11.035392   -1.787608    3.122150
     54          1           0        9.651782   -1.160396    2.456827
     55          1           0       11.040877   -0.185183    2.579298
     56          1           0       10.626995   -3.101260   -0.556363
     57          1           0       10.646865   -3.766443    1.195758
     58          1           0        9.406743   -2.609091    0.311256
     59          1           0      -11.970686   -0.561457    2.643925
     60          1           0      -11.009063   -1.630036    2.067191
     61          1           0      -12.337637   -2.179380    2.350534
     62          1           0      -13.485749   -2.869081    0.325291
     63          1           0      -11.685974   -3.290276    0.075165
     64          1           0      -12.538609   -2.384207   -1.259570
     65          1           0        8.771679   -0.333729    0.466929
     66          1           0      -10.223293   -2.001515   -0.858122
     67          1           0       10.669103    1.358573   -2.337559
     68          1           0       11.929147    2.193207   -1.281882
     69          1           0       12.341655    1.023453   -2.827320
     70          1           0      -11.515264    2.165187   -2.138961
     71          1           0       -9.872585    1.286979   -1.919016
     72          1           0      -10.416422    2.829367   -0.877697
     73          1           0       14.718898   -2.965246    0.134953
     74          1           0      -15.317685    1.140320    1.833835
     75          1           0       10.227687    2.249696    0.182584
     76          1           0       -8.651276    0.593276    0.197706
     77          1           0        9.201855    3.816316    0.719562
     78          1           0        7.775812    4.577922   -0.294525
     79          1           0        7.586554    3.797793    1.377811
     80          1           0       -7.988280   -3.366537   -0.445568
     81          1           0       -7.887695   -2.918038   -2.061195
     82          1           0       -6.337752   -2.942272   -1.303732
     83          1           0        6.923724    0.377808    0.202257
     84          1           0       -6.720976    0.745584    0.072839
     85          1           0        5.741847    3.247335    0.440373
     86          1           0       -4.706433   -1.954643   -1.074417
     87          1           0        4.495925    0.279192   -0.132060
     88          1           0       -4.288816    0.875515   -0.044801
     89          1           0        2.874135    3.380295    1.582608
     90          1           0        1.530534    3.171174    0.584478
     91          1           0        3.123793    4.010374   -0.246026
     92          1           0       -2.611109   -2.577463    0.087885
     93          1           0       -2.894570   -2.418955   -1.749770
     94          1           0       -1.136291   -2.243932   -1.072532
     95          1           0        2.354375   -0.327553   -0.354269
     96          1           0       -1.852170    1.321732    0.060006
     97          1           0        0.526147    2.060734    0.038290
     98          1           0        0.117345   -0.913781   -0.370374
 ---------------------------------------------------------------------

 SCF Done:  E(RCAM-B3LYP) =  -1706.92484188     A.U. after   15 cycles

 Excitation energies and oscillator strengths:

 Excited State   1:      Singlet-A      1.9986 eV  620.36 nm  f=3.6570  <S**2>=0.000
     155 ->158        -0.14290
     156 ->157         0.69495
     156 <-157        -0.10042
 This state for optimization and/or second-order correction.
 Total Energy, E(TD-HF/TD-DFT) =  -1706.85139495
 Copying the excited state density for this state as the 1-particle RhoCI density.

 The electronic state is 1-A.
 Alpha  occ. eigenvalues --  -19.22954 -19.21777 -10.32017 -10.31200 -10.28614
 Alpha  occ. eigenvalues --  -10.28245 -10.28054 -10.27907 -10.27757 -10.27633
 Alpha  occ. eigenvalues --  -10.27556 -10.27402 -10.27307 -10.27225 -10.27090
 Alpha  occ. eigenvalues --  -10.27067 -10.27036 -10.26992 -10.26916 -10.26834
 Alpha  occ. eigenvalues --  -10.26773 -10.26759 -10.26726 -10.26672 -10.26593
 Alpha  occ. eigenvalues --  -10.26422 -10.26276 -10.26224 -10.26165 -10.26015
 Alpha  occ. eigenvalues --  -10.25905 -10.25829 -10.25607 -10.25539 -10.25521
 Alpha  occ. eigenvalues --  -10.25501 -10.25309 -10.25166 -10.25154 -10.24881
 Alpha  occ. eigenvalues --  -10.23457 -10.20778  -1.11979  -1.08437  -0.94315
 Alpha  occ. eigenvalues --   -0.93990  -0.92779  -0.91885  -0.91310  -0.89626
 Alpha  occ. eigenvalues --   -0.87824  -0.87558  -0.87211  -0.85778  -0.84873
 Alpha  occ. eigenvalues --   -0.83267  -0.81970  -0.80142  -0.79858  -0.77854
 Alpha  occ. eigenvalues --   -0.77619  -0.76738  -0.76062  -0.76031  -0.75906
 Alpha  occ. eigenvalues --   -0.75462  -0.75394  -0.74981  -0.73277  -0.70595
 Alpha  occ. eigenvalues --   -0.68891  -0.67393  -0.65304  -0.64670  -0.64428
 Alpha  occ. eigenvalues --   -0.64041  -0.62570  -0.61877  -0.59868  -0.58895
 Alpha  occ. eigenvalues --   -0.58702  -0.58640  -0.58332  -0.57319  -0.56177
 Alpha  occ. eigenvalues --   -0.55967  -0.55543  -0.54847  -0.54696  -0.53718
 Alpha  occ. eigenvalues --   -0.53161  -0.52745  -0.52137  -0.51874  -0.51421
 Alpha  occ. eigenvalues --   -0.50381  -0.50199  -0.49834  -0.49564  -0.49433
 Alpha  occ. eigenvalues --   -0.49046  -0.48588  -0.48354  -0.48205  -0.48061
 Alpha  occ. eigenvalues --   -0.47561  -0.47239  -0.47072  -0.46912  -0.46201
 Alpha  occ. eigenvalues --   -0.45874  -0.45645  -0.45160  -0.44953  -0.44792
 Alpha  occ. eigenvalues --   -0.44715  -0.44581  -0.43809  -0.43723  -0.43379
 Alpha  occ. eigenvalues --   -0.43144  -0.42875  -0.42346  -0.42196  -0.42148
 Alpha  occ. eigenvalues --   -0.41837  -0.41639  -0.41420  -0.41344  -0.41181
 Alpha  occ. eigenvalues --   -0.40933  -0.40503  -0.39909  -0.39229  -0.39159
 Alpha  occ. eigenvalues --   -0.38967  -0.38876  -0.38585  -0.38316  -0.38091
 Alpha  occ. eigenvalues --   -0.37801  -0.37623  -0.37437  -0.37197  -0.35994
 Alpha  occ. eigenvalues --   -0.35729  -0.35333  -0.34268  -0.33178  -0.32573
 Alpha  occ. eigenvalues --   -0.31950  -0.29595  -0.27839  -0.25966  -0.23084
 Alpha  occ. eigenvalues --   -0.18715
 Alpha virt. eigenvalues --   -0.06445  -0.01348   0.02225   0.05298   0.07224
 Alpha virt. eigenvalues --    0.09289   0.09736   0.10678   0.11330   0.11995
 Alpha virt. eigenvalues --    0.12184   0.12493   0.12681   0.13129   0.13309

 Mulliken charges:
               1
     1  O   -0.520195
     2  O   -0.554930
     3  C    0.009949
     4  C   -0.012551
     5  C   -0.193130
     6  C   -0.184123
     7  C    0.129398
     8  C    0.154036
     9  C    0.031517
    10  C    0.074537
    11  C   -0.214674
    12  C   -0.221146
    13  C    0.046221
    14  C    0.058445
    15  C   -0.315191
    16  C   -0.315434
    17  C   -0.273412
    18  C   -0.307514
    19  C   -0.104207
    20  C   -0.149382
    21  C   -0.352958
    22  C   -0.342364
    23  C   -0.108710
    24  C   -0.121567
    25  C    0.083885
    26  C    0.150331
    27  C   -0.385344
    28  C   -0.374570
    29  C   -0.068767
    30  C   -0.141846
    31  C   -0.103851
    32  C   -0.094054
    33  C   -0.149634
    34  C   -0.078658
    35  C    0.172770
    36  C    0.068937
    37  C   -0.386743
    38  C   -0.364421
    39  C   -0.128143
    40  C   -0.108464
    41  C   -0.076178
    42  C   -0.076177
    43  H    0.094994
    44  H    0.073593
    45  H    0.082029
    46  H    0.097990
    47  H    0.072042
    48  H    0.044312
    49  H    0.129718
    50  H    0.107974
    51  H    0.117175
    52  H    0.109965
    53  H    0.095568
    54  H    0.103564
    55  H    0.115503
    56  H    0.110781
    57  H    0.090162
    58  H    0.098444
    59  H    0.099463
    60  H    0.101128
    61  H    0.084783
    62  H    0.108391
    63  H    0.078911
    64  H    0.096757
    65  H    0.089488
    66  H    0.095175
    67  H    0.126145
    68  H    0.123605
    69  H    0.106417
    70  H    0.105667
    71  H    0.134767
    72  H    0.078795
    73  H    0.296952
    74  H    0.312210
    75  H    0.073386
    76  H    0.086927
    77  H    0.099207
    78  H    0.127537
    79  H    0.125343
    80  H    0.132550
    81  H    0.095794
    82  H    0.105011
    83  H    0.074969
    84  H    0.061356
    85  H    0.083610
    86  H    0.075774
    87  H    0.076722
    88  H    0.083597
    89  H    0.122453
    90  H    0.086442
    91  H    0.111663
    92  H    0.130705
    93  H    0.131362
    94  H    0.090513
    95  H    0.072074
    96  H    0.076752
    97  H    0.072644
    98  H    0.069450
 Sum of Mulliken charges =  -0.00000

 Dipole moment (field-independent basis, Debye):
    X=              0.7120    Y=             -2.0758    Z=              1.5074  Tot=              2.6624
 Quadrupole moment (field-independent basis, Debye-Ang):
   XX=           -281.8332   YY=           -244.9140   ZZ=           -261.3684
   XY=             19.8705   XZ=             -1.5925   YZ=              1.3724

 Normal termination of Gaussian 16 at Fri Jul 19 05:49:26 2019.
