 Gaussian 16, Revision A.03,
 Gaussian 16:  ES64L-G16RevA.03 25-Dec-2016

 -------------------------------------
 # td=(NStates=1) CAM-B3LYP/6-31G(d,p)
 -------------------------------------

 --
 TD
 --
 Symbolic Z-matrix:
 Charge =  0 Multiplicity = 1

                         Standard orientation:
 ---------------------------------------------------------------------
 Center     Atomic      Atomic             Coordinates (Angstroms)
 Number     Number       Type             X           Y           Z
 ---------------------------------------------------------------------
      1          8           0       14.531139   -2.405852   -0.056282
      2          8           0      -14.649940    1.898739    1.023524
      3          6           0       11.091216   -1.428574    1.083197
      4          6           0      -12.283014   -1.015287    0.821445
      5          6           0       12.552569   -1.869284    1.257691
      6          6           0      -13.576786   -0.255199    0.750804
      7          6           0       13.255341   -1.930603   -0.128595
      8          6           0      -13.460438    1.192716    1.104180
      9          6           0       10.950217   -0.296752    0.089103
     10          6           0      -11.152814   -0.263517   -0.008096
     11          6           0       13.244340   -0.494650   -0.728863
     12          6           0      -12.645745    1.754224   -0.063964
     13          6           0       11.947825    0.043603   -0.769527
     14          6           0      -11.460094    0.953993   -0.397528
     15          6           0       10.518241   -1.170266    2.433597
     16          6           0       10.286435   -2.608773    0.415592
     17          6           0      -11.848158   -1.363684    2.195513
     18          6           0      -12.584885   -2.378442    0.045428
     19          6           0        9.646884    0.355770    0.162240
     20          6           0      -10.012511   -0.963550   -0.141038
     21          6           0       11.817485    1.185473   -1.739425
     22          6           0      -10.461576    1.663829   -1.325728
     23          6           0        9.396170    1.609062    0.089870
     24          6           0       -8.761481   -0.485176   -0.365120
     25          6           0        8.058526    2.296424    0.230790
     26          6           0       -7.559319   -1.176888   -0.723217
     27          6           0        8.059805    3.779712    0.629219
     28          6           0       -7.679594   -2.655579   -1.051319
     29          6           0        6.867349    1.581743    0.016046
     30          6           0       -6.371117   -0.528039   -0.511431
     31          6           0        5.541536    2.044852    0.209720
     32          6           0       -5.087487   -1.006453   -0.774181
     33          6           0        4.391130    1.294160   -0.199746
     34          6           0       -3.936188   -0.376379   -0.643062
     35          6           0        3.105271    1.807937   -0.080734
     36          6           0       -2.545846   -0.801838   -0.903552
     37          6           0        2.858305    3.200861    0.411745
     38          6           0       -2.305314   -2.176083   -1.256835
     39          6           0        2.109301    0.881368   -0.448509
     40          6           0       -1.598113    0.188414   -0.590681
     41          6           0        0.735627    1.033950   -0.413985
     42          6           0       -0.225860    0.062024   -0.546010
     43          1           0       13.110755   -1.240756    1.781728
     44          1           0       12.605660   -2.850495    1.741732
     45          1           0      -14.175865   -0.720363    1.527374
     46          1           0      -14.003307   -0.469363   -0.345599
     47          1           0       12.572328   -2.536218   -0.746487
     48          1           0      -13.012146    1.637475    2.086818
     49          1           0       14.026507   -0.153683   -0.282251
     50          1           0       13.772704   -0.503826   -1.723699
     51          1           0      -13.399595    2.021014   -0.818064
     52          1           0      -12.459074    2.630982    0.333759
     53          1           0       10.657493   -2.000402    3.264358
     54          1           0        9.540294   -0.691183    2.475140
     55          1           0       11.248418   -0.341025    2.846324
     56          1           0       10.528418   -2.867837   -0.811173
     57          1           0       10.468251   -3.613270    0.890097
     58          1           0        9.235166   -2.465231    0.666460
     59          1           0      -12.000707   -0.500474    2.706385
     60          1           0      -10.984591   -1.868092    2.272354
     61          1           0      -12.446079   -1.855389    2.672068
     62          1           0      -13.504580   -2.651848    0.618042
     63          1           0      -11.799324   -3.244833    0.197001
     64          1           0      -12.878055   -2.333583   -0.938810
     65          1           0        8.787608   -0.211471    0.285667
     66          1           0      -10.220845   -2.043048   -0.123334
     67          1           0       10.792812    1.215605   -1.986381
     68          1           0       12.279846    2.122721   -0.985597
     69          1           0       12.491676    1.181427   -2.677183
     70          1           0      -11.292304    2.226601   -2.061499
     71          1           0       -9.862565    1.004754   -1.869156
     72          1           0       -9.787955    2.322033   -0.847814
     73          1           0       14.572570   -3.256359    0.320935
     74          1           0      -15.356468    1.534691    1.668132
     75          1           0       10.117002    2.231925    0.293071
     76          1           0       -8.348256    0.537369   -0.291916
     77          1           0        9.073693    4.260829    0.716913
     78          1           0        7.630435    4.254020   -0.380745
     79          1           0        7.289218    3.804300    1.397088
     80          1           0       -8.048035   -3.073184   -0.201384
     81          1           0       -8.599719   -2.647169   -1.979898
     82          1           0       -6.829790   -3.017976   -1.601345
     83          1           0        6.913737    0.508863   -0.129342
     84          1           0       -6.472439    0.555445   -0.128437
     85          1           0        5.373392    3.073732    0.531530
     86          1           0       -4.901442   -1.958157   -1.147889
     87          1           0        4.523116    0.091477   -0.352800
     88          1           0       -3.924859    0.837031   -0.413855
     89          1           0        3.019952    3.457991    1.415560
     90          1           0        1.586901    3.385686    0.156685
     91          1           0        3.515031    3.925943   -0.101645
     92          1           0       -2.889722   -3.053658   -0.906272
     93          1           0       -2.701557   -2.303194   -2.292802
     94          1           0       -1.205784   -2.580720   -1.288281
     95          1           0        2.501512   -0.070944   -0.806850
     96          1           0       -2.053576    1.183564    0.034922
     97          1           0        0.360051    1.969380   -0.095208
     98          1           0        0.251097   -0.904799   -1.112573
 ---------------------------------------------------------------------

 SCF Done:  E(RCAM-B3LYP) =  -1706.86739147     A.U. after   15 cycles

 Excitation energies and oscillator strengths:

 Excited State   1:      Singlet-A      2.1594 eV  574.15 nm  f=3.7303  <S**2>=0.000
     155 ->158        -0.15070
     156 ->157         0.69032
 This state for optimization and/or second-order correction.
 Total Energy, E(TD-HF/TD-DFT) =  -1706.78803422
 Copying the excited state density for this state as the 1-particle RhoCI density.

 The electronic state is 1-A.
 Alpha  occ. eigenvalues --  -19.21260 -19.21254 -10.30220 -10.29614 -10.28407
 Alpha  occ. eigenvalues --  -10.27961 -10.27806 -10.27648 -10.27492 -10.27405
 Alpha  occ. eigenvalues --  -10.27287 -10.27285 -10.26937 -10.26890 -10.26799
 Alpha  occ. eigenvalues --  -10.26695 -10.26599 -10.26537 -10.26464 -10.26374
 Alpha  occ. eigenvalues --  -10.26301 -10.26198 -10.26119 -10.26092 -10.25939
 Alpha  occ. eigenvalues --  -10.25740 -10.25646 -10.25532 -10.25521 -10.25462
 Alpha  occ. eigenvalues --  -10.25260 -10.24908 -10.24849 -10.24701 -10.24499
 Alpha  occ. eigenvalues --  -10.24173 -10.23964 -10.23687 -10.23430 -10.23208
 Alpha  occ. eigenvalues --  -10.22933 -10.20473  -1.11831  -1.09683  -0.94538
 Alpha  occ. eigenvalues --   -0.94414  -0.92299  -0.91788  -0.90625  -0.90093
 Alpha  occ. eigenvalues --   -0.87999  -0.87887  -0.87396  -0.86265  -0.85486
 Alpha  occ. eigenvalues --   -0.83608  -0.82039  -0.80416  -0.79972  -0.78953
 Alpha  occ. eigenvalues --   -0.78309  -0.76757  -0.76284  -0.76192  -0.75869
 Alpha  occ. eigenvalues --   -0.75682  -0.75418  -0.74743  -0.73488  -0.70844
 Alpha  occ. eigenvalues --   -0.69289  -0.68183  -0.66496  -0.65531  -0.64597
 Alpha  occ. eigenvalues --   -0.63790  -0.63152  -0.60883  -0.60800  -0.59911
 Alpha  occ. eigenvalues --   -0.59597  -0.59404  -0.58214  -0.57943  -0.56889
 Alpha  occ. eigenvalues --   -0.56825  -0.55925  -0.55551  -0.54530  -0.54097
 Alpha  occ. eigenvalues --   -0.53905  -0.53420  -0.52486  -0.51875  -0.51372
 Alpha  occ. eigenvalues --   -0.51030  -0.50795  -0.50219  -0.49988  -0.49318
 Alpha  occ. eigenvalues --   -0.49022  -0.48906  -0.48807  -0.48316  -0.48205
 Alpha  occ. eigenvalues --   -0.47930  -0.47451  -0.47234  -0.46984  -0.46313
 Alpha  occ. eigenvalues --   -0.46073  -0.45594  -0.45311  -0.45082  -0.44880
 Alpha  occ. eigenvalues --   -0.44824  -0.44411  -0.43741  -0.43436  -0.43359
 Alpha  occ. eigenvalues --   -0.42985  -0.42870  -0.42787  -0.42310  -0.42175
 Alpha  occ. eigenvalues --   -0.42024  -0.41435  -0.41247  -0.40979  -0.40595
 Alpha  occ. eigenvalues --   -0.40252  -0.39923  -0.39737  -0.39715  -0.39499
 Alpha  occ. eigenvalues --   -0.38940  -0.38441  -0.38313  -0.38118  -0.37691
 Alpha  occ. eigenvalues --   -0.37526  -0.37241  -0.36761  -0.36507  -0.35647
 Alpha  occ. eigenvalues --   -0.35136  -0.34246  -0.32792  -0.32520  -0.31806
 Alpha  occ. eigenvalues --   -0.31400  -0.30061  -0.27782  -0.25848  -0.23012
 Alpha  occ. eigenvalues --   -0.19163
 Alpha virt. eigenvalues --   -0.05914  -0.01029   0.02241   0.05636   0.08235
 Alpha virt. eigenvalues --    0.09867   0.10997   0.11507   0.11624   0.12372
 Alpha virt. eigenvalues --    0.12413   0.12792   0.13325   0.13640   0.13884

 Mulliken charges:
               1
     1  O   -0.551194
     2  O   -0.573670
     3  C   -0.014610
     4  C   -0.048896
     5  C   -0.179395
     6  C   -0.208332
     7  C    0.157069
     8  C    0.167402
     9  C    0.082444
    10  C    0.164293
    11  C   -0.220451
    12  C   -0.217478
    13  C    0.061184
    14  C    0.003687
    15  C   -0.310253
    16  C   -0.293321
    17  C   -0.262168
    18  C   -0.316271
    19  C   -0.103012
    20  C   -0.140146
    21  C   -0.333951
    22  C   -0.351999
    23  C   -0.072440
    24  C   -0.101880
    25  C    0.033817
    26  C    0.090973
    27  C   -0.365946
    28  C   -0.339932
    29  C   -0.102343
    30  C   -0.127125
    31  C   -0.115783
    32  C   -0.073066
    33  C   -0.122995
    34  C   -0.115333
    35  C    0.144597
    36  C    0.157235
    37  C   -0.365553
    38  C   -0.408577
    39  C   -0.118883
    40  C   -0.132112
    41  C   -0.070257
    42  C   -0.096797
    43  H    0.101337
    44  H    0.072698
    45  H    0.072353
    46  H    0.105272
    47  H    0.065860
    48  H    0.079423
    49  H    0.128384
    50  H    0.091953
    51  H    0.124106
    52  H    0.119351
    53  H    0.095493
    54  H    0.113229
    55  H    0.087071
    56  H    0.081066
    57  H    0.089342
    58  H    0.103881
    59  H    0.096271
    60  H    0.108461
    61  H    0.098416
    62  H    0.090808
    63  H    0.083430
    64  H    0.114937
    65  H    0.082106
    66  H    0.078503
    67  H    0.131391
    68  H    0.080527
    69  H    0.099941
    70  H    0.063945
    71  H    0.126149
    72  H    0.119400
    73  H    0.303614
    74  H    0.302753
    75  H    0.064827
    76  H    0.079674
    77  H    0.120768
    78  H    0.116337
    79  H    0.136584
    80  H    0.142110
    81  H    0.070055
    82  H    0.117802
    83  H    0.078361
    84  H    0.079133
    85  H    0.075262
    86  H    0.064390
    87  H    0.081804
    88  H    0.055564
    89  H    0.139734
    90  H    0.075039
    91  H    0.124857
    92  H    0.135222
    93  H    0.123822
    94  H    0.112892
    95  H    0.077956
    96  H    0.076782
    97  H    0.070970
    98  H    0.060051
 Sum of Mulliken charges =  -0.00000

 Dipole moment (field-independent basis, Debye):
    X=              0.2109    Y=             -1.8771    Z=              2.2746  Tot=              2.9566
 Quadrupole moment (field-independent basis, Debye-Ang):
   XX=           -248.6036   YY=           -243.9614   ZZ=           -260.5921
   XY=             11.9790   XZ=             -7.3282   YZ=              3.9097

 Normal termination of Gaussian 16 at Mon Jul  8 13:08:02 2019.
