 Gaussian 16, Revision A.03,
 Gaussian 16:  ES64L-G16RevA.03 25-Dec-2016

 -------------------------------------
 # td=(NStates=1) CAM-B3LYP/6-31G(d,p)
 -------------------------------------

 --
 TD
 --
 Symbolic Z-matrix:
 Charge =  0 Multiplicity = 1

                         Standard orientation:
 ---------------------------------------------------------------------
 Center     Atomic      Atomic             Coordinates (Angstroms)
 Number     Number       Type             X           Y           Z
 ---------------------------------------------------------------------
      1          8           0       14.653307   -2.255824   -0.292599
      2          8           0      -14.666536    1.827589    0.967911
      3          6           0       11.124513   -1.458971    1.004860
      4          6           0      -12.360296   -1.060000    0.532688
      5          6           0       12.540927   -1.895844    0.951629
      6          6           0      -13.677030   -0.229424    0.533766
      7          6           0       13.241360   -1.994258   -0.478721
      8          6           0      -13.414572    1.202522    0.819531
      9          6           0       10.968523   -0.251353    0.066205
     10          6           0      -11.231862   -0.184528   -0.144055
     11          6           0       13.241753   -0.572211   -0.989829
     12          6           0      -12.674920    1.862621   -0.270099
     13          6           0       11.864045    0.085466   -0.942085
     14          6           0      -11.392032    1.101323   -0.681554
     15          6           0       10.787965   -1.037435    2.449645
     16          6           0       10.204811   -2.612627    0.472607
     17          6           0      -11.950629   -1.273223    1.979155
     18          6           0      -12.591396   -2.375464   -0.187999
     19          6           0        9.603385    0.326807    0.207330
     20          6           0      -10.017796   -0.949154   -0.277524
     21          6           0       11.540317    1.156501   -1.842457
     22          6           0      -10.457237    1.809423   -1.552894
     23          6           0        9.371231    1.656295    0.250292
     24          6           0       -8.801073   -0.528863   -0.169873
     25          6           0        8.048766    2.344220    0.232474
     26          6           0       -7.542988   -1.211873   -0.516039
     27          6           0        7.995903    3.750342    0.563201
     28          6           0       -7.671147   -2.718019   -1.046138
     29          6           0        6.968694    1.484183    0.038698
     30          6           0       -6.438714   -0.622132   -0.164461
     31          6           0        5.643854    2.124991    0.153655
     32          6           0       -5.091003   -1.133404   -0.346716
     33          6           0        4.503493    1.301549   -0.065026
     34          6           0       -3.832195   -0.382277   -0.185426
     35          6           0        3.110341    1.825295    0.072058
     36          6           0       -2.593164   -0.770058   -0.399710
     37          6           0        2.890212    3.121500    0.474230
     38          6           0       -2.315870   -2.156848   -0.762854
     39          6           0        2.153833    0.834218   -0.296176
     40          6           0       -1.569302    0.116304   -0.291437
     41          6           0        0.754536    0.992072   -0.257218
     42          6           0       -0.189974   -0.077149   -0.376864
     43          1           0       13.239050   -1.496691    1.600832
     44          1           0       12.553648   -2.971444    1.471342
     45          1           0      -14.255175   -0.854625    1.229607
     46          1           0      -14.272334   -0.150474   -0.418258
     47          1           0       12.630211   -2.674003   -1.202442
     48          1           0      -12.927520    1.227749    1.932334
     49          1           0       13.779759    0.131727   -0.274995
     50          1           0       13.588949   -0.621230   -1.938334
     51          1           0      -13.443084    1.922904   -1.078401
     52          1           0      -12.327822    2.854234   -0.063352
     53          1           0       11.089145   -1.891694    3.085915
     54          1           0        9.723947   -0.876568    2.700932
     55          1           0       11.335967    0.014730    2.822770
     56          1           0       10.265904   -2.701414   -0.649313
     57          1           0       10.509181   -3.513930    0.986424
     58          1           0        9.003800   -2.390149    0.537380
     59          1           0      -11.584223   -0.532064    2.578008
     60          1           0      -11.186606   -1.973089    1.937995
     61          1           0      -12.617475   -1.910995    2.625196
     62          1           0      -13.609877   -2.658317    0.122462
     63          1           0      -11.936687   -3.365907    0.159934
     64          1           0      -12.656361   -2.351555   -1.206416
     65          1           0        8.814519   -0.329835    0.657749
     66          1           0      -10.169744   -1.925680   -0.804064
     67          1           0       10.621550    1.554767   -1.941927
     68          1           0       12.113966    2.131510   -1.607804
     69          1           0       11.818663    0.849882   -2.750407
     70          1           0      -11.238666    2.344999   -2.162480
     71          1           0       -9.624117    1.324943   -2.289295
     72          1           0       -9.844369    2.544656   -0.949640
     73          1           0       14.666272   -3.312277   -0.180615
     74          1           0      -15.122032    1.704903    1.849722
     75          1           0       10.279016    2.394850    0.135375
     76          1           0       -8.660674    0.596269    0.102155
     77          1           0        8.935747    4.147996    0.220490
     78          1           0        7.136432    4.238744   -0.146498
     79          1           0        7.876807    3.965716    1.721154
     80          1           0       -8.274412   -3.381549   -0.209916
     81          1           0       -8.110106   -2.714733   -2.044989
     82          1           0       -6.647318   -3.169257   -1.195898
     83          1           0        7.213723    0.390198   -0.029667
     84          1           0       -6.688536    0.455154    0.048859
     85          1           0        5.656517    3.156697    0.562244
     86          1           0       -5.136616   -2.148778   -0.660972
     87          1           0        4.695872    0.296104   -0.481769
     88          1           0       -3.933070    0.591179    0.591119
     89          1           0        3.000792    3.230270    1.522208
     90          1           0        1.893381    3.526343    0.317249
     91          1           0        3.755539    3.848368   -0.050120
     92          1           0       -2.756426   -2.811351   -0.109176
     93          1           0       -2.730408   -2.303797   -1.696212
     94          1           0       -1.377976   -2.454698   -0.610687
     95          1           0        2.304850   -0.202661   -0.798593
     96          1           0       -2.036552    1.069765   -0.015709
     97          1           0        0.125995    2.019627    0.046933
     98          1           0        0.173244   -1.022737   -0.742146
 ---------------------------------------------------------------------

 SCF Done:  E(RCAM-B3LYP) =  -1706.94858006     A.U. after   15 cycles

 Excitation energies and oscillator strengths:

 Excited State   1:      Singlet-A      2.1686 eV  571.72 nm  f=3.5654  <S**2>=0.000
     155 ->158         0.15185
     156 ->157         0.69046
 This state for optimization and/or second-order correction.
 Total Energy, E(TD-HF/TD-DFT) =  -1706.86888470
 Copying the excited state density for this state as the 1-particle RhoCI density.

 The electronic state is 1-A.
 Alpha  occ. eigenvalues --  -19.22927 -19.20243 -10.31772 -10.30622 -10.28197
 Alpha  occ. eigenvalues --  -10.28025 -10.27453 -10.27346 -10.27279 -10.27276
 Alpha  occ. eigenvalues --  -10.27243 -10.27204 -10.27017 -10.26999 -10.26964
 Alpha  occ. eigenvalues --  -10.26946 -10.26654 -10.26550 -10.26548 -10.26478
 Alpha  occ. eigenvalues --  -10.26418 -10.26256 -10.26249 -10.26216 -10.25998
 Alpha  occ. eigenvalues --  -10.25991 -10.25585 -10.25386 -10.25349 -10.25318
 Alpha  occ. eigenvalues --  -10.25293 -10.25261 -10.25161 -10.25145 -10.25101
 Alpha  occ. eigenvalues --  -10.24900 -10.24855 -10.24015 -10.23982 -10.22839
 Alpha  occ. eigenvalues --  -10.22833 -10.22263  -1.08550  -1.08102  -0.93294
 Alpha  occ. eigenvalues --   -0.93090  -0.92889  -0.91552  -0.90394  -0.90173
 Alpha  occ. eigenvalues --   -0.87487  -0.87309  -0.86392  -0.85335  -0.84571
 Alpha  occ. eigenvalues --   -0.82224  -0.81668  -0.80403  -0.79831  -0.79516
 Alpha  occ. eigenvalues --   -0.77029  -0.76820  -0.76239  -0.75577  -0.75464
 Alpha  occ. eigenvalues --   -0.75321  -0.75147  -0.74535  -0.73169  -0.70259
 Alpha  occ. eigenvalues --   -0.68023  -0.66579  -0.65355  -0.64250  -0.63961
 Alpha  occ. eigenvalues --   -0.63426  -0.61610  -0.60788  -0.60360  -0.58738
 Alpha  occ. eigenvalues --   -0.58553  -0.58160  -0.57872  -0.57252  -0.55755
 Alpha  occ. eigenvalues --   -0.55525  -0.55243  -0.54902  -0.54180  -0.53941
 Alpha  occ. eigenvalues --   -0.52988  -0.52807  -0.52230  -0.51298  -0.50944
 Alpha  occ. eigenvalues --   -0.50811  -0.50319  -0.49834  -0.49314  -0.49068
 Alpha  occ. eigenvalues --   -0.48921  -0.48757  -0.48463  -0.48009  -0.47600
 Alpha  occ. eigenvalues --   -0.47433  -0.47391  -0.47206  -0.46896  -0.45707
 Alpha  occ. eigenvalues --   -0.45581  -0.45397  -0.45297  -0.44710  -0.44256
 Alpha  occ. eigenvalues --   -0.44154  -0.44002  -0.43903  -0.43794  -0.43590
 Alpha  occ. eigenvalues --   -0.43363  -0.42481  -0.42300  -0.42021  -0.41913
 Alpha  occ. eigenvalues --   -0.41791  -0.41225  -0.41067  -0.40849  -0.40580
 Alpha  occ. eigenvalues --   -0.40370  -0.40141  -0.39827  -0.39200  -0.39008
 Alpha  occ. eigenvalues --   -0.38974  -0.38849  -0.38258  -0.38240  -0.38134
 Alpha  occ. eigenvalues --   -0.37154  -0.36825  -0.36720  -0.36073  -0.35650
 Alpha  occ. eigenvalues --   -0.34982  -0.34470  -0.33176  -0.32324  -0.31802
 Alpha  occ. eigenvalues --   -0.30796  -0.29199  -0.27315  -0.25650  -0.23088
 Alpha  occ. eigenvalues --   -0.18986
 Alpha virt. eigenvalues --   -0.05757  -0.00501   0.02892   0.05599   0.07514
 Alpha virt. eigenvalues --    0.09799   0.10448   0.11223   0.11550   0.11749
 Alpha virt. eigenvalues --    0.11933   0.12511   0.12743   0.13285   0.13460

 Mulliken charges:
               1
     1  O   -0.549879
     2  O   -0.578328
     3  C    0.003782
     4  C   -0.005396
     5  C   -0.188362
     6  C   -0.162166
     7  C    0.135781
     8  C    0.166832
     9  C    0.047081
    10  C    0.019397
    11  C   -0.179223
    12  C   -0.210475
    13  C    0.019523
    14  C    0.056096
    15  C   -0.294903
    16  C   -0.293282
    17  C   -0.310876
    18  C   -0.308841
    19  C   -0.121252
    20  C   -0.126004
    21  C   -0.353633
    22  C   -0.359314
    23  C   -0.112171
    24  C   -0.093938
    25  C    0.092190
    26  C    0.103385
    27  C   -0.369407
    28  C   -0.361741
    29  C   -0.096634
    30  C   -0.099531
    31  C   -0.123724
    32  C   -0.127753
    33  C   -0.115588
    34  C   -0.165677
    35  C    0.139164
    36  C    0.158435
    37  C   -0.392190
    38  C   -0.360821
    39  C   -0.134469
    40  C   -0.111874
    41  C   -0.082486
    42  C   -0.104758
    43  H    0.120072
    44  H    0.038357
    45  H    0.083738
    46  H    0.086443
    47  H    0.083187
    48  H    0.050320
    49  H    0.128500
    50  H    0.105284
    51  H    0.116311
    52  H    0.118194
    53  H    0.093936
    54  H    0.105212
    55  H    0.087548
    56  H    0.108641
    57  H    0.106286
    58  H    0.077841
    59  H    0.118808
    60  H    0.114173
    61  H    0.083114
    62  H    0.099017
    63  H    0.075515
    64  H    0.123789
    65  H    0.090960
    66  H    0.089207
    67  H    0.132468
    68  H    0.092260
    69  H    0.107545
    70  H    0.108550
    71  H    0.115435
    72  H    0.115297
    73  H    0.307690
    74  H    0.312157
    75  H    0.068579
    76  H    0.065721
    77  H    0.116159
    78  H    0.100408
    79  H    0.123366
    80  H    0.107465
    81  H    0.128323
    82  H    0.102011
    83  H    0.088793
    84  H    0.074506
    85  H    0.101182
    86  H    0.078877
    87  H    0.093475
    88  H    0.074604
    89  H    0.142476
    90  H    0.123251
    91  H    0.099934
    92  H    0.120022
    93  H    0.129036
    94  H    0.106829
    95  H    0.092980
    96  H    0.067459
    97  H    0.067741
    98  H    0.083978
 Sum of Mulliken charges =  -0.00000

 Dipole moment (field-independent basis, Debye):
    X=              0.7961    Y=             -1.5571    Z=              0.7799  Tot=              1.9148
 Quadrupole moment (field-independent basis, Debye-Ang):
   XX=           -276.3578   YY=           -239.9660   ZZ=           -258.2173
   XY=              0.3853   XZ=            -12.6362   YZ=              6.4263

 Normal termination of Gaussian 16 at Tue Jul 16 21:47:15 2019.
