 Gaussian 16, Revision A.03,
 Gaussian 16:  ES64L-G16RevA.03 25-Dec-2016

 -------------------------------------
 # td=(NStates=1) CAM-B3LYP/6-31G(d,p)
 -------------------------------------

 --
 TD
 --
 Symbolic Z-matrix:
 Charge =  0 Multiplicity = 1

                         Standard orientation:
 ---------------------------------------------------------------------
 Center     Atomic      Atomic             Coordinates (Angstroms)
 Number     Number       Type             X           Y           Z
 ---------------------------------------------------------------------
      1          8           0       14.779180   -2.165136   -0.184126
      2          8           0      -14.827923    1.793724    1.166483
      3          6           0       11.209688   -1.468920    1.052603
      4          6           0      -12.301134   -1.103205    0.601843
      5          6           0       12.742557   -1.846385    1.077174
      6          6           0      -13.680707   -0.351906    0.739033
      7          6           0       13.462507   -1.801640   -0.238075
      8          6           0      -13.543102    1.170233    1.091987
      9          6           0       11.025006   -0.238025    0.100527
     10          6           0      -11.335038   -0.186371   -0.149418
     11          6           0       13.390079   -0.469349   -0.953453
     12          6           0      -12.825412    1.805766   -0.089909
     13          6           0       11.947486    0.110704   -0.842128
     14          6           0      -11.507539    1.106590   -0.532088
     15          6           0       10.864323   -1.167095    2.475740
     16          6           0       10.444959   -2.733311    0.569508
     17          6           0      -11.838218   -1.315596    2.003015
     18          6           0      -12.596414   -2.407218   -0.149944
     19          6           0        9.658227    0.257442    0.120667
     20          6           0      -10.058658   -0.990698   -0.488447
     21          6           0       11.681868    1.239819   -1.875273
     22          6           0      -10.692604    1.863384   -1.425574
     23          6           0        9.343968    1.611517    0.003024
     24          6           0       -8.824677   -0.517302   -0.291743
     25          6           0        7.995340    2.243574    0.157591
     26          6           0       -7.669288   -1.318259   -0.500183
     27          6           0        7.956553    3.716567    0.465189
     28          6           0       -7.803515   -2.654449   -1.187875
     29          6           0        6.878643    1.547467    0.064448
     30          6           0       -6.404978   -0.643131   -0.325970
     31          6           0        5.505464    2.009075    0.102469
     32          6           0       -5.107209   -1.060739   -0.614651
     33          6           0        4.463943    1.215286    0.023792
     34          6           0       -3.946886   -0.337225   -0.453261
     35          6           0        3.147472    1.729644    0.229827
     36          6           0       -2.607747   -0.676586   -0.747273
     37          6           0        2.835509    3.185578    0.481047
     38          6           0       -2.350717   -2.044258   -1.068542
     39          6           0        2.007614    0.817621   -0.088372
     40          6           0       -1.554417    0.152460   -0.495100
     41          6           0        0.729769    0.994167   -0.079952
     42          6           0       -0.225764    0.071707   -0.431219
     43          1           0       13.171543   -1.224088    1.692820
     44          1           0       12.816232   -2.773402    1.472625
     45          1           0      -14.369645   -0.853566    1.570650
     46          1           0      -14.260197   -0.237788   -0.381463
     47          1           0       13.027689   -2.431814   -0.849913
     48          1           0      -12.935766    1.302611    1.805720
     49          1           0       14.039923    0.310345   -0.431290
     50          1           0       13.750209   -0.824750   -2.021663
     51          1           0      -13.652854    1.789795   -0.918510
     52          1           0      -12.425825    2.832334    0.098649
     53          1           0       11.197685   -1.953320    2.931298
     54          1           0        9.928681   -1.281165    2.916489
     55          1           0       11.223321   -0.272670    2.702366
     56          1           0       10.911536   -3.210825   -0.404170
     57          1           0       10.548693   -3.502897    1.265310
     58          1           0        9.339132   -2.664254    0.468448
     59          1           0      -11.861416   -0.398432    2.371528
     60          1           0      -10.699266   -1.738552    2.021266
     61          1           0      -12.609879   -2.005207    2.441175
     62          1           0      -13.491824   -2.929469    0.467226
     63          1           0      -11.648815   -2.854141   -0.011474
     64          1           0      -12.767346   -2.085434   -1.118723
     65          1           0        8.886112   -0.297567    0.503106
     66          1           0      -10.180232   -2.199960   -0.751186
     67          1           0       10.486621    1.200518   -2.294138
     68          1           0       12.025009    2.309659   -1.537077
     69          1           0       12.434794    0.889934   -2.775439
     70          1           0      -11.020861    2.484905   -2.017132
     71          1           0       -9.918378    1.149452   -1.946969
     72          1           0       -9.871240    2.560753   -0.689332
     73          1           0       14.936782   -3.117736    0.249179
     74          1           0      -15.293088    1.517097    2.026298
     75          1           0       10.125464    2.242115   -0.191618
     76          1           0       -8.550996    0.388901    0.160959
     77          1           0        8.922316    4.327051    0.443064
     78          1           0        7.226462    4.196750   -0.259563
     79          1           0        7.533267    3.952936    1.392365
     80          1           0       -8.415838   -3.420161   -0.510633
     81          1           0       -8.161800   -2.675171   -2.205474
     82          1           0       -6.794462   -3.026310   -1.508929
     83          1           0        7.007189    0.409683    0.018463
     84          1           0       -6.530802    0.422076    0.055536
     85          1           0        5.498966    3.206640    0.160705
     86          1           0       -5.053976   -2.055160   -1.124016
     87          1           0        4.549712    0.236248   -0.026823
     88          1           0       -4.117056    0.709690   -0.247775
     89          1           0        3.586865    3.491855    1.493607
     90          1           0        1.941578    3.586498    0.539693
     91          1           0        3.308660    3.906145   -0.270286
     92          1           0       -2.266471   -2.907384    0.171583
     93          1           0       -3.202324   -2.393557   -1.815040
     94          1           0       -1.213749   -2.278425   -1.631356
     95          1           0        2.302451   -0.155506   -0.292860
     96          1           0       -1.896159    1.162472   -0.334467
     97          1           0        0.248228    2.025635    0.125291
     98          1           0        0.123394   -0.973683   -0.843169
 ---------------------------------------------------------------------

 SCF Done:  E(RCAM-B3LYP) =  -1706.79496417     A.U. after   15 cycles

 Excitation energies and oscillator strengths:

 Excited State   1:      Singlet-A      1.9590 eV  632.89 nm  f=3.7275  <S**2>=0.000
     155 ->158         0.12870
     156 ->157         0.69989
     156 <-157        -0.11497
 This state for optimization and/or second-order correction.
 Total Energy, E(TD-HF/TD-DFT) =  -1706.72297193
 Copying the excited state density for this state as the 1-particle RhoCI density.

 The electronic state is 1-A.
 Alpha  occ. eigenvalues --  -19.21683 -19.21359 -10.30012 -10.29242 -10.28850
 Alpha  occ. eigenvalues --  -10.28162 -10.27998 -10.27775 -10.27607 -10.27334
 Alpha  occ. eigenvalues --  -10.27292 -10.27197 -10.27177 -10.27157 -10.27084
 Alpha  occ. eigenvalues --  -10.26910 -10.26741 -10.26663 -10.26636 -10.26634
 Alpha  occ. eigenvalues --  -10.26620 -10.26535 -10.26494 -10.26379 -10.26237
 Alpha  occ. eigenvalues --  -10.26235 -10.26083 -10.26003 -10.25863 -10.25643
 Alpha  occ. eigenvalues --  -10.25642 -10.25613 -10.25587 -10.25549 -10.25321
 Alpha  occ. eigenvalues --  -10.25309 -10.25180 -10.25135 -10.24497 -10.24429
 Alpha  occ. eigenvalues --  -10.22372 -10.21499  -1.09578  -1.08186  -0.93560
 Alpha  occ. eigenvalues --   -0.93280  -0.93071  -0.92175  -0.90909  -0.90247
 Alpha  occ. eigenvalues --   -0.88471  -0.87767  -0.86976  -0.85678  -0.84873
 Alpha  occ. eigenvalues --   -0.83368  -0.82202  -0.80408  -0.80057  -0.79085
 Alpha  occ. eigenvalues --   -0.77837  -0.77254  -0.76827  -0.76358  -0.76136
 Alpha  occ. eigenvalues --   -0.74984  -0.74884  -0.73356  -0.72980  -0.71059
 Alpha  occ. eigenvalues --   -0.69005  -0.67632  -0.66177  -0.65671  -0.64447
 Alpha  occ. eigenvalues --   -0.63858  -0.62903  -0.61913  -0.60769  -0.59694
 Alpha  occ. eigenvalues --   -0.59594  -0.59529  -0.59270  -0.57731  -0.56526
 Alpha  occ. eigenvalues --   -0.56078  -0.55680  -0.55442  -0.54816  -0.53589
 Alpha  occ. eigenvalues --   -0.53489  -0.53039  -0.52694  -0.51855  -0.51723
 Alpha  occ. eigenvalues --   -0.51148  -0.50581  -0.50070  -0.49854  -0.49368
 Alpha  occ. eigenvalues --   -0.49033  -0.48740  -0.48342  -0.48083  -0.48065
 Alpha  occ. eigenvalues --   -0.47546  -0.47020  -0.46567  -0.46428  -0.46193
 Alpha  occ. eigenvalues --   -0.45937  -0.45516  -0.45409  -0.45159  -0.44680
 Alpha  occ. eigenvalues --   -0.44580  -0.44217  -0.44010  -0.43900  -0.43611
 Alpha  occ. eigenvalues --   -0.42926  -0.42664  -0.42285  -0.42001  -0.41879
 Alpha  occ. eigenvalues --   -0.41724  -0.41089  -0.40962  -0.40801  -0.40419
 Alpha  occ. eigenvalues --   -0.40124  -0.39745  -0.39658  -0.39456  -0.39229
 Alpha  occ. eigenvalues --   -0.38999  -0.38930  -0.38370  -0.38258  -0.37951
 Alpha  occ. eigenvalues --   -0.37549  -0.37206  -0.36466  -0.35835  -0.35678
 Alpha  occ. eigenvalues --   -0.35391  -0.34619  -0.34046  -0.32530  -0.31942
 Alpha  occ. eigenvalues --   -0.31680  -0.30282  -0.28383  -0.25816  -0.23784
 Alpha  occ. eigenvalues --   -0.18860
 Alpha virt. eigenvalues --   -0.07170  -0.00957   0.01572   0.05779   0.06837
 Alpha virt. eigenvalues --    0.08575   0.09859   0.10554   0.11402   0.11645
 Alpha virt. eigenvalues --    0.11785   0.12046   0.12536   0.12689   0.13190

 Mulliken charges:
               1
     1  O   -0.574533
     2  O   -0.565104
     3  C   -0.035790
     4  C   -0.050379
     5  C   -0.185993
     6  C   -0.177307
     7  C    0.204082
     8  C    0.183883
     9  C    0.068321
    10  C    0.049238
    11  C   -0.213468
    12  C   -0.225589
    13  C    0.026667
    14  C    0.077228
    15  C   -0.287669
    16  C   -0.309803
    17  C   -0.261188
    18  C   -0.265252
    19  C   -0.092664
    20  C   -0.178863
    21  C   -0.343716
    22  C   -0.331718
    23  C   -0.111121
    24  C   -0.050740
    25  C    0.100451
    26  C    0.103151
    27  C   -0.393637
    28  C   -0.374812
    29  C   -0.123190
    30  C   -0.138004
    31  C   -0.079436
    32  C   -0.080955
    33  C   -0.072125
    34  C   -0.105060
    35  C    0.094612
    36  C    0.143433
    37  C   -0.349084
    38  C   -0.317609
    39  C   -0.123701
    40  C   -0.110182
    41  C   -0.053799
    42  C   -0.074831
    43  H    0.101984
    44  H    0.074228
    45  H    0.056608
    46  H    0.068674
    47  H    0.075798
    48  H    0.089057
    49  H    0.115958
    50  H    0.106038
    51  H    0.108538
    52  H    0.095802
    53  H    0.103972
    54  H    0.095483
    55  H    0.114204
    56  H    0.088436
    57  H    0.104593
    58  H    0.100353
    59  H    0.109513
    60  H    0.085529
    61  H    0.090636
    62  H    0.086058
    63  H    0.101009
    64  H    0.118525
    65  H    0.084105
    66  H    0.085734
    67  H    0.106112
    68  H    0.111613
    69  H    0.080821
    70  H    0.120732
    71  H    0.116316
    72  H    0.058330
    73  H    0.304969
    74  H    0.307312
    75  H    0.083588
    76  H    0.088133
    77  H    0.106990
    78  H    0.114846
    79  H    0.138680
    80  H    0.106277
    81  H    0.134471
    82  H    0.100961
    83  H    0.069504
    84  H    0.073298
    85  H    0.079357
    86  H    0.077594
    87  H    0.083275
    88  H    0.078481
    89  H    0.076097
    90  H    0.122317
    91  H    0.115931
    92  H    0.037664
    93  H    0.103401
    94  H    0.080141
    95  H    0.075403
    96  H    0.059988
    97  H    0.074758
    98  H    0.058056
 Sum of Mulliken charges =  -0.00000

 Dipole moment (field-independent basis, Debye):
    X=              1.4329    Y=             -0.8646    Z=              1.6774  Tot=              2.3694
 Quadrupole moment (field-independent basis, Debye-Ang):
   XX=           -275.9264   YY=           -242.7307   ZZ=           -259.5458
   XY=             -2.6918   XZ=              0.4192   YZ=              1.3721

 Normal termination of Gaussian 16 at Fri Jul 19 06:53:29 2019.
