 Gaussian 16, Revision A.03,
 Gaussian 16:  ES64L-G16RevA.03 25-Dec-2016

 -------------------------------------
 # td=(NStates=1) CAM-B3LYP/6-31G(d,p)
 -------------------------------------

 --
 TD
 --
 Symbolic Z-matrix:
 Charge =  0 Multiplicity = 1

                         Standard orientation:
 ---------------------------------------------------------------------
 Center     Atomic      Atomic             Coordinates (Angstroms)
 Number     Number       Type             X           Y           Z
 ---------------------------------------------------------------------
      1          8           0       14.687878   -2.301457   -0.201863
      2          8           0      -14.565813    1.982128    1.017704
      3          6           0       11.189469   -1.379000    1.137873
      4          6           0      -12.239765   -1.031548    0.826109
      5          6           0       12.750345   -1.645230    1.188175
      6          6           0      -13.532959   -0.186146    0.920839
      7          6           0       13.288933   -1.885011   -0.167284
      8          6           0      -13.414262    1.305681    1.047819
      9          6           0       10.888131   -0.304142    0.081461
     10          6           0      -11.143022   -0.285065   -0.065132
     11          6           0       13.202780   -0.534116   -0.921551
     12          6           0      -12.633294    1.805500   -0.112456
     13          6           0       11.784552    0.139563   -0.856609
     14          6           0      -11.355411    0.927621   -0.560050
     15          6           0       10.745041   -1.029617    2.567747
     16          6           0       10.393496   -2.681505    0.713781
     17          6           0      -11.594275   -1.157043    2.259069
     18          6           0      -12.563069   -2.470693    0.336686
     19          6           0        9.574835    0.305173    0.147066
     20          6           0      -10.006420   -1.054867   -0.297024
     21          6           0       11.551946    1.096475   -1.942669
     22          6           0      -10.482282    1.728997   -1.512542
     23          6           0        9.192855    1.599300    0.124228
     24          6           0       -8.832918   -0.560513   -0.374025
     25          6           0        7.948436    2.205954    0.186964
     26          6           0       -7.647133   -1.328364   -0.619560
     27          6           0        7.960778    3.741384    0.568967
     28          6           0       -7.640718   -2.797738   -1.107477
     29          6           0        6.828168    1.506531    0.084072
     30          6           0       -6.393808   -0.745726   -0.728787
     31          6           0        5.582978    2.061729    0.166606
     32          6           0       -5.005922   -1.199732   -0.892124
     33          6           0        4.320750    1.406988   -0.165129
     34          6           0       -3.982713   -0.338613   -0.765968
     35          6           0        3.000599    1.828884    0.077044
     36          6           0       -2.648571   -0.684687   -0.853666
     37          6           0        2.768973    3.234121    0.517381
     38          6           0       -2.295281   -2.163929   -1.193999
     39          6           0        1.967101    0.893326   -0.237657
     40          6           0       -1.637999    0.290605   -0.690767
     41          6           0        0.609712    1.137267   -0.228483
     42          6           0       -0.285718    0.010431   -0.595274
     43          1           0       13.218621   -0.824552    1.761423
     44          1           0       12.953205   -2.474328    1.980518
     45          1           0      -13.945536   -0.783932    1.953992
     46          1           0      -14.145222   -0.456596    0.027067
     47          1           0       12.566230   -2.750443   -0.471439
     48          1           0      -12.633297    1.457930    2.012794
     49          1           0       13.846086    0.129437   -0.692863
     50          1           0       13.328033   -0.967574   -1.881562
     51          1           0      -13.258303    1.525965   -1.072792
     52          1           0      -12.442827    2.879804   -0.113428
     53          1           0       10.913038   -1.830348    3.227111
     54          1           0        9.576348   -1.028509    2.544550
     55          1           0       11.297686   -0.179201    3.025286
     56          1           0       10.597954   -2.856897   -0.560174
     57          1           0       10.524896   -3.606049    1.455638
     58          1           0        9.282643   -2.591824    0.904445
     59          1           0      -11.477709   -0.163745    2.687794
     60          1           0      -10.452047   -1.500230    1.988459
     61          1           0      -11.867428   -1.981453    3.029195
     62          1           0      -13.202255   -2.927464    0.907682
     63          1           0      -11.588219   -2.955996    0.356678
     64          1           0      -12.769061   -2.526947   -0.737150
     65          1           0        8.735725   -0.170612    0.455238
     66          1           0       -9.961426   -2.129873   -0.475993
     67          1           0       10.558266    1.512655   -2.097374
     68          1           0       12.121385    2.011374   -1.914687
     69          1           0       11.661073    0.409459   -3.018560
     70          1           0      -10.999458    2.440230   -2.079123
     71          1           0       -9.976809    1.079179   -1.895873
     72          1           0       -9.869222    2.402211   -0.906837
     73          1           0       14.771896   -3.180461    0.157413
     74          1           0      -15.245563    1.654816    1.697580
     75          1           0        9.998352    2.358316   -0.003251
     76          1           0       -8.749706    0.366315    0.121833
     77          1           0        8.895342    4.008177    0.274937
     78          1           0        6.978628    4.183385    0.177824
     79          1           0        7.876092    3.610568    1.743839
     80          1           0       -7.774945   -3.404083   -0.050815
     81          1           0       -8.553964   -3.000157   -1.832986
     82          1           0       -6.756540   -3.230996   -1.585860
     83          1           0        6.852350    0.460305   -0.400308
     84          1           0       -6.218345    0.250445   -0.258017
     85          1           0        5.485776    2.950302    0.395276
     86          1           0       -4.795792   -2.259881   -1.073043
     87          1           0        4.262935    0.336712   -0.508255
     88          1           0       -4.131745    0.620570   -0.459146
     89          1           0        3.593813    3.582546    1.371147
     90          1           0        1.745547    3.303722    1.038068
     91          1           0        2.989064    3.882838   -0.413389
     92          1           0       -2.545101   -2.998170   -0.498005
     93          1           0       -2.572319   -2.472179   -2.218692
     94          1           0       -1.103534   -2.286853   -1.346298
     95          1           0        2.144083   -0.379524   -0.219540
     96          1           0       -2.163176    1.324347   -0.520739
     97          1           0        0.146101    2.201957   -0.105424
     98          1           0        0.015813   -1.043518   -0.792831
 ---------------------------------------------------------------------

 SCF Done:  E(RCAM-B3LYP) =  -1706.86334360     A.U. after   17 cycles

 Excitation energies and oscillator strengths:

 Excited State   1:      Singlet-A      1.8542 eV  668.67 nm  f=3.5667  <S**2>=0.000
     155 ->158        -0.12350
     156 ->157         0.70403
     156 <-157        -0.12700
 This state for optimization and/or second-order correction.
 Total Energy, E(TD-HF/TD-DFT) =  -1706.79520383
 Copying the excited state density for this state as the 1-particle RhoCI density.

 The electronic state is 1-A.
 Alpha  occ. eigenvalues --  -19.22654 -19.20834 -10.31271 -10.30969 -10.28434
 Alpha  occ. eigenvalues --  -10.28279 -10.28135 -10.28082 -10.27964 -10.27786
 Alpha  occ. eigenvalues --  -10.27645 -10.27629 -10.27541 -10.27428 -10.27335
 Alpha  occ. eigenvalues --  -10.27313 -10.27056 -10.27026 -10.26890 -10.26685
 Alpha  occ. eigenvalues --  -10.26510 -10.26351 -10.26286 -10.26191 -10.26117
 Alpha  occ. eigenvalues --  -10.26031 -10.25812 -10.25698 -10.25642 -10.25223
 Alpha  occ. eigenvalues --  -10.25152 -10.25056 -10.24891 -10.24853 -10.24734
 Alpha  occ. eigenvalues --  -10.24716 -10.24665 -10.24211 -10.24068 -10.23964
 Alpha  occ. eigenvalues --  -10.23362 -10.22740  -1.12162  -1.08162  -0.93812
 Alpha  occ. eigenvalues --   -0.93574  -0.92153  -0.91902  -0.90471  -0.89892
 Alpha  occ. eigenvalues --   -0.87370  -0.86766  -0.86532  -0.85920  -0.84852
 Alpha  occ. eigenvalues --   -0.83242  -0.82060  -0.80823  -0.80021  -0.77709
 Alpha  occ. eigenvalues --   -0.76871  -0.76499  -0.76038  -0.75824  -0.75529
 Alpha  occ. eigenvalues --   -0.75349  -0.74474  -0.74204  -0.72828  -0.71366
 Alpha  occ. eigenvalues --   -0.68728  -0.67600  -0.65777  -0.65266  -0.64285
 Alpha  occ. eigenvalues --   -0.63817  -0.62332  -0.61418  -0.60656  -0.60242
 Alpha  occ. eigenvalues --   -0.59769  -0.59166  -0.58311  -0.57839  -0.56047
 Alpha  occ. eigenvalues --   -0.55582  -0.55328  -0.54869  -0.54020  -0.53536
 Alpha  occ. eigenvalues --   -0.53209  -0.52964  -0.52294  -0.51837  -0.51417
 Alpha  occ. eigenvalues --   -0.50588  -0.50356  -0.49669  -0.49276  -0.49035
 Alpha  occ. eigenvalues --   -0.48691  -0.48504  -0.48330  -0.48266  -0.48133
 Alpha  occ. eigenvalues --   -0.47718  -0.47511  -0.47197  -0.46926  -0.46745
 Alpha  occ. eigenvalues --   -0.46137  -0.45811  -0.45775  -0.45774  -0.45198
 Alpha  occ. eigenvalues --   -0.44371  -0.44302  -0.44136  -0.43471  -0.42567
 Alpha  occ. eigenvalues --   -0.42361  -0.42254  -0.41837  -0.41758  -0.41709
 Alpha  occ. eigenvalues --   -0.41190  -0.40792  -0.40731  -0.40344  -0.40254
 Alpha  occ. eigenvalues --   -0.40110  -0.39904  -0.39737  -0.39446  -0.39128
 Alpha  occ. eigenvalues --   -0.38595  -0.38507  -0.38310  -0.38059  -0.37836
 Alpha  occ. eigenvalues --   -0.37564  -0.36801  -0.36636  -0.36286  -0.35806
 Alpha  occ. eigenvalues --   -0.35687  -0.34565  -0.33849  -0.32651  -0.31871
 Alpha  occ. eigenvalues --   -0.31732  -0.30145  -0.28559  -0.26093  -0.23443
 Alpha  occ. eigenvalues --   -0.18032
 Alpha virt. eigenvalues --   -0.06891  -0.00647   0.02521   0.06020   0.08220
 Alpha virt. eigenvalues --    0.09704   0.10905   0.11249   0.11632   0.12027
 Alpha virt. eigenvalues --    0.12117   0.12188   0.13181   0.13391   0.13626

 Mulliken charges:
               1
     1  O   -0.571345
     2  O   -0.536731
     3  C   -0.017897
     4  C   -0.018414
     5  C   -0.176979
     6  C   -0.190545
     7  C    0.153128
     8  C    0.224905
     9  C    0.097192
    10  C    0.073081
    11  C   -0.183005
    12  C   -0.216466
    13  C    0.024516
    14  C   -0.006651
    15  C   -0.303909
    16  C   -0.295691
    17  C   -0.306380
    18  C   -0.294585
    19  C   -0.107434
    20  C   -0.115219
    21  C   -0.355109
    22  C   -0.320425
    23  C   -0.105674
    24  C   -0.085562
    25  C    0.074562
    26  C    0.077438
    27  C   -0.338704
    28  C   -0.359600
    29  C   -0.106153
    30  C   -0.138513
    31  C   -0.062168
    32  C   -0.085673
    33  C   -0.126493
    34  C   -0.089276
    35  C    0.107278
    36  C    0.112084
    37  C   -0.366508
    38  C   -0.383324
    39  C   -0.122115
    40  C   -0.114289
    41  C   -0.090190
    42  C   -0.100593
    43  H    0.093575
    44  H    0.061360
    45  H    0.050607
    46  H    0.093132
    47  H    0.076348
    48  H    0.027024
    49  H    0.126215
    50  H    0.119585
    51  H    0.100418
    52  H    0.110527
    53  H    0.110662
    54  H    0.090204
    55  H    0.109103
    56  H    0.083558
    57  H    0.089974
    58  H    0.104796
    59  H    0.111034
    60  H    0.076792
    61  H    0.095037
    62  H    0.110785
    63  H    0.100608
    64  H    0.101871
    65  H    0.072483
    66  H    0.085136
    67  H    0.126223
    68  H    0.122656
    69  H    0.077089
    70  H    0.112067
    71  H    0.121235
    72  H    0.114672
    73  H    0.303874
    74  H    0.314613
    75  H    0.052076
    76  H    0.092642
    77  H    0.121040
    78  H    0.117832
    79  H    0.121649
    80  H    0.094257
    81  H    0.102186
    82  H    0.123931
    83  H    0.084107
    84  H    0.061513
    85  H    0.035351
    86  H    0.081883
    87  H    0.069277
    88  H    0.074448
    89  H    0.100419
    90  H    0.111422
    91  H    0.129032
    92  H    0.125393
    93  H    0.128924
    94  H    0.074574
    95  H    0.076926
    96  H    0.079099
    97  H    0.096392
    98  H    0.099803
 Sum of Mulliken charges =  -0.00000

 Dipole moment (field-independent basis, Debye):
    X=             -0.8069    Y=             -1.2298    Z=              1.6254  Tot=              2.1921
 Quadrupole moment (field-independent basis, Debye-Ang):
   XX=           -270.4718   YY=           -242.1082   ZZ=           -261.8916
   XY=              5.6491   XZ=             -0.0640   YZ=              0.1320

 Normal termination of Gaussian 16 at Tue Jul 16 15:04:24 2019.
