 Gaussian 16, Revision A.03,
 Gaussian 16:  ES64L-G16RevA.03 25-Dec-2016

 -------------------------------------
 # td=(NStates=1) CAM-B3LYP/6-31G(d,p)
 -------------------------------------

 --
 TD
 --
 Symbolic Z-matrix:
 Charge =  0 Multiplicity = 1

                         Standard orientation:
 ---------------------------------------------------------------------
 Center     Atomic      Atomic             Coordinates (Angstroms)
 Number     Number       Type             X           Y           Z
 ---------------------------------------------------------------------
      1          8           0       14.671657   -2.382510   -0.160722
      2          8           0      -14.580014    1.834476    1.233084
      3          6           0       11.029467   -1.470379    1.023243
      4          6           0      -12.312198   -1.059709    0.682453
      5          6           0       12.608092   -1.877005    1.116455
      6          6           0      -13.597946   -0.324342    0.739669
      7          6           0       13.290958   -1.971799   -0.272884
      8          6           0      -13.331266    1.242942    1.063714
      9          6           0       10.965343   -0.314725    0.093915
     10          6           0      -11.188196   -0.201453   -0.159224
     11          6           0       13.255370   -0.565703   -0.837161
     12          6           0      -12.700134    1.858886   -0.112264
     13          6           0       11.891919    0.036717   -0.788767
     14          6           0      -11.481065    1.064711   -0.620078
     15          6           0       10.584031   -0.988092    2.445601
     16          6           0       10.211552   -2.578750    0.523011
     17          6           0      -11.705074   -1.378133    1.937622
     18          6           0      -12.561156   -2.317474   -0.097459
     19          6           0        9.634472    0.421004    0.125941
     20          6           0      -10.005067   -0.977280   -0.600671
     21          6           0       11.778653    1.207494   -1.768174
     22          6           0      -10.665249    1.862095   -1.398923
     23          6           0        9.306980    1.706315    0.010561
     24          6           0       -8.759447   -0.509861   -0.353405
     25          6           0        8.046478    2.332112    0.104657
     26          6           0       -7.598111   -1.251863   -0.643658
     27          6           0        7.832724    3.833757    0.266213
     28          6           0       -7.628528   -2.705291   -1.136027
     29          6           0        6.844246    1.588074   -0.039573
     30          6           0       -6.365119   -0.620874   -0.506315
     31          6           0        5.501101    1.938858    0.215042
     32          6           0       -5.134984   -1.081865   -0.650726
     33          6           0        4.375999    1.252528   -0.044047
     34          6           0       -3.896138   -0.313030   -0.416030
     35          6           0        3.140496    1.730554    0.133439
     36          6           0       -2.622746   -0.762594   -0.634470
     37          6           0        2.842526    3.154196    0.486327
     38          6           0       -2.286322   -2.220611   -1.030345
     39          6           0        2.101289    0.796376   -0.108622
     40          6           0       -1.575570    0.195863   -0.311830
     41          6           0        0.714417    1.033252   -0.009561
     42          6           0       -0.230564    0.017502   -0.312582
     43          1           0       13.253193   -1.246794    1.810050
     44          1           0       12.523817   -2.696816    1.817837
     45          1           0      -14.033432   -0.807355    1.668627
     46          1           0      -14.491108   -0.282536   -0.001971
     47          1           0       12.841405   -2.625588   -0.765169
     48          1           0      -12.565730    1.259852    2.004249
     49          1           0       13.922074    0.008999   -0.386998
     50          1           0       13.555653   -0.850661   -1.824231
     51          1           0      -13.645250    1.651126   -0.945509
     52          1           0      -12.247578    2.848977   -0.028213
     53          1           0       10.871811   -1.887129    2.995919
     54          1           0        9.329265   -1.120788    2.481693
     55          1           0       10.894739   -0.006418    2.833427
     56          1           0       10.493115   -2.684099   -0.461020
     57          1           0       10.400993   -3.508770    1.072354
     58          1           0        9.156259   -2.330043    0.429117
     59          1           0      -11.286981   -0.519800    2.563176
     60          1           0      -10.707722   -2.160781    1.996787
     61          1           0      -12.156108   -2.142971    2.512282
     62          1           0      -13.214614   -2.916434    0.457955
     63          1           0      -11.586446   -2.922114   -0.465166
     64          1           0      -13.151189   -2.215372   -1.090993
     65          1           0        8.790159   -0.131902    0.181025
     66          1           0      -10.368919   -1.995314   -0.706268
     67          1           0       10.694357    1.532906   -2.075002
     68          1           0       12.253543    2.234940   -1.544668
     69          1           0       12.323988    0.779757   -2.620829
     70          1           0      -11.245721    2.479975   -2.110524
     71          1           0       -9.807841    1.238659   -1.937789
     72          1           0      -10.001477    2.509246   -0.757744
     73          1           0       14.640096   -3.301028    0.289972
     74          1           0      -14.942550    1.406375    2.034229
     75          1           0       10.210729    2.289695   -0.168738
     76          1           0       -8.520630    0.442870    0.048623
     77          1           0        8.906578    4.255160    0.532166
     78          1           0        7.489248    4.317054   -0.792552
     79          1           0        7.179154    3.974118    1.087961
     80          1           0       -8.028499   -3.473855   -0.515050
     81          1           0       -8.444226   -2.833895   -1.843286
     82          1           0       -6.621821   -2.787573   -1.277146
     83          1           0        6.967247    0.511649   -0.301505
     84          1           0       -6.491031    0.298087    0.015428
     85          1           0        5.586302    3.040784    0.442313
     86          1           0       -4.935870   -2.066474   -1.037436
     87          1           0        4.552819    0.409317   -0.407690
     88          1           0       -3.851873    0.686954    0.094693
     89          1           0        3.409427    3.411422    1.453420
     90          1           0        1.708020    3.404031    0.669565
     91          1           0        3.079342    3.849154   -0.322970
     92          1           0       -2.353689   -2.905429    0.019258
     93          1           0       -2.894016   -2.602932   -1.984760
     94          1           0       -1.228272   -2.195845   -1.427924
     95          1           0        2.588227   -0.064270   -0.563274
     96          1           0       -1.830637    1.329546   -0.078726
     97          1           0        0.374581    1.898630    0.290123
     98          1           0        0.056540   -1.096447   -0.628414
 ---------------------------------------------------------------------

 SCF Done:  E(RCAM-B3LYP) =  -1706.88523986     A.U. after   18 cycles

 Excitation energies and oscillator strengths:

 Excited State   1:      Singlet-A      1.6877 eV  734.64 nm  f=3.8553  <S**2>=0.000
     155 ->158         0.12178
     156 ->157         0.70977
     156 <-157        -0.15226
 This state for optimization and/or second-order correction.
 Total Energy, E(TD-HF/TD-DFT) =  -1706.82321867
 Copying the excited state density for this state as the 1-particle RhoCI density.

 The electronic state is 1-A.
 Alpha  occ. eigenvalues --  -19.21926 -19.21422 -10.31438 -10.29090 -10.28983
 Alpha  occ. eigenvalues --  -10.27945 -10.27645 -10.27379 -10.27302 -10.27142
 Alpha  occ. eigenvalues --  -10.27051 -10.26957 -10.26683 -10.26664 -10.26627
 Alpha  occ. eigenvalues --  -10.26522 -10.26288 -10.26277 -10.26242 -10.26239
 Alpha  occ. eigenvalues --  -10.26096 -10.26085 -10.26003 -10.25987 -10.25862
 Alpha  occ. eigenvalues --  -10.25825 -10.25609 -10.25547 -10.25541 -10.25448
 Alpha  occ. eigenvalues --  -10.25423 -10.25364 -10.25347 -10.25262 -10.25000
 Alpha  occ. eigenvalues --  -10.24858 -10.24694 -10.24551 -10.24121 -10.24099
 Alpha  occ. eigenvalues --  -10.23838 -10.23700  -1.10844  -1.07935  -0.94109
 Alpha  occ. eigenvalues --   -0.93918  -0.92972  -0.92006  -0.90651  -0.90075
 Alpha  occ. eigenvalues --   -0.88943  -0.87757  -0.87328  -0.85628  -0.84734
 Alpha  occ. eigenvalues --   -0.82886  -0.81917  -0.80412  -0.80025  -0.78096
 Alpha  occ. eigenvalues --   -0.77218  -0.76909  -0.76507  -0.76378  -0.75842
 Alpha  occ. eigenvalues --   -0.75489  -0.75201  -0.75042  -0.72499  -0.71076
 Alpha  occ. eigenvalues --   -0.69373  -0.67493  -0.66652  -0.64838  -0.64220
 Alpha  occ. eigenvalues --   -0.63534  -0.63123  -0.61775  -0.61649  -0.60565
 Alpha  occ. eigenvalues --   -0.59505  -0.59197  -0.58643  -0.57333  -0.56294
 Alpha  occ. eigenvalues --   -0.56055  -0.55716  -0.55045  -0.54657  -0.54424
 Alpha  occ. eigenvalues --   -0.53241  -0.52858  -0.52335  -0.52106  -0.51383
 Alpha  occ. eigenvalues --   -0.51093  -0.50440  -0.50159  -0.49939  -0.49609
 Alpha  occ. eigenvalues --   -0.49393  -0.49008  -0.48720  -0.48677  -0.48424
 Alpha  occ. eigenvalues --   -0.47885  -0.47733  -0.47204  -0.46890  -0.46675
 Alpha  occ. eigenvalues --   -0.45753  -0.45569  -0.45279  -0.45027  -0.44930
 Alpha  occ. eigenvalues --   -0.44659  -0.44589  -0.44044  -0.43748  -0.43516
 Alpha  occ. eigenvalues --   -0.43058  -0.42751  -0.42651  -0.42043  -0.41695
 Alpha  occ. eigenvalues --   -0.41252  -0.41072  -0.40995  -0.40775  -0.40365
 Alpha  occ. eigenvalues --   -0.40321  -0.39935  -0.39655  -0.39474  -0.39339
 Alpha  occ. eigenvalues --   -0.39081  -0.38881  -0.38599  -0.38210  -0.38038
 Alpha  occ. eigenvalues --   -0.37134  -0.36928  -0.36710  -0.36498  -0.35639
 Alpha  occ. eigenvalues --   -0.35248  -0.34886  -0.33734  -0.32313  -0.31792
 Alpha  occ. eigenvalues --   -0.31068  -0.29874  -0.28187  -0.26278  -0.22951
 Alpha  occ. eigenvalues --   -0.17339
 Alpha virt. eigenvalues --   -0.07545  -0.01197   0.03059   0.06356   0.08137
 Alpha virt. eigenvalues --    0.09911   0.11536   0.11778   0.12027   0.12335
 Alpha virt. eigenvalues --    0.12857   0.12988   0.13236   0.13295   0.13698

 Mulliken charges:
               1
     1  O   -0.578021
     2  O   -0.538731
     3  C   -0.033325
     4  C    0.019931
     5  C   -0.227107
     6  C   -0.206309
     7  C    0.183607
     8  C    0.155603
     9  C    0.084591
    10  C    0.013832
    11  C   -0.202254
    12  C   -0.185369
    13  C    0.022308
    14  C    0.096339
    15  C   -0.286629
    16  C   -0.295795
    17  C   -0.295767
    18  C   -0.307266
    19  C   -0.089410
    20  C   -0.121200
    21  C   -0.360419
    22  C   -0.397607
    23  C   -0.112550
    24  C   -0.076226
    25  C    0.068889
    26  C    0.097823
    27  C   -0.361223
    28  C   -0.350917
    29  C   -0.120206
    30  C   -0.103551
    31  C   -0.099388
    32  C   -0.124999
    33  C   -0.062511
    34  C   -0.116098
    35  C    0.131480
    36  C    0.103231
    37  C   -0.373615
    38  C   -0.354565
    39  C   -0.118045
    40  C   -0.126286
    41  C   -0.088944
    42  C   -0.070288
    43  H    0.096235
    44  H    0.070986
    45  H    0.074329
    46  H    0.111988
    47  H    0.087820
    48  H    0.056648
    49  H    0.135621
    50  H    0.112061
    51  H    0.087327
    52  H    0.112653
    53  H    0.097136
    54  H    0.067780
    55  H    0.122991
    56  H    0.114717
    57  H    0.100224
    58  H    0.112319
    59  H    0.111676
    60  H    0.071547
    61  H    0.107913
    62  H    0.105721
    63  H    0.084610
    64  H    0.101357
    65  H    0.063636
    66  H    0.066841
    67  H    0.111947
    68  H    0.108495
    69  H    0.102064
    70  H    0.113057
    71  H    0.104364
    72  H    0.114223
    73  H    0.306265
    74  H    0.307980
    75  H    0.075819
    76  H    0.086368
    77  H    0.093917
    78  H    0.115150
    79  H    0.139886
    80  H    0.119587
    81  H    0.117534
    82  H    0.106086
    83  H    0.059630
    84  H    0.073549
    85  H    0.063153
    86  H    0.091763
    87  H    0.056854
    88  H    0.082916
    89  H    0.114392
    90  H    0.096006
    91  H    0.132040
    92  H    0.114569
    93  H    0.114080
    94  H    0.111942
    95  H    0.080906
    96  H    0.073289
    97  H    0.074713
    98  H    0.070308
 Sum of Mulliken charges =  -0.00000

 Dipole moment (field-independent basis, Debye):
    X=             -0.9416    Y=             -2.2461    Z=              1.4997  Tot=              2.8603
 Quadrupole moment (field-independent basis, Debye-Ang):
   XX=           -276.6892   YY=           -242.8320   ZZ=           -261.3820
   XY=             10.2960   XZ=            -12.4718   YZ=              0.7969

 Normal termination of Gaussian 16 at Sat Jul 20 07:39:14 2019.
