 Gaussian 16, Revision A.03,
 Gaussian 16:  ES64L-G16RevA.03 25-Dec-2016

 -------------------------------------
 # td=(NStates=1) CAM-B3LYP/6-31G(d,p)
 -------------------------------------

 --
 TD
 --
 Symbolic Z-matrix:
 Charge =  0 Multiplicity = 1

                         Standard orientation:
 ---------------------------------------------------------------------
 Center     Atomic      Atomic             Coordinates (Angstroms)
 Number     Number       Type             X           Y           Z
 ---------------------------------------------------------------------
      1          8           0       14.747883   -2.221032   -0.200583
      2          8           0      -14.818510    1.987207    0.985324
      3          6           0       11.191942   -1.433050    0.939581
      4          6           0      -12.317484   -1.031031    0.775595
      5          6           0       12.711310   -1.759493    1.035283
      6          6           0      -13.634245   -0.204275    0.710524
      7          6           0       13.305184   -1.832757   -0.347910
      8          6           0      -13.486160    1.267244    0.917085
      9          6           0       10.946507   -0.180500    0.015800
     10          6           0      -11.337843   -0.218304   -0.101161
     11          6           0       13.195469   -0.492140   -1.061832
     12          6           0      -12.717087    1.864219   -0.206709
     13          6           0       11.862888    0.066054   -1.002416
     14          6           0      -11.561972    1.020939   -0.567973
     15          6           0       10.870084   -1.035202    2.497568
     16          6           0       10.358245   -2.738581    0.650086
     17          6           0      -11.813322   -1.167490    2.120908
     18          6           0      -12.644154   -2.401199    0.091797
     19          6           0        9.623846    0.390360    0.136903
     20          6           0      -10.061111   -0.930781   -0.423185
     21          6           0       11.645744    1.262697   -1.844937
     22          6           0      -10.618065    1.614699   -1.665468
     23          6           0        9.417300    1.738427    0.136745
     24          6           0       -8.833377   -0.472163   -0.370243
     25          6           0        8.040802    2.279314    0.268990
     26          6           0       -7.586271   -1.238686   -0.508365
     27          6           0        8.001883    3.710343    0.641178
     28          6           0       -7.674226   -2.677068   -0.808859
     29          6           0        6.938070    1.546903    0.093463
     30          6           0       -6.388057   -0.561740   -0.327816
     31          6           0        5.604279    1.983715    0.255442
     32          6           0       -5.116761   -1.178266   -0.567429
     33          6           0        4.485044    1.165468    0.027628
     34          6           0       -4.030974   -0.413706   -0.391518
     35          6           0        3.172366    1.551141    0.063134
     36          6           0       -2.562023   -0.790858   -0.758905
     37          6           0        2.811642    3.058609    0.484093
     38          6           0       -2.328861   -2.161470   -1.136452
     39          6           0        2.146958    0.626403   -0.217280
     40          6           0       -1.527795    0.222738   -0.443839
     41          6           0        0.805305    0.876761   -0.253296
     42          6           0       -0.250905   -0.006547   -0.570089
     43          1           0       13.191969   -0.834716    1.790757
     44          1           0       12.763814   -2.660573    1.626937
     45          1           0      -14.410734   -0.699498    1.275869
     46          1           0      -14.126632   -0.585322   -0.248604
     47          1           0       12.879999   -2.546928   -0.939597
     48          1           0      -12.872915    1.772327    1.859539
     49          1           0       14.048559    0.051526   -0.728130
     50          1           0       13.285630   -0.675393   -2.091941
     51          1           0      -13.328802    2.024751   -1.168955
     52          1           0      -12.594853    2.866766    0.163721
     53          1           0       11.276406   -1.908502    2.938016
     54          1           0        9.790148   -0.777887    2.605284
     55          1           0       11.419296   -0.129512    2.915304
     56          1           0       10.516635   -3.301536   -0.354578
     57          1           0       10.875385   -3.316447    1.554635
     58          1           0        9.317384   -2.779229    0.941139
     59          1           0      -11.540602    0.030427    2.573865
     60          1           0      -10.905913   -1.481075    2.080741
     61          1           0      -12.329608   -1.875293    2.767856
     62          1           0      -13.594117   -2.645534    0.488905
     63          1           0      -11.906690   -3.234324    0.234871
     64          1           0      -12.800861   -2.499838   -0.996725
     65          1           0        8.823644   -0.108896    0.350659
     66          1           0      -10.163466   -2.046845   -0.528966
     67          1           0       10.707865    1.891214   -1.871527
     68          1           0       12.298820    2.219000   -1.676057
     69          1           0       11.678995    1.193344   -2.967871
     70          1           0      -11.124940    2.038844   -2.599752
     71          1           0       -9.651961    0.937774   -1.675002
     72          1           0      -10.161989    2.651806   -1.252918
     73          1           0       14.653452   -3.182368    0.139304
     74          1           0      -15.458678    1.299130    1.569293
     75          1           0       10.433647    2.275166    0.368818
     76          1           0       -8.524017    0.481672    0.008546
     77          1           0        8.950841    4.204227    0.838466
     78          1           0        7.441248    4.385737   -0.134543
     79          1           0        7.404066    3.779926    1.617890
     80          1           0       -8.269993   -3.095831   -0.017092
     81          1           0       -8.180724   -3.113401   -1.898953
     82          1           0       -6.846235   -3.363120   -0.985481
     83          1           0        6.917501    0.466767   -0.226949
     84          1           0       -6.431678    0.479578   -0.118916
     85          1           0        5.476103    3.004799    0.672201
     86          1           0       -5.138301   -2.307467   -0.595884
     87          1           0        4.887813    0.125220   -0.333861
     88          1           0       -4.005014    0.655008   -0.221154
     89          1           0        3.271847    3.133232    1.319342
     90          1           0        1.846934    3.362582    0.784221
     91          1           0        3.145559    3.725055   -0.403840
     92          1           0       -2.870068   -2.875430   -0.469337
     93          1           0       -2.859941   -2.157717   -2.059779
     94          1           0       -1.353840   -2.424529   -1.295231
     95          1           0        2.528299   -0.323214   -0.591293
     96          1           0       -2.158434    1.052147    0.217764
     97          1           0        0.330155    1.796387   -0.377012
     98          1           0        0.148948   -1.007767   -0.868658
 ---------------------------------------------------------------------

 SCF Done:  E(RCAM-B3LYP) =  -1706.88606774     A.U. after   16 cycles

 Excitation energies and oscillator strengths:

 Excited State   1:      Singlet-A      2.0285 eV  611.20 nm  f=3.5572  <S**2>=0.000
     155 ->158        -0.13297
     156 ->157         0.69802
     156 <-157        -0.11011
 This state for optimization and/or second-order correction.
 Total Energy, E(TD-HF/TD-DFT) =  -1706.81152049
 Copying the excited state density for this state as the 1-particle RhoCI density.

 The electronic state is 1-A.
 Alpha  occ. eigenvalues --  -19.21572 -19.20795 -10.31588 -10.29719 -10.28783
 Alpha  occ. eigenvalues --  -10.28368 -10.27970 -10.27695 -10.27678 -10.27453
 Alpha  occ. eigenvalues --  -10.27254 -10.27078 -10.27058 -10.27025 -10.26975
 Alpha  occ. eigenvalues --  -10.26932 -10.26868 -10.26720 -10.26627 -10.26507
 Alpha  occ. eigenvalues --  -10.26477 -10.26336 -10.26320 -10.26310 -10.26301
 Alpha  occ. eigenvalues --  -10.26176 -10.26029 -10.25982 -10.25961 -10.25808
 Alpha  occ. eigenvalues --  -10.25709 -10.25586 -10.25579 -10.25261 -10.25194
 Alpha  occ. eigenvalues --  -10.25071 -10.24911 -10.24762 -10.24743 -10.24717
 Alpha  occ. eigenvalues --  -10.24411 -10.24386  -1.06044  -1.04436  -0.94340
 Alpha  occ. eigenvalues --   -0.93364  -0.92213  -0.91829  -0.91103  -0.89954
 Alpha  occ. eigenvalues --   -0.87959  -0.87505  -0.87190  -0.86153  -0.85348
 Alpha  occ. eigenvalues --   -0.83388  -0.82337  -0.80219  -0.79758  -0.79436
 Alpha  occ. eigenvalues --   -0.77969  -0.76907  -0.76692  -0.76308  -0.75618
 Alpha  occ. eigenvalues --   -0.75397  -0.75038  -0.74677  -0.73286  -0.70716
 Alpha  occ. eigenvalues --   -0.68574  -0.67035  -0.65645  -0.64862  -0.64519
 Alpha  occ. eigenvalues --   -0.63627  -0.62886  -0.61321  -0.60786  -0.60540
 Alpha  occ. eigenvalues --   -0.59730  -0.59131  -0.58164  -0.57130  -0.56489
 Alpha  occ. eigenvalues --   -0.56192  -0.55017  -0.54809  -0.54216  -0.53690
 Alpha  occ. eigenvalues --   -0.53048  -0.52353  -0.51986  -0.51914  -0.50996
 Alpha  occ. eigenvalues --   -0.50808  -0.50049  -0.49927  -0.49721  -0.49678
 Alpha  occ. eigenvalues --   -0.49134  -0.48918  -0.48592  -0.48257  -0.47926
 Alpha  occ. eigenvalues --   -0.47870  -0.47556  -0.47217  -0.47031  -0.46487
 Alpha  occ. eigenvalues --   -0.46308  -0.45991  -0.45756  -0.45385  -0.45316
 Alpha  occ. eigenvalues --   -0.44747  -0.44155  -0.43627  -0.43600  -0.43247
 Alpha  occ. eigenvalues --   -0.43006  -0.42672  -0.42509  -0.41999  -0.41959
 Alpha  occ. eigenvalues --   -0.41859  -0.41497  -0.41329  -0.40810  -0.39945
 Alpha  occ. eigenvalues --   -0.39916  -0.39832  -0.39663  -0.39171  -0.38932
 Alpha  occ. eigenvalues --   -0.38784  -0.38512  -0.38367  -0.38192  -0.38044
 Alpha  occ. eigenvalues --   -0.37616  -0.37258  -0.36624  -0.36200  -0.35598
 Alpha  occ. eigenvalues --   -0.35575  -0.34850  -0.34209  -0.32234  -0.31629
 Alpha  occ. eigenvalues --   -0.31576  -0.29714  -0.28339  -0.25866  -0.23995
 Alpha  occ. eigenvalues --   -0.18654
 Alpha virt. eigenvalues --   -0.06412  -0.00872   0.01874   0.05257   0.07448
 Alpha virt. eigenvalues --    0.08876   0.10100   0.10986   0.11231   0.11475
 Alpha virt. eigenvalues --    0.11638   0.11654   0.12147   0.12762   0.13312

 Mulliken charges:
               1
     1  O   -0.578862
     2  O   -0.584207
     3  C   -0.056986
     4  C    0.005974
     5  C   -0.164497
     6  C   -0.220327
     7  C    0.143513
     8  C    0.173970
     9  C    0.052110
    10  C    0.063633
    11  C   -0.208147
    12  C   -0.207303
    13  C    0.066590
    14  C    0.063006
    15  C   -0.301741
    16  C   -0.287384
    17  C   -0.265092
    18  C   -0.339560
    19  C   -0.062905
    20  C   -0.151796
    21  C   -0.389585
    22  C   -0.355716
    23  C   -0.132017
    24  C   -0.093489
    25  C    0.086064
    26  C    0.119064
    27  C   -0.379274
    28  C   -0.380795
    29  C   -0.110083
    30  C   -0.130782
    31  C   -0.087941
    32  C   -0.084887
    33  C   -0.124795
    34  C   -0.112755
    35  C    0.076422
    36  C    0.058671
    37  C   -0.352238
    38  C   -0.361319
    39  C   -0.123426
    40  C   -0.111876
    41  C   -0.085333
    42  C   -0.102914
    43  H    0.077538
    44  H    0.081100
    45  H    0.075540
    46  H    0.106383
    47  H    0.096842
    48  H    0.079879
    49  H    0.137563
    50  H    0.115609
    51  H    0.108210
    52  H    0.118846
    53  H    0.101649
    54  H    0.101124
    55  H    0.101474
    56  H    0.102331
    57  H    0.076671
    58  H    0.117422
    59  H    0.066215
    60  H    0.119960
    61  H    0.099979
    62  H    0.107268
    63  H    0.098875
    64  H    0.118881
    65  H    0.077389
    66  H    0.081980
    67  H    0.123591
    68  H    0.097304
    69  H    0.095074
    70  H    0.111955
    71  H    0.118853
    72  H    0.076066
    73  H    0.302485
    74  H    0.298632
    75  H    0.103720
    76  H    0.097405
    77  H    0.116677
    78  H    0.112083
    79  H    0.114729
    80  H    0.126977
    81  H    0.080975
    82  H    0.116424
    83  H    0.078680
    84  H    0.086595
    85  H    0.083065
    86  H    0.097012
    87  H    0.076962
    88  H    0.084840
    89  H    0.133773
    90  H    0.114447
    91  H    0.114331
    92  H    0.123881
    93  H    0.136099
    94  H    0.116421
    95  H    0.079493
    96  H    0.084305
    97  H    0.089208
    98  H    0.078222
 Sum of Mulliken charges =  -0.00000

 Dipole moment (field-independent basis, Debye):
    X=             -1.3094    Y=             -3.1839    Z=              1.0408  Tot=              3.5965
 Quadrupole moment (field-independent basis, Debye-Ang):
   XX=           -307.3301   YY=           -241.0012   ZZ=           -263.5692
   XY=             28.0679   XZ=             -1.4844   YZ=              2.3397

 Normal termination of Gaussian 16 at Fri Jul 12 11:22:10 2019.
