 Gaussian 16, Revision A.03,
 Gaussian 16:  ES64L-G16RevA.03 25-Dec-2016

 -------------------------------------
 # td=(NStates=1) CAM-B3LYP/6-31G(d,p)
 -------------------------------------

 --
 TD
 --
 Symbolic Z-matrix:
 Charge =  0 Multiplicity = 1

                         Standard orientation:
 ---------------------------------------------------------------------
 Center     Atomic      Atomic             Coordinates (Angstroms)
 Number     Number       Type             X           Y           Z
 ---------------------------------------------------------------------
      1          8           0       14.769154   -2.144427   -0.143701
      2          8           0      -14.548801    2.125235    1.015383
      3          6           0       11.179371   -1.245516    1.056588
      4          6           0      -12.425425   -0.900922    0.503404
      5          6           0       12.778148   -1.675131    1.163941
      6          6           0      -13.671985   -0.141195    0.608539
      7          6           0       13.399136   -1.792057   -0.244507
      8          6           0      -13.436662    1.246483    0.911941
      9          6           0       10.957992   -0.297256   -0.016817
     10          6           0      -11.260102   -0.142343   -0.162254
     11          6           0       13.279126   -0.425541   -1.002775
     12          6           0      -12.592150    1.943777   -0.169512
     13          6           0       11.872275    0.098265   -1.051259
     14          6           0      -11.371298    1.066237   -0.587857
     15          6           0       10.700099   -0.791572    2.410251
     16          6           0       10.437755   -2.563783    0.721849
     17          6           0      -12.053967   -1.255990    1.961752
     18          6           0      -12.700130   -2.191086   -0.319864
     19          6           0        9.621007    0.360796    0.054048
     20          6           0      -10.000720   -1.001189   -0.325571
     21          6           0       11.590537    1.195478   -1.976206
     22          6           0      -10.408537    1.892025   -1.368539
     23          6           0        9.361742    1.633215   -0.060371
     24          6           0       -8.718384   -0.548090   -0.417162
     25          6           0        7.982715    2.192549    0.095157
     26          6           0       -7.589542   -1.365505   -0.508166
     27          6           0        7.820816    3.720738    0.405346
     28          6           0       -7.855561   -2.701460   -0.952505
     29          6           0        6.901776    1.438917   -0.164105
     30          6           0       -6.384310   -0.735371   -0.308671
     31          6           0        5.551619    1.955557    0.057898
     32          6           0       -5.017027   -1.220722   -0.557278
     33          6           0        4.445107    1.234294   -0.169768
     34          6           0       -3.893005   -0.581123   -0.239556
     35          6           0        3.057115    1.678259    0.142170
     36          6           0       -2.499393   -1.038361   -0.407735
     37          6           0        2.739964    3.080173    0.559055
     38          6           0       -2.227121   -2.449405   -0.807371
     39          6           0        2.065470    0.779782   -0.142103
     40          6           0       -1.539833   -0.066296   -0.061865
     41          6           0        0.586664    0.864600    0.016836
     42          6           0       -0.238560   -0.259998   -0.222146
     43          1           0       13.225255   -0.908174    1.669090
     44          1           0       12.860110   -2.607853    1.862770
     45          1           0      -14.280417   -0.474495    1.292157
     46          1           0      -14.459338   -0.254708   -0.313817
     47          1           0       12.891644   -2.600982   -0.891427
     48          1           0      -12.815177    1.197484    1.851861
     49          1           0       13.928067    0.233189   -0.718303
     50          1           0       13.469790   -0.378492   -2.055315
     51          1           0      -13.135648    1.987189   -1.143336
     52          1           0      -12.317547    3.000806   -0.042264
     53          1           0       10.948082   -1.618613    3.269321
     54          1           0        9.593125   -0.798481    2.444529
     55          1           0       11.198998    0.110539    2.689255
     56          1           0       10.563596   -2.992267   -0.310008
     57          1           0       10.646576   -3.348306    1.326076
     58          1           0        9.205018   -2.599165    0.912443
     59          1           0      -11.983920   -0.367461    2.467076
     60          1           0      -11.114663   -1.798602    1.936906
     61          1           0      -12.609524   -1.993586    2.407308
     62          1           0      -13.581214   -2.882307   -0.102064
     63          1           0      -11.658964   -2.895886   -0.359089
     64          1           0      -12.917867   -1.710622   -1.468525
     65          1           0        8.755358   -0.315471    0.377109
     66          1           0      -10.074023   -2.284146   -0.364524
     67          1           0       10.618400    1.459174   -1.919897
     68          1           0       12.089017    2.076922   -1.645603
     69          1           0       11.876822    0.976611   -2.932206
     70          1           0      -10.882878    2.384880   -2.046896
     71          1           0       -9.572898    1.361040   -1.813069
     72          1           0       -9.883289    2.558454   -0.603429
     73          1           0       14.604371   -3.045178    0.297079
     74          1           0      -15.183841    1.881848    1.784219
     75          1           0       10.167010    2.332351   -0.254259
     76          1           0       -8.499559    0.539034   -0.498217
     77          1           0        8.805936    4.119281    0.631068
     78          1           0        7.128821    4.388544   -0.178820
     79          1           0        7.216118    3.575927    1.332686
     80          1           0       -8.470257   -3.313430   -0.249276
     81          1           0       -8.327646   -2.861296   -2.012715
     82          1           0       -6.895373   -3.165703   -0.940797
     83          1           0        6.775704    0.375619   -0.669604
     84          1           0       -6.214701    0.269279    0.120624
     85          1           0        5.466797    3.020346    0.237952
     86          1           0       -4.909053   -2.178298   -1.040986
     87          1           0        4.643383    0.180736   -0.376621
     88          1           0       -3.923305    0.304162    0.016107
     89          1           0        3.251292    3.421161    1.431668
     90          1           0        1.693755    3.176787    0.525538
     91          1           0        3.099525    3.792252   -0.079656
     92          1           0       -2.759048   -3.029911   -0.220682
     93          1           0       -2.590051   -2.531756   -1.869922
     94          1           0       -1.233568   -2.749875   -1.056715
     95          1           0        2.474848   -0.271280   -0.382147
     96          1           0       -1.796926    0.782168    0.265358
     97          1           0        0.070554    1.823207    0.425521
     98          1           0        0.391559   -1.146493   -0.535847
 ---------------------------------------------------------------------

 SCF Done:  E(RCAM-B3LYP) =  -1706.94518808     A.U. after   14 cycles

 Excitation energies and oscillator strengths:

 Excited State   1:      Singlet-A      2.6035 eV  476.22 nm  f=3.6241  <S**2>=0.000
     155 ->158        -0.16036
     156 ->157         0.68479
 This state for optimization and/or second-order correction.
 Total Energy, E(TD-HF/TD-DFT) =  -1706.84951049
 Copying the excited state density for this state as the 1-particle RhoCI density.

 The electronic state is 1-A.
 Alpha  occ. eigenvalues --  -19.21596 -19.21586 -10.31574 -10.30201 -10.27734
 Alpha  occ. eigenvalues --  -10.27668 -10.27609 -10.27556 -10.27359 -10.27280
 Alpha  occ. eigenvalues --  -10.27257 -10.27106 -10.26828 -10.26677 -10.26471
 Alpha  occ. eigenvalues --  -10.26358 -10.26335 -10.26305 -10.25931 -10.25929
 Alpha  occ. eigenvalues --  -10.25907 -10.25734 -10.25564 -10.25556 -10.25541
 Alpha  occ. eigenvalues --  -10.25512 -10.25400 -10.25348 -10.25214 -10.25207
 Alpha  occ. eigenvalues --  -10.25173 -10.25033 -10.24803 -10.24672 -10.24266
 Alpha  occ. eigenvalues --  -10.24148 -10.23961 -10.23887 -10.23763 -10.23708
 Alpha  occ. eigenvalues --  -10.22724 -10.22642  -1.09355  -1.08274  -0.94359
 Alpha  occ. eigenvalues --   -0.93403  -0.92579  -0.91613  -0.90951  -0.89440
 Alpha  occ. eigenvalues --   -0.87912  -0.87820  -0.87414  -0.85333  -0.84186
 Alpha  occ. eigenvalues --   -0.83116  -0.82316  -0.80455  -0.79773  -0.79226
 Alpha  occ. eigenvalues --   -0.77545  -0.77234  -0.77055  -0.76367  -0.75980
 Alpha  occ. eigenvalues --   -0.75766  -0.75586  -0.74516  -0.73616  -0.70330
 Alpha  occ. eigenvalues --   -0.67806  -0.66906  -0.65789  -0.64731  -0.64474
 Alpha  occ. eigenvalues --   -0.64228  -0.62936  -0.62632  -0.61562  -0.60221
 Alpha  occ. eigenvalues --   -0.59320  -0.58557  -0.58463  -0.57588  -0.56400
 Alpha  occ. eigenvalues --   -0.55325  -0.55221  -0.54908  -0.54334  -0.53868
 Alpha  occ. eigenvalues --   -0.53537  -0.52761  -0.51910  -0.51577  -0.51441
 Alpha  occ. eigenvalues --   -0.50848  -0.50693  -0.50589  -0.50150  -0.49890
 Alpha  occ. eigenvalues --   -0.49251  -0.48884  -0.48437  -0.48394  -0.48334
 Alpha  occ. eigenvalues --   -0.48129  -0.47634  -0.47544  -0.47166  -0.46999
 Alpha  occ. eigenvalues --   -0.46569  -0.46168  -0.45477  -0.45407  -0.44782
 Alpha  occ. eigenvalues --   -0.44637  -0.44496  -0.44165  -0.44003  -0.43655
 Alpha  occ. eigenvalues --   -0.43389  -0.42931  -0.42655  -0.42293  -0.42104
 Alpha  occ. eigenvalues --   -0.41979  -0.41662  -0.41561  -0.41113  -0.40749
 Alpha  occ. eigenvalues --   -0.40562  -0.40174  -0.40056  -0.39696  -0.39667
 Alpha  occ. eigenvalues --   -0.39237  -0.38986  -0.38830  -0.38243  -0.37800
 Alpha  occ. eigenvalues --   -0.37361  -0.37200  -0.36774  -0.35613  -0.35245
 Alpha  occ. eigenvalues --   -0.35203  -0.34761  -0.34160  -0.32441  -0.32051
 Alpha  occ. eigenvalues --   -0.31682  -0.29942  -0.27544  -0.25609  -0.23660
 Alpha  occ. eigenvalues --   -0.19969
 Alpha virt. eigenvalues --   -0.04283   0.00048   0.02673   0.06096   0.08463
 Alpha virt. eigenvalues --    0.10070   0.10505   0.11408   0.11581   0.12527
 Alpha virt. eigenvalues --    0.12704   0.13195   0.13729   0.13789   0.14152

 Mulliken charges:
               1
     1  O   -0.548586
     2  O   -0.573739
     3  C   -0.032238
     4  C   -0.029039
     5  C   -0.194341
     6  C   -0.150346
     7  C    0.153471
     8  C    0.177262
     9  C    0.071621
    10  C    0.090012
    11  C   -0.204498
    12  C   -0.215342
    13  C    0.025658
    14  C    0.021035
    15  C   -0.289752
    16  C   -0.294573
    17  C   -0.300189
    18  C   -0.276009
    19  C   -0.112459
    20  C   -0.126910
    21  C   -0.367946
    22  C   -0.347633
    23  C   -0.103257
    24  C   -0.091325
    25  C    0.033971
    26  C    0.132396
    27  C   -0.370011
    28  C   -0.380992
    29  C   -0.101280
    30  C   -0.139724
    31  C   -0.078225
    32  C   -0.096128
    33  C   -0.125280
    34  C   -0.062175
    35  C    0.108623
    36  C    0.070081
    37  C   -0.373142
    38  C   -0.367248
    39  C   -0.147406
    40  C   -0.083459
    41  C   -0.119300
    42  C   -0.055444
    43  H    0.115090
    44  H    0.075305
    45  H    0.092563
    46  H    0.066059
    47  H    0.074279
    48  H    0.069202
    49  H    0.125944
    50  H    0.098197
    51  H    0.112093
    52  H    0.112108
    53  H    0.071792
    54  H    0.112882
    55  H    0.112913
    56  H    0.102489
    57  H    0.110672
    58  H    0.059600
    59  H    0.108557
    60  H    0.099783
    61  H    0.104658
    62  H    0.100977
    63  H    0.067688
    64  H    0.076166
    65  H    0.086670
    66  H    0.057344
    67  H    0.132637
    68  H    0.119617
    69  H    0.110461
    70  H    0.114668
    71  H    0.116266
    72  H    0.109674
    73  H    0.306144
    74  H    0.301380
    75  H    0.085261
    76  H    0.080447
    77  H    0.110251
    78  H    0.127166
    79  H    0.129834
    80  H    0.122623
    81  H    0.120675
    82  H    0.104725
    83  H    0.088061
    84  H    0.080846
    85  H    0.068638
    86  H    0.069554
    87  H    0.074504
    88  H    0.043856
    89  H    0.120181
    90  H    0.111877
    91  H    0.128313
    92  H    0.137840
    93  H    0.115849
    94  H    0.115852
    95  H    0.072294
    96  H    0.063856
    97  H    0.084281
    98  H    0.093209
 Sum of Mulliken charges =  -0.00000

 Dipole moment (field-independent basis, Debye):
    X=             -0.8122    Y=             -1.0606    Z=              1.4148  Tot=              1.9459
 Quadrupole moment (field-independent basis, Debye-Ang):
   XX=           -275.4454   YY=           -240.9226   ZZ=           -260.0028
   XY=             12.4977   XZ=             -7.9936   YZ=              0.6036

 Normal termination of Gaussian 16 at Wed Jul 10 08:48:50 2019.
