 Gaussian 16, Revision A.03,
 Gaussian 16:  ES64L-G16RevA.03 25-Dec-2016

 -------------------------------------
 # td=(NStates=1) CAM-B3LYP/6-31G(d,p)
 -------------------------------------

 --
 TD
 --
 Symbolic Z-matrix:
 Charge =  0 Multiplicity = 1

                         Standard orientation:
 ---------------------------------------------------------------------
 Center     Atomic      Atomic             Coordinates (Angstroms)
 Number     Number       Type             X           Y           Z
 ---------------------------------------------------------------------
      1          8           0       14.762364   -2.232645   -0.215495
      2          8           0      -14.619425    1.972337    1.016065
      3          6           0       11.280184   -1.469234    0.979411
      4          6           0      -12.388775   -1.035330    0.532130
      5          6           0       12.762280   -1.796684    1.037412
      6          6           0      -13.729930   -0.338958    0.571072
      7          6           0       13.411509   -1.905151   -0.294516
      8          6           0      -13.466150    1.231308    0.919162
      9          6           0       10.992766   -0.254448   -0.000057
     10          6           0      -11.298005   -0.200438   -0.198781
     11          6           0       13.234731   -0.599230   -1.120025
     12          6           0      -12.669061    1.791925   -0.168260
     13          6           0       11.930190    0.111772   -0.901829
     14          6           0      -11.531404    0.990875   -0.581369
     15          6           0       10.833603   -0.928456    2.422445
     16          6           0       10.452450   -2.690830    0.599912
     17          6           0      -11.969599   -1.131160    2.019209
     18          6           0      -12.623389   -2.392593   -0.022800
     19          6           0        9.596480    0.302075    0.100240
     20          6           0      -10.015000   -1.018242   -0.477708
     21          6           0       11.688978    1.165049   -1.800372
     22          6           0      -10.437195    1.677237   -1.569405
     23          6           0        9.331860    1.619410    0.009683
     24          6           0       -8.855113   -0.516059   -0.411407
     25          6           0        8.071618    2.225689    0.215573
     26          6           0       -7.691997   -1.248458   -0.575212
     27          6           0        8.018179    3.636396    0.570760
     28          6           0       -7.722367   -2.770570   -0.786056
     29          6           0        6.901233    1.584053    0.037153
     30          6           0       -6.469829   -0.606122   -0.390803
     31          6           0        5.555938    1.981339    0.189753
     32          6           0       -5.159982   -1.084296   -0.549766
     33          6           0        4.421783    1.282199   -0.091300
     34          6           0       -3.979921   -0.282538   -0.220371
     35          6           0        3.042434    1.701223    0.016052
     36          6           0       -2.660307   -0.800152   -0.546921
     37          6           0        2.899223    3.238849    0.473152
     38          6           0       -2.328399   -2.131205   -0.958317
     39          6           0        2.043999    0.780219   -0.262602
     40          6           0       -1.647131    0.218167   -0.292241
     41          6           0        0.705009    1.013086    0.007614
     42          6           0       -0.242058   -0.012574   -0.364480
     43          1           0       13.274613   -1.011014    1.631149
     44          1           0       13.049346   -2.705710    1.613390
     45          1           0      -14.400015   -0.678967    1.566341
     46          1           0      -14.286630   -0.482578   -0.369263
     47          1           0       12.851000   -2.652442   -0.699657
     48          1           0      -12.872145    1.342178    1.920866
     49          1           0       14.200058    0.021017   -0.788808
     50          1           0       13.379644   -0.960863   -2.243818
     51          1           0      -13.312025    1.725341   -0.953967
     52          1           0      -12.297330    2.899805    0.148475
     53          1           0       10.913727   -1.758654    3.174959
     54          1           0        9.832642   -0.793729    2.574077
     55          1           0       11.425130   -0.169794    2.817492
     56          1           0       10.775407   -2.907361   -0.473754
     57          1           0       10.537678   -3.455769    1.327421
     58          1           0        9.456879   -2.545604    0.533400
     59          1           0      -12.064245   -0.061951    2.314716
     60          1           0      -11.050515   -1.431719    2.189118
     61          1           0      -12.652745   -1.924616    2.592895
     62          1           0      -13.591195   -2.906239    0.452950
     63          1           0      -11.791997   -2.935422    0.451704
     64          1           0      -12.769321   -2.383358   -1.077048
     65          1           0        8.951117   -0.389526    0.501004
     66          1           0      -10.308682   -2.113838   -0.963317
     67          1           0       10.774519    1.567323   -2.081717
     68          1           0       12.377087    2.061149   -1.597749
     69          1           0       12.102583    1.151700   -2.857410
     70          1           0      -11.031711    2.389457   -2.252627
     71          1           0       -9.784377    1.051215   -1.976100
     72          1           0       -9.872067    2.381253   -1.020561
     73          1           0       14.782490   -2.900513    0.470611
     74          1           0      -15.336418    1.372667    1.463473
     75          1           0       10.010014    2.171684   -0.114494
     76          1           0       -8.730120    0.416402   -0.009601
     77          1           0        9.010858    4.032367    0.777286
     78          1           0        7.607489    4.269620   -0.132609
     79          1           0        7.433240    3.762383    1.647299
     80          1           0       -8.395189   -3.443062   -0.099698
     81          1           0       -8.357386   -2.699380   -1.613089
     82          1           0       -6.660210   -3.161470   -0.776879
     83          1           0        7.198846    0.565846   -0.400777
     84          1           0       -6.607122    0.411576   -0.083983
     85          1           0        5.498667    2.921117    0.632857
     86          1           0       -5.038265   -2.193793   -0.957636
     87          1           0        4.637655    0.227997   -0.291480
     88          1           0       -4.109264    0.869787   -0.036863
     89          1           0        3.765937    3.338610    1.327003
     90          1           0        1.926388    3.263260    0.969155
     91          1           0        2.976396    3.942066   -0.444177
     92          1           0       -2.854301   -3.023305   -0.340240
     93          1           0       -2.959592   -2.318935   -1.733527
     94          1           0       -1.218108   -2.113412   -1.140895
     95          1           0        2.401202   -0.179732   -0.328132
     96          1           0       -2.073060    1.254494    0.039701
     97          1           0        0.334493    1.955935    0.132205
     98          1           0        0.062418   -1.009899   -0.511030
 ---------------------------------------------------------------------

 SCF Done:  E(RCAM-B3LYP) =  -1706.91008748     A.U. after   15 cycles

 Excitation energies and oscillator strengths:

 Excited State   1:      Singlet-A      2.0625 eV  601.15 nm  f=3.6890  <S**2>=0.000
     155 ->158        -0.14386
     156 ->157         0.69477
 This state for optimization and/or second-order correction.
 Total Energy, E(TD-HF/TD-DFT) =  -1706.83429377
 Copying the excited state density for this state as the 1-particle RhoCI density.

 The electronic state is 1-A.
 Alpha  occ. eigenvalues --  -19.21782 -19.21212 -10.30559 -10.28697 -10.28347
 Alpha  occ. eigenvalues --  -10.28226 -10.28199 -10.27932 -10.27834 -10.27663
 Alpha  occ. eigenvalues --  -10.27489 -10.26982 -10.26940 -10.26884 -10.26872
 Alpha  occ. eigenvalues --  -10.26698 -10.26565 -10.26395 -10.26214 -10.26183
 Alpha  occ. eigenvalues --  -10.26181 -10.26102 -10.25871 -10.25734 -10.25714
 Alpha  occ. eigenvalues --  -10.25569 -10.25537 -10.25400 -10.25186 -10.25160
 Alpha  occ. eigenvalues --  -10.25077 -10.25074 -10.24828 -10.24799 -10.24773
 Alpha  occ. eigenvalues --  -10.24317 -10.24177 -10.24139 -10.24107 -10.23677
 Alpha  occ. eigenvalues --  -10.23497 -10.23457  -1.10871  -1.10051  -0.94591
 Alpha  occ. eigenvalues --   -0.93668  -0.92324  -0.91975  -0.91376  -0.90266
 Alpha  occ. eigenvalues --   -0.87828  -0.87700  -0.86991  -0.85868  -0.84730
 Alpha  occ. eigenvalues --   -0.82856  -0.82090  -0.80914  -0.79541  -0.78334
 Alpha  occ. eigenvalues --   -0.77287  -0.76938  -0.76582  -0.76484  -0.76262
 Alpha  occ. eigenvalues --   -0.75703  -0.75253  -0.75135  -0.73591  -0.71243
 Alpha  occ. eigenvalues --   -0.69856  -0.67775  -0.66044  -0.65876  -0.64669
 Alpha  occ. eigenvalues --   -0.64295  -0.63387  -0.61747  -0.60183  -0.59502
 Alpha  occ. eigenvalues --   -0.59435  -0.59188  -0.58697  -0.58056  -0.57125
 Alpha  occ. eigenvalues --   -0.56709  -0.56001  -0.55097  -0.54829  -0.54040
 Alpha  occ. eigenvalues --   -0.53463  -0.52804  -0.52495  -0.52253  -0.51506
 Alpha  occ. eigenvalues --   -0.51048  -0.50784  -0.50494  -0.49948  -0.49747
 Alpha  occ. eigenvalues --   -0.49142  -0.48900  -0.48612  -0.48439  -0.48140
 Alpha  occ. eigenvalues --   -0.47810  -0.47483  -0.46952  -0.46850  -0.46484
 Alpha  occ. eigenvalues --   -0.46119  -0.45985  -0.45529  -0.45328  -0.45288
 Alpha  occ. eigenvalues --   -0.44817  -0.44695  -0.44404  -0.44158  -0.43427
 Alpha  occ. eigenvalues --   -0.43363  -0.43240  -0.43048  -0.42456  -0.42330
 Alpha  occ. eigenvalues --   -0.42185  -0.41794  -0.41757  -0.41281  -0.41122
 Alpha  occ. eigenvalues --   -0.40929  -0.40391  -0.39966  -0.39891  -0.39777
 Alpha  occ. eigenvalues --   -0.39003  -0.38619  -0.38514  -0.38449  -0.37886
 Alpha  occ. eigenvalues --   -0.37725  -0.37161  -0.37050  -0.35826  -0.35453
 Alpha  occ. eigenvalues --   -0.35369  -0.34885  -0.33866  -0.32568  -0.32011
 Alpha  occ. eigenvalues --   -0.31141  -0.29806  -0.28712  -0.26391  -0.23332
 Alpha  occ. eigenvalues --   -0.18823
 Alpha virt. eigenvalues --   -0.06179  -0.01077   0.02565   0.06297   0.08448
 Alpha virt. eigenvalues --    0.09910   0.10634   0.11233   0.11594   0.12168
 Alpha virt. eigenvalues --    0.12505   0.12648   0.13155   0.13585   0.14037

 Mulliken charges:
               1
     1  O   -0.550088
     2  O   -0.564354
     3  C   -0.028476
     4  C   -0.011006
     5  C   -0.206079
     6  C   -0.210739
     7  C    0.188109
     8  C    0.178030
     9  C    0.031200
    10  C    0.047620
    11  C   -0.235416
    12  C   -0.197218
    13  C    0.113495
    14  C    0.035120
    15  C   -0.316926
    16  C   -0.300894
    17  C   -0.282084
    18  C   -0.306142
    19  C   -0.097093
    20  C   -0.147665
    21  C   -0.402718
    22  C   -0.355724
    23  C   -0.025725
    24  C   -0.053090
    25  C    0.091623
    26  C    0.084288
    27  C   -0.383426
    28  C   -0.347377
    29  C   -0.120474
    30  C   -0.120227
    31  C   -0.085477
    32  C   -0.117496
    33  C   -0.099695
    34  C   -0.125510
    35  C    0.068763
    36  C    0.125860
    37  C   -0.352812
    38  C   -0.369272
    39  C   -0.097379
    40  C   -0.128740
    41  C   -0.088727
    42  C   -0.101575
    43  H    0.094510
    44  H    0.068237
    45  H    0.056805
    46  H    0.098297
    47  H    0.081626
    48  H    0.070383
    49  H    0.108093
    50  H    0.103230
    51  H    0.126611
    52  H    0.097173
    53  H    0.076462
    54  H    0.110399
    55  H    0.115337
    56  H    0.100340
    57  H    0.106808
    58  H    0.110557
    59  H    0.094375
    60  H    0.110060
    61  H    0.072036
    62  H    0.083418
    63  H    0.105266
    64  H    0.109777
    65  H    0.088745
    66  H    0.085339
    67  H    0.130220
    68  H    0.101650
    69  H    0.096133
    70  H    0.092354
    71  H    0.130458
    72  H    0.113726
    73  H    0.301902
    74  H    0.309956
    75  H    0.043502
    76  H    0.098098
    77  H    0.102895
    78  H    0.136324
    79  H    0.093915
    80  H    0.108380
    81  H    0.130757
    82  H    0.102231
    83  H    0.058059
    84  H    0.070710
    85  H    0.069876
    86  H    0.072307
    87  H    0.073999
    88  H    0.095261
    89  H    0.108584
    90  H    0.114672
    91  H    0.128299
    92  H    0.110340
    93  H    0.142733
    94  H    0.113115
    95  H    0.085541
    96  H    0.079791
    97  H    0.087819
    98  H    0.088027
 Sum of Mulliken charges =  -0.00000

 Dipole moment (field-independent basis, Debye):
    X=             -1.5224    Y=             -1.7041    Z=              0.9838  Tot=              2.4879
 Quadrupole moment (field-independent basis, Debye-Ang):
   XX=           -276.5830   YY=           -247.0390   ZZ=           -263.1528
   XY=             16.7149   XZ=             11.5911   YZ=             -1.4689

 Normal termination of Gaussian 16 at Sun Jul 14 03:52:37 2019.
