 Gaussian 16, Revision A.03,
 Gaussian 16:  ES64L-G16RevA.03 25-Dec-2016

 -------------------------------------
 # td=(NStates=1) CAM-B3LYP/6-31G(d,p)
 -------------------------------------

 --
 TD
 --
 Symbolic Z-matrix:
 Charge =  0 Multiplicity = 1

                         Standard orientation:
 ---------------------------------------------------------------------
 Center     Atomic      Atomic             Coordinates (Angstroms)
 Number     Number       Type             X           Y           Z
 ---------------------------------------------------------------------
      1          8           0       14.752567   -2.286569    0.089136
      2          8           0      -14.767919    1.848381    1.309705
      3          6           0       11.118680   -1.388703    0.948475
      4          6           0      -12.286335   -1.109354    0.606265
      5          6           0       12.690302   -1.792921    1.196289
      6          6           0      -13.619032   -0.277870    0.805266
      7          6           0       13.389761   -2.000677   -0.110856
      8          6           0      -13.506923    1.109613    1.124730
      9          6           0       11.015706   -0.255160   -0.048241
     10          6           0      -11.392191   -0.238544   -0.226623
     11          6           0       13.327101   -0.685817   -0.842070
     12          6           0      -12.904960    1.815832    0.001123
     13          6           0       11.996082    0.103350   -0.793900
     14          6           0      -11.634664    1.068039   -0.533918
     15          6           0       10.489336   -0.993584    2.287320
     16          6           0       10.302526   -2.541880    0.451143
     17          6           0      -11.721953   -1.472326    2.000413
     18          6           0      -12.584920   -2.423393   -0.109142
     19          6           0        9.725410    0.369954   -0.035207
     20          6           0      -10.082322   -0.913965   -0.491234
     21          6           0       11.949280    1.176556   -1.833469
     22          6           0      -10.758273    1.803102   -1.467569
     23          6           0        9.447460    1.702461   -0.112190
     24          6           0       -8.794952   -0.410380   -0.430020
     25          6           0        8.109815    2.344287    0.035482
     26          6           0       -7.595708   -1.205703   -0.696437
     27          6           0        7.918809    3.782180    0.530251
     28          6           0       -7.722833   -2.672464   -1.021896
     29          6           0        6.990172    1.480745    0.063294
     30          6           0       -6.396725   -0.395686   -0.570344
     31          6           0        5.681719    1.872263    0.248978
     32          6           0       -5.092297   -0.943934   -0.825432
     33          6           0        4.463275    1.178583    0.091992
     34          6           0       -3.927079   -0.265099   -0.563437
     35          6           0        3.207043    1.575593    0.112667
     36          6           0       -2.693909   -0.635940   -0.625936
     37          6           0        2.892128    3.027411    0.602861
     38          6           0       -2.272310   -2.092455   -0.960563
     39          6           0        2.076590    0.691430   -0.173118
     40          6           0       -1.661760    0.304244   -0.406678
     41          6           0        0.731354    1.051142   -0.207944
     42          6           0       -0.229210    0.021170   -0.512816
     43          1           0       12.943690   -0.821350    1.871995
     44          1           0       12.635698   -2.798813    1.869434
     45          1           0      -14.132627   -0.780783    1.711356
     46          1           0      -14.347969   -0.334108   -0.161338
     47          1           0       12.950667   -2.812068   -0.585815
     48          1           0      -13.055074    1.140943    2.101631
     49          1           0       14.137044    0.011415   -0.593892
     50          1           0       13.444978   -0.906772   -1.835850
     51          1           0      -13.672651    1.834857   -0.869884
     52          1           0      -12.751322    2.805692    0.290665
     53          1           0       10.646494   -1.852110    2.998940
     54          1           0        9.506000   -0.603242    2.502468
     55          1           0       10.942476   -0.104676    2.822499
     56          1           0       10.613638   -3.079314   -0.515869
     57          1           0       10.526755   -3.393581    1.243780
     58          1           0        9.093794   -2.469361    0.412201
     59          1           0      -11.365580   -0.528342    2.591667
     60          1           0      -10.611833   -2.034067    1.782469
     61          1           0      -12.603806   -1.982361    2.340806
     62          1           0      -13.262856   -2.950857    0.622988
     63          1           0      -11.637869   -2.985040    0.050366
     64          1           0      -12.973359   -2.643505   -1.132936
     65          1           0        8.821823   -0.465454    0.127610
     66          1           0      -10.113449   -2.075438   -0.445007
     67          1           0       10.856298    1.526899   -2.137442
     68          1           0       12.646602    2.073564   -1.507741
     69          1           0       12.457029    1.001034   -2.977328
     70          1           0      -11.374539    2.344992   -2.328462
     71          1           0       -9.980601    1.387456   -1.933237
     72          1           0      -10.086071    2.463131   -0.932723
     73          1           0       14.879493   -3.149126    0.558207
     74          1           0      -15.098865    1.206217    2.134700
     75          1           0       10.300733    2.488502   -0.258629
     76          1           0       -8.746873    0.597848   -0.093227
     77          1           0        8.883421    4.197498    0.487143
     78          1           0        7.358106    4.383805   -0.062169
     79          1           0        7.324444    3.821513    1.462235
     80          1           0       -7.963898   -3.242405   -0.125048
     81          1           0       -8.720569   -2.772039   -1.828052
     82          1           0       -6.901844   -3.125663   -1.452432
     83          1           0        7.044375    0.327965   -0.482157
     84          1           0       -6.333388    0.715231   -0.566945
     85          1           0        5.665374    3.045556    0.353902
     86          1           0       -4.972001   -2.057204   -1.092653
     87          1           0        4.562243    0.017252   -0.042734
     88          1           0       -3.937963    0.911296   -0.379461
     89          1           0        3.528779    3.239181    1.481962
     90          1           0        1.803586    3.088089    1.043945
     91          1           0        2.976404    3.850824   -0.340079
     92          1           0       -2.429443   -2.886361   -0.121915
     93          1           0       -2.994618   -2.535694   -1.821658
     94          1           0       -1.142905   -2.172507   -1.302427
     95          1           0        2.219684   -0.420572   -0.247955
     96          1           0       -1.843635    1.428768   -0.124642
     97          1           0        0.451433    1.917847    0.228604
     98          1           0        0.092175   -0.911635   -1.027625
 ---------------------------------------------------------------------

 SCF Done:  E(RCAM-B3LYP) =  -1706.89396529     A.U. after   17 cycles

 Excitation energies and oscillator strengths:

 Excited State   1:      Singlet-A      1.7371 eV  713.76 nm  f=3.8028  <S**2>=0.000
     155 ->158         0.12909
     156 ->157         0.70402
     156 <-157        -0.13240
 This state for optimization and/or second-order correction.
 Total Energy, E(TD-HF/TD-DFT) =  -1706.83012920
 Copying the excited state density for this state as the 1-particle RhoCI density.

 The electronic state is 1-A.
 Alpha  occ. eigenvalues --  -19.21938 -19.20990 -10.30097 -10.29048 -10.28900
 Alpha  occ. eigenvalues --  -10.28379 -10.28351 -10.28076 -10.28024 -10.27956
 Alpha  occ. eigenvalues --  -10.27924 -10.27777 -10.27761 -10.27568 -10.27559
 Alpha  occ. eigenvalues --  -10.27548 -10.27469 -10.27423 -10.27408 -10.27168
 Alpha  occ. eigenvalues --  -10.27101 -10.27095 -10.27070 -10.27033 -10.26959
 Alpha  occ. eigenvalues --  -10.26874 -10.26858 -10.26451 -10.26345 -10.26297
 Alpha  occ. eigenvalues --  -10.26242 -10.26017 -10.25964 -10.25820 -10.25817
 Alpha  occ. eigenvalues --  -10.25581 -10.25149 -10.25084 -10.24793 -10.24782
 Alpha  occ. eigenvalues --  -10.24441 -10.24240  -1.09410  -1.06940  -0.94330
 Alpha  occ. eigenvalues --   -0.93891  -0.92461  -0.91377  -0.89853  -0.89511
 Alpha  occ. eigenvalues --   -0.87232  -0.87069  -0.86882  -0.85525  -0.85136
 Alpha  occ. eigenvalues --   -0.83168  -0.81590  -0.80235  -0.79816  -0.77671
 Alpha  occ. eigenvalues --   -0.76760  -0.76426  -0.76228  -0.75588  -0.75367
 Alpha  occ. eigenvalues --   -0.75073  -0.75027  -0.74532  -0.72689  -0.71057
 Alpha  occ. eigenvalues --   -0.68784  -0.67047  -0.65841  -0.64869  -0.64755
 Alpha  occ. eigenvalues --   -0.63734  -0.62642  -0.61629  -0.60111  -0.59266
 Alpha  occ. eigenvalues --   -0.58833  -0.58290  -0.57729  -0.57420  -0.55974
 Alpha  occ. eigenvalues --   -0.55829  -0.55212  -0.54973  -0.54106  -0.53318
 Alpha  occ. eigenvalues --   -0.53145  -0.52715  -0.51949  -0.51717  -0.50709
 Alpha  occ. eigenvalues --   -0.50600  -0.49592  -0.49195  -0.49034  -0.48729
 Alpha  occ. eigenvalues --   -0.48420  -0.48386  -0.48170  -0.47915  -0.47438
 Alpha  occ. eigenvalues --   -0.46945  -0.46835  -0.46618  -0.46290  -0.46061
 Alpha  occ. eigenvalues --   -0.45389  -0.45253  -0.45074  -0.44618  -0.44404
 Alpha  occ. eigenvalues --   -0.44283  -0.44254  -0.43688  -0.43391  -0.43212
 Alpha  occ. eigenvalues --   -0.42980  -0.42812  -0.42298  -0.41839  -0.41599
 Alpha  occ. eigenvalues --   -0.41249  -0.41098  -0.40970  -0.40891  -0.40545
 Alpha  occ. eigenvalues --   -0.40412  -0.40296  -0.39575  -0.39418  -0.39277
 Alpha  occ. eigenvalues --   -0.39199  -0.38788  -0.38637  -0.38289  -0.37965
 Alpha  occ. eigenvalues --   -0.37510  -0.36798  -0.36633  -0.36405  -0.36013
 Alpha  occ. eigenvalues --   -0.35456  -0.34717  -0.34257  -0.32555  -0.32281
 Alpha  occ. eigenvalues --   -0.32074  -0.30416  -0.28335  -0.26424  -0.22948
 Alpha  occ. eigenvalues --   -0.17951
 Alpha virt. eigenvalues --   -0.07521  -0.01661   0.02427   0.05419   0.07903
 Alpha virt. eigenvalues --    0.09224   0.09629   0.10478   0.10908   0.11470
 Alpha virt. eigenvalues --    0.11968   0.12132   0.12641   0.12835   0.13329

 Mulliken charges:
               1
     1  O   -0.568061
     2  O   -0.556451
     3  C   -0.043668
     4  C   -0.049518
     5  C   -0.189549
     6  C   -0.179960
     7  C    0.202034
     8  C    0.160003
     9  C    0.128634
    10  C    0.109500
    11  C   -0.220874
    12  C   -0.208534
    13  C    0.046044
    14  C    0.023203
    15  C   -0.314604
    16  C   -0.285467
    17  C   -0.274759
    18  C   -0.288637
    19  C   -0.106215
    20  C   -0.159204
    21  C   -0.371324
    22  C   -0.362419
    23  C   -0.120445
    24  C   -0.084071
    25  C    0.049005
    26  C    0.089803
    27  C   -0.374363
    28  C   -0.362516
    29  C   -0.084720
    30  C   -0.123118
    31  C   -0.103256
    32  C   -0.114382
    33  C   -0.118391
    34  C   -0.102923
    35  C    0.112935
    36  C    0.162326
    37  C   -0.355523
    38  C   -0.364204
    39  C   -0.132433
    40  C   -0.151099
    41  C   -0.061077
    42  C   -0.100664
    43  H    0.101980
    44  H    0.059136
    45  H    0.045677
    46  H    0.087991
    47  H    0.089776
    48  H    0.086382
    49  H    0.124853
    50  H    0.119081
    51  H    0.114871
    52  H    0.120078
    53  H    0.091752
    54  H    0.123254
    55  H    0.091537
    56  H    0.097588
    57  H    0.079355
    58  H    0.095757
    59  H    0.106202
    60  H    0.086023
    61  H    0.113079
    62  H    0.086915
    63  H    0.097970
    64  H    0.120154
    65  H    0.084707
    66  H    0.067512
    67  H    0.118639
    68  H    0.102270
    69  H    0.076765
    70  H    0.091127
    71  H    0.128556
    72  H    0.108095
    73  H    0.303338
    74  H    0.290534
    75  H    0.088413
    76  H    0.085259
    77  H    0.111461
    78  H    0.137766
    79  H    0.134761
    80  H    0.133119
    81  H    0.099582
    82  H    0.123528
    83  H    0.064354
    84  H    0.099269
    85  H    0.067908
    86  H    0.075441
    87  H    0.069217
    88  H    0.065127
    89  H    0.124538
    90  H    0.096573
    91  H    0.099019
    92  H    0.118690
    93  H    0.095816
    94  H    0.101057
    95  H    0.085903
    96  H    0.086904
    97  H    0.082098
    98  H    0.092186
 Sum of Mulliken charges =  -0.00000

 Dipole moment (field-independent basis, Debye):
    X=              0.9085    Y=             -2.2784    Z=              1.3124  Tot=              2.7819
 Quadrupole moment (field-independent basis, Debye-Ang):
   XX=           -296.9445   YY=           -242.2983   ZZ=           -262.7090
   XY=             16.0817   XZ=             -5.2639   YZ=              0.5445

 Normal termination of Gaussian 16 at Tue Jul  9 02:20:04 2019.
