 Gaussian 16, Revision A.03,
 Gaussian 16:  ES64L-G16RevA.03 25-Dec-2016

 -------------------------------------
 # td=(NStates=1) CAM-B3LYP/6-31G(d,p)
 -------------------------------------

 --
 TD
 --
 Symbolic Z-matrix:
 Charge =  0 Multiplicity = 1

                         Standard orientation:
 ---------------------------------------------------------------------
 Center     Atomic      Atomic             Coordinates (Angstroms)
 Number     Number       Type             X           Y           Z
 ---------------------------------------------------------------------
      1          8           0       14.969140   -1.989709   -0.177074
      2          8           0      -14.743182    2.056793    1.003552
      3          6           0       11.305207   -1.371713    1.018398
      4          6           0      -12.424886   -0.910468    0.641190
      5          6           0       12.818172   -1.655316    1.092095
      6          6           0      -13.652852   -0.181874    0.754081
      7          6           0       13.533858   -1.784201   -0.247079
      8          6           0      -13.388410    1.364493    0.948872
      9          6           0       10.983851   -0.252972    0.095770
     10          6           0      -11.353355   -0.273191   -0.094112
     11          6           0       13.289373   -0.456581   -0.998319
     12          6           0      -12.702642    1.897971   -0.192847
     13          6           0       11.932879    0.085191   -0.844705
     14          6           0      -11.626840    1.004332   -0.549204
     15          6           0       10.907211   -0.961249    2.547036
     16          6           0       10.475612   -2.646270    0.696090
     17          6           0      -11.861946   -1.251434    2.131877
     18          6           0      -12.822708   -2.329414    0.133316
     19          6           0        9.596180    0.288757    0.122641
     20          6           0      -10.113488   -1.056706   -0.457174
     21          6           0       11.629686    1.060195   -2.075579
     22          6           0      -10.676579    1.751796   -1.632041
     23          6           0        9.370705    1.662762    0.092591
     24          6           0       -8.880831   -0.565463   -0.343278
     25          6           0        8.068564    2.271664    0.164313
     26          6           0       -7.673631   -1.287109   -0.530850
     27          6           0        7.865255    3.844898    0.496097
     28          6           0       -7.775983   -2.764865   -1.051262
     29          6           0        6.906202    1.497834    0.039481
     30          6           0       -6.440671   -0.628663   -0.398611
     31          6           0        5.601866    1.933871    0.066033
     32          6           0       -5.048893   -1.143177   -0.474970
     33          6           0        4.513499    1.064474   -0.079183
     34          6           0       -3.958556   -0.390824   -0.345864
     35          6           0        3.125302    1.570663   -0.046600
     36          6           0       -2.618345   -0.809773   -0.672105
     37          6           0        2.796044    3.025770    0.350657
     38          6           0       -2.430159   -2.205518   -1.212960
     39          6           0        2.104963    0.603848   -0.120990
     40          6           0       -1.621513    0.085156   -0.253446
     41          6           0        0.693679    0.847148    0.038453
     42          6           0       -0.346894   -0.170716   -0.288129
     43          1           0       13.385045   -0.805031    1.571873
     44          1           0       13.100342   -2.563474    1.901521
     45          1           0      -14.331390   -0.390326    1.533379
     46          1           0      -14.385003   -0.386828   -0.158625
     47          1           0       13.153969   -2.599546   -0.733719
     48          1           0      -12.910440    1.673894    1.757695
     49          1           0       14.277945    0.069696   -0.754648
     50          1           0       13.576257   -0.812460   -2.037948
     51          1           0      -13.504582    2.063655   -1.166652
     52          1           0      -12.212131    2.962094    0.155072
     53          1           0       11.357022   -1.601748    3.182279
     54          1           0        9.817108   -1.094925    2.622662
     55          1           0       11.220860    0.199018    2.623989
     56          1           0       10.519474   -2.906953   -0.247317
     57          1           0       10.863718   -3.408163    1.300184
     58          1           0        9.483494   -2.435538    0.999607
     59          1           0      -11.396459   -0.252986    2.591373
     60          1           0      -11.170527   -1.975709    1.828415
     61          1           0      -12.767888   -1.603216    2.754213
     62          1           0      -13.599108   -2.598358    0.846304
     63          1           0      -11.906123   -3.059076    0.021312
     64          1           0      -13.084865   -2.331979   -0.970582
     65          1           0        8.675773   -0.406802    0.379514
     66          1           0      -10.169113   -2.145258   -0.922572
     67          1           0       10.504152    1.196017   -2.182917
     68          1           0       12.008129    2.055229   -1.793850
     69          1           0       12.283108    0.886671   -2.943632
     70          1           0      -11.318196    2.133644   -2.342172
     71          1           0      -10.109789    0.986195   -2.167357
     72          1           0       -9.771910    2.432763   -0.923987
     73          1           0       15.036189   -2.756579    0.265980
     74          1           0      -15.186499    1.965323    1.878466
     75          1           0       10.195411    2.307574   -0.146139
     76          1           0       -8.697128    0.563082   -0.147745
     77          1           0        8.958582    4.488080    0.281798
     78          1           0        7.109688    4.441448    0.074787
     79          1           0        7.662498    3.898781    1.469521
     80          1           0       -8.779932   -3.382557   -0.787580
     81          1           0       -7.930692   -2.860473   -2.294025
     82          1           0       -6.910339   -3.386946   -0.646177
     83          1           0        7.143497    0.476292   -0.402691
     84          1           0       -6.372592    0.466510    0.090702
     85          1           0        5.529495    3.005667    0.495671
     86          1           0       -5.065576   -2.123515   -0.848578
     87          1           0        4.920206    0.072918   -0.204456
     88          1           0       -4.017536    0.669133    0.194011
     89          1           0        2.886610    3.295260    1.559952
     90          1           0        1.944962    3.230185   -0.026728
     91          1           0        3.688210    3.551580   -0.260994
     92          1           0       -3.232410   -3.022255   -0.759625
     93          1           0       -2.649024   -2.062627   -2.451888
     94          1           0       -1.271232   -2.609576   -0.969525
     95          1           0        2.388450   -0.448916   -0.373883
     96          1           0       -1.796426    1.041530    0.055038
     97          1           0        0.435788    1.906026    0.257296
     98          1           0        0.019724   -1.123087   -0.756513
 ---------------------------------------------------------------------

 SCF Done:  E(RCAM-B3LYP) =  -1706.85824595     A.U. after   15 cycles

 Excitation energies and oscillator strengths:

 Excited State   1:      Singlet-A      1.9917 eV  622.49 nm  f=3.5992  <S**2>=0.000
     155 ->158        -0.14067
     156 ->157         0.69505
     156 <-157        -0.10174
 This state for optimization and/or second-order correction.
 Total Energy, E(TD-HF/TD-DFT) =  -1706.78505082
 Copying the excited state density for this state as the 1-particle RhoCI density.

 The electronic state is 1-A.
 Alpha  occ. eigenvalues --  -19.20567 -19.19712 -10.30652 -10.29406 -10.29241
 Alpha  occ. eigenvalues --  -10.29116 -10.28731 -10.28467 -10.28411 -10.28380
 Alpha  occ. eigenvalues --  -10.28276 -10.28130 -10.28021 -10.27592 -10.27523
 Alpha  occ. eigenvalues --  -10.27364 -10.27334 -10.27263 -10.27123 -10.27115
 Alpha  occ. eigenvalues --  -10.27036 -10.26900 -10.26860 -10.26762 -10.26718
 Alpha  occ. eigenvalues --  -10.26707 -10.26645 -10.26386 -10.26374 -10.26357
 Alpha  occ. eigenvalues --  -10.26159 -10.26133 -10.26067 -10.26057 -10.25878
 Alpha  occ. eigenvalues --  -10.25715 -10.25444 -10.25420 -10.25355 -10.24806
 Alpha  occ. eigenvalues --  -10.24778 -10.22980  -1.10521  -1.05261  -0.94553
 Alpha  occ. eigenvalues --   -0.93517  -0.92691  -0.91304  -0.90372  -0.89462
 Alpha  occ. eigenvalues --   -0.87484  -0.87189  -0.86308  -0.85746  -0.84181
 Alpha  occ. eigenvalues --   -0.83036  -0.81512  -0.79818  -0.79091  -0.78075
 Alpha  occ. eigenvalues --   -0.77279  -0.76268  -0.75804  -0.75477  -0.75137
 Alpha  occ. eigenvalues --   -0.74764  -0.74460  -0.74192  -0.73025  -0.71161
 Alpha  occ. eigenvalues --   -0.69267  -0.67722  -0.65750  -0.64949  -0.64364
 Alpha  occ. eigenvalues --   -0.62927  -0.62774  -0.62095  -0.60779  -0.59683
 Alpha  occ. eigenvalues --   -0.59413  -0.58997  -0.57717  -0.57322  -0.56380
 Alpha  occ. eigenvalues --   -0.55654  -0.54791  -0.54475  -0.54320  -0.53113
 Alpha  occ. eigenvalues --   -0.52615  -0.52276  -0.51738  -0.51193  -0.50506
 Alpha  occ. eigenvalues --   -0.50222  -0.49544  -0.49292  -0.49077  -0.48818
 Alpha  occ. eigenvalues --   -0.48340  -0.48229  -0.47930  -0.47871  -0.47570
 Alpha  occ. eigenvalues --   -0.47486  -0.47291  -0.46955  -0.46392  -0.46068
 Alpha  occ. eigenvalues --   -0.45948  -0.45698  -0.45599  -0.44850  -0.44693
 Alpha  occ. eigenvalues --   -0.44551  -0.44041  -0.43781  -0.43319  -0.43176
 Alpha  occ. eigenvalues --   -0.42725  -0.42274  -0.42251  -0.41972  -0.41774
 Alpha  occ. eigenvalues --   -0.41364  -0.41216  -0.41084  -0.40759  -0.40684
 Alpha  occ. eigenvalues --   -0.40225  -0.40085  -0.39881  -0.39755  -0.39608
 Alpha  occ. eigenvalues --   -0.39113  -0.38851  -0.38606  -0.38443  -0.38275
 Alpha  occ. eigenvalues --   -0.37588  -0.37412  -0.37260  -0.36453  -0.35860
 Alpha  occ. eigenvalues --   -0.34996  -0.34773  -0.34283  -0.32684  -0.32284
 Alpha  occ. eigenvalues --   -0.31227  -0.29257  -0.28143  -0.25815  -0.23669
 Alpha  occ. eigenvalues --   -0.19193
 Alpha virt. eigenvalues --   -0.06942  -0.01610   0.01411   0.05506   0.06774
 Alpha virt. eigenvalues --    0.08657   0.10205   0.10741   0.11151   0.11566
 Alpha virt. eigenvalues --    0.11713   0.11940   0.12384   0.12422   0.12673

 Mulliken charges:
               1
     1  O   -0.549147
     2  O   -0.596597
     3  C   -0.047357
     4  C   -0.049793
     5  C   -0.197167
     6  C   -0.182223
     7  C    0.148266
     8  C    0.160856
     9  C    0.074900
    10  C    0.114218
    11  C   -0.253353
    12  C   -0.188177
    13  C    0.058087
    14  C    0.003338
    15  C   -0.292885
    16  C   -0.289812
    17  C   -0.282079
    18  C   -0.293870
    19  C   -0.129631
    20  C   -0.163448
    21  C   -0.370285
    22  C   -0.324431
    23  C   -0.100173
    24  C   -0.051114
    25  C    0.068094
    26  C    0.109943
    27  C   -0.370053
    28  C   -0.361913
    29  C   -0.125444
    30  C   -0.141732
    31  C   -0.081273
    32  C   -0.092417
    33  C   -0.101432
    34  C   -0.090952
    35  C    0.044384
    36  C    0.101432
    37  C   -0.324255
    38  C   -0.345895
    39  C   -0.094473
    40  C   -0.063664
    41  C   -0.125251
    42  C   -0.096101
    43  H    0.102250
    44  H    0.042965
    45  H    0.087125
    46  H    0.090414
    47  H    0.089571
    48  H    0.100641
    49  H    0.134837
    50  H    0.111397
    51  H    0.104221
    52  H    0.091061
    53  H    0.111004
    54  H    0.093421
    55  H    0.095779
    56  H    0.113742
    57  H    0.104710
    58  H    0.100946
    59  H    0.083926
    60  H    0.121216
    61  H    0.086174
    62  H    0.108895
    63  H    0.078337
    64  H    0.099158
    65  H    0.094879
    66  H    0.085609
    67  H    0.118611
    68  H    0.113392
    69  H    0.111478
    70  H    0.119349
    71  H    0.116385
    72  H    0.070291
    73  H    0.293453
    74  H    0.297296
    75  H    0.098990
    76  H    0.085065
    77  H    0.071109
    78  H    0.128888
    79  H    0.147217
    80  H    0.100533
    81  H    0.101424
    82  H    0.114316
    83  H    0.079509
    84  H    0.069713
    85  H    0.081994
    86  H    0.078727
    87  H    0.093875
    88  H    0.082001
    89  H    0.107782
    90  H    0.124480
    91  H    0.102775
    92  H    0.113184
    93  H    0.111530
    94  H    0.096903
    95  H    0.082016
    96  H    0.082889
    97  H    0.084251
    98  H    0.081170
 Sum of Mulliken charges =  -0.00000

 Dipole moment (field-independent basis, Debye):
    X=              0.2577    Y=             -1.7615    Z=              1.2345  Tot=              2.1664
 Quadrupole moment (field-independent basis, Debye-Ang):
   XX=           -309.4211   YY=           -245.5225   ZZ=           -261.8470
   XY=              6.8199   XZ=             -7.3825   YZ=              5.6712

 Normal termination of Gaussian 16 at Sat Jul 13 21:40:08 2019.
