 Gaussian 16, Revision A.03,
 Gaussian 16:  ES64L-G16RevA.03 25-Dec-2016

 -------------------------------------
 # td=(NStates=1) CAM-B3LYP/6-31G(d,p)
 -------------------------------------

 --
 TD
 --
 Symbolic Z-matrix:
 Charge =  0 Multiplicity = 1

                         Standard orientation:
 ---------------------------------------------------------------------
 Center     Atomic      Atomic             Coordinates (Angstroms)
 Number     Number       Type             X           Y           Z
 ---------------------------------------------------------------------
      1          8           0       14.756834   -2.255332   -0.245114
      2          8           0      -14.772604    1.860687    0.891665
      3          6           0       11.198067   -1.464507    1.049854
      4          6           0      -12.316771   -0.982909    0.756753
      5          6           0       12.784420   -1.875987    1.069730
      6          6           0      -13.712980   -0.350735    0.773157
      7          6           0       13.366014   -1.954927   -0.369781
      8          6           0      -13.457918    1.189231    0.900816
      9          6           0       10.987144   -0.301331    0.085544
     10          6           0      -11.310731   -0.316186   -0.134618
     11          6           0       13.232631   -0.608722   -0.861147
     12          6           0      -12.683386    1.647553   -0.268693
     13          6           0       11.926293    0.147562   -0.799669
     14          6           0      -11.479594    0.951268   -0.573741
     15          6           0       10.732441   -1.170132    2.416039
     16          6           0       10.317188   -2.620187    0.524508
     17          6           0      -11.890530   -1.239207    2.226159
     18          6           0      -12.642407   -2.466038    0.106889
     19          6           0        9.640243    0.369558    0.185664
     20          6           0      -10.047612   -1.048314   -0.368971
     21          6           0       11.721473    1.154838   -1.918830
     22          6           0      -10.649773    1.716610   -1.597670
     23          6           0        9.327094    1.674537    0.097274
     24          6           0       -8.781344   -0.472544   -0.188221
     25          6           0        8.065715    2.293235    0.249731
     26          6           0       -7.524010   -1.263569   -0.536416
     27          6           0        7.976334    3.720119    0.518453
     28          6           0       -7.530810   -2.743723   -0.913738
     29          6           0        6.839707    1.637419    0.157611
     30          6           0       -6.374958   -0.510220   -0.441140
     31          6           0        5.541653    2.096564    0.252724
     32          6           0       -5.064277   -0.974277   -0.815527
     33          6           0        4.467057    1.339628   -0.008732
     34          6           0       -3.967402   -0.152810   -0.437496
     35          6           0        3.115277    1.699478    0.136133
     36          6           0       -2.650748   -0.619134   -0.742569
     37          6           0        2.819768    3.086810    0.619440
     38          6           0       -2.286440   -1.994182   -1.138955
     39          6           0        2.194084    0.737042   -0.174930
     40          6           0       -1.597024    0.311260   -0.439022
     41          6           0        0.696815    1.009597   -0.231198
     42          6           0       -0.241687    0.114057   -0.527705
     43          1           0       13.244996   -1.101905    1.700095
     44          1           0       12.943705   -2.979466    1.552528
     45          1           0      -14.333287   -0.856290    1.674424
     46          1           0      -14.320473   -0.382924   -0.241826
     47          1           0       12.696228   -2.632936   -0.955045
     48          1           0      -13.132827    1.558266    1.719356
     49          1           0       14.128133   -0.015311   -0.384561
     50          1           0       13.570731   -0.736418   -2.081191
     51          1           0      -13.413592    1.820770   -1.104140
     52          1           0      -12.620733    2.931337   -0.215178
     53          1           0       10.842683   -1.989210    3.141847
     54          1           0        9.643867   -0.911702    2.322080
     55          1           0       11.432571   -0.314488    2.850981
     56          1           0       10.576567   -3.136545   -0.598406
     57          1           0       10.530905   -3.595909    0.971178
     58          1           0        9.351346   -2.194457    0.426975
     59          1           0      -11.547183   -0.375868    2.648950
     60          1           0      -11.184948   -2.108013    2.126607
     61          1           0      -12.553194   -1.663296    2.870376
     62          1           0      -13.411722   -2.892972    0.583424
     63          1           0      -11.869249   -3.224561    0.321259
     64          1           0      -12.575402   -2.447415   -1.114849
     65          1           0        8.704132   -0.393083    0.195410
     66          1           0      -10.033358   -1.968068   -0.564971
     67          1           0       10.574481    1.235300   -1.969597
     68          1           0       11.967317    2.150345   -1.608621
     69          1           0       12.347101    0.687866   -2.784159
     70          1           0      -11.470501    2.306302   -2.220784
     71          1           0       -9.945478    0.873549   -2.133186
     72          1           0       -9.974444    2.380392   -1.082201
     73          1           0       14.698194   -3.343389    0.018230
     74          1           0      -15.190745    1.204466    1.556468
     75          1           0       10.252323    2.467458    0.218490
     76          1           0       -8.590481    0.575335    0.192378
     77          1           0        8.900210    4.322328    0.613108
     78          1           0        7.561597    4.125460   -0.363448
     79          1           0        7.205194    4.153633    1.489705
     80          1           0       -8.083192   -3.328189   -0.079669
     81          1           0       -8.015838   -3.014735   -1.997736
     82          1           0       -6.379808   -3.193109   -1.103791
     83          1           0        6.797792    0.493961   -0.183918
     84          1           0       -6.578451    0.409416    0.000328
     85          1           0        5.304966    3.265623    0.601638
     86          1           0       -5.051612   -1.976166   -1.349521
     87          1           0        4.612153    0.104671   -0.139992
     88          1           0       -4.228857    0.885298    0.022207
     89          1           0        3.165309    3.294253    1.512404
     90          1           0        1.778987    3.336451    0.720474
     91          1           0        3.243572    3.903223    0.138158
     92          1           0       -2.482945   -2.713549   -0.363254
     93          1           0       -2.894855   -2.252041   -2.066132
     94          1           0       -1.327440   -2.243214   -1.347677
     95          1           0        2.417736   -0.188908   -0.500091
     96          1           0       -1.955148    1.143163    0.110693
     97          1           0        0.275226    1.999020    0.159787
     98          1           0        0.089824   -0.896951   -0.904270
 ---------------------------------------------------------------------

 SCF Done:  E(RCAM-B3LYP) =  -1706.87849711     A.U. after   14 cycles

 Excitation energies and oscillator strengths:

 Excited State   1:      Singlet-A      2.3687 eV  523.42 nm  f=3.7449  <S**2>=0.000
     155 ->158        -0.18158
     156 ->157         0.67991
 This state for optimization and/or second-order correction.
 Total Energy, E(TD-HF/TD-DFT) =  -1706.79144769
 Copying the excited state density for this state as the 1-particle RhoCI density.

 The electronic state is 1-A.
 Alpha  occ. eigenvalues --  -19.22994 -19.20247 -10.30113 -10.29457 -10.28457
 Alpha  occ. eigenvalues --  -10.28131 -10.28095 -10.28019 -10.27886 -10.27774
 Alpha  occ. eigenvalues --  -10.27656 -10.27567 -10.27535 -10.27466 -10.27423
 Alpha  occ. eigenvalues --  -10.27374 -10.27317 -10.27205 -10.27027 -10.26966
 Alpha  occ. eigenvalues --  -10.26868 -10.26693 -10.26611 -10.26579 -10.26517
 Alpha  occ. eigenvalues --  -10.26488 -10.26485 -10.26232 -10.26231 -10.26054
 Alpha  occ. eigenvalues --  -10.26010 -10.25847 -10.25825 -10.25675 -10.25615
 Alpha  occ. eigenvalues --  -10.25590 -10.25357 -10.25308 -10.25308 -10.25072
 Alpha  occ. eigenvalues --  -10.23856 -10.23777  -1.07939  -1.07010  -0.93936
 Alpha  occ. eigenvalues --   -0.93419  -0.92569  -0.91790  -0.90778  -0.89914
 Alpha  occ. eigenvalues --   -0.87308  -0.87206  -0.86926  -0.85513  -0.84831
 Alpha  occ. eigenvalues --   -0.83333  -0.81810  -0.80341  -0.79894  -0.79423
 Alpha  occ. eigenvalues --   -0.77216  -0.76767  -0.75851  -0.75761  -0.75593
 Alpha  occ. eigenvalues --   -0.75342  -0.74585  -0.73948  -0.73633  -0.70660
 Alpha  occ. eigenvalues --   -0.68938  -0.67293  -0.65844  -0.64831  -0.63895
 Alpha  occ. eigenvalues --   -0.63097  -0.62942  -0.61826  -0.61053  -0.59632
 Alpha  occ. eigenvalues --   -0.59156  -0.58821  -0.58363  -0.57898  -0.56177
 Alpha  occ. eigenvalues --   -0.55215  -0.54998  -0.54026  -0.53516  -0.53430
 Alpha  occ. eigenvalues --   -0.52631  -0.52202  -0.51619  -0.51155  -0.50752
 Alpha  occ. eigenvalues --   -0.50335  -0.49885  -0.49703  -0.49169  -0.49121
 Alpha  occ. eigenvalues --   -0.48947  -0.48742  -0.48635  -0.48433  -0.47985
 Alpha  occ. eigenvalues --   -0.47686  -0.47390  -0.46968  -0.46784  -0.46640
 Alpha  occ. eigenvalues --   -0.46095  -0.45774  -0.45475  -0.45327  -0.45204
 Alpha  occ. eigenvalues --   -0.44529  -0.44502  -0.44353  -0.44255  -0.43732
 Alpha  occ. eigenvalues --   -0.43508  -0.42426  -0.42336  -0.42236  -0.42077
 Alpha  occ. eigenvalues --   -0.41925  -0.41158  -0.41089  -0.40993  -0.40320
 Alpha  occ. eigenvalues --   -0.40266  -0.39870  -0.39696  -0.39405  -0.39142
 Alpha  occ. eigenvalues --   -0.39044  -0.38757  -0.38139  -0.38015  -0.37803
 Alpha  occ. eigenvalues --   -0.37462  -0.37337  -0.37019  -0.36669  -0.36302
 Alpha  occ. eigenvalues --   -0.35349  -0.35101  -0.34128  -0.32253  -0.31366
 Alpha  occ. eigenvalues --   -0.31178  -0.29710  -0.28276  -0.26397  -0.23269
 Alpha  occ. eigenvalues --   -0.19965
 Alpha virt. eigenvalues --   -0.05351  -0.01562   0.02685   0.05306   0.07376
 Alpha virt. eigenvalues --    0.08667   0.09136   0.10163   0.10715   0.11040
 Alpha virt. eigenvalues --    0.11533   0.11732   0.12069   0.12784   0.13109

 Mulliken charges:
               1
     1  O   -0.550503
     2  O   -0.583796
     3  C   -0.033829
     4  C   -0.030432
     5  C   -0.177354
     6  C   -0.203946
     7  C    0.178829
     8  C    0.169753
     9  C    0.082197
    10  C    0.066361
    11  C   -0.219141
    12  C   -0.260004
    13  C    0.056599
    14  C    0.096489
    15  C   -0.276707
    16  C   -0.284876
    17  C   -0.298113
    18  C   -0.314442
    19  C   -0.121841
    20  C   -0.107837
    21  C   -0.348995
    22  C   -0.348815
    23  C   -0.121960
    24  C   -0.107887
    25  C    0.116313
    26  C    0.102503
    27  C   -0.376671
    28  C   -0.359184
    29  C   -0.132682
    30  C   -0.102460
    31  C   -0.063133
    32  C   -0.097170
    33  C   -0.120501
    34  C   -0.123630
    35  C    0.148259
    36  C    0.103180
    37  C   -0.389693
    38  C   -0.370031
    39  C   -0.132367
    40  C   -0.129238
    41  C   -0.105898
    42  C   -0.056629
    43  H    0.103062
    44  H    0.043696
    45  H    0.070006
    46  H    0.108527
    47  H    0.089720
    48  H    0.100134
    49  H    0.114291
    50  H    0.053701
    51  H    0.132826
    52  H    0.070665
    53  H    0.105149
    54  H    0.103108
    55  H    0.086791
    56  H    0.054408
    57  H    0.109750
    58  H    0.107379
    59  H    0.115076
    60  H    0.099959
    61  H    0.108603
    62  H    0.109649
    63  H    0.086124
    64  H    0.091426
    65  H    0.081490
    66  H    0.062274
    67  H    0.118979
    68  H    0.125636
    69  H    0.105741
    70  H    0.100590
    71  H    0.106279
    72  H    0.125375
    73  H    0.304203
    74  H    0.300758
    75  H    0.079197
    76  H    0.092584
    77  H    0.106420
    78  H    0.141454
    79  H    0.081510
    80  H    0.122913
    81  H    0.105680
    82  H    0.086929
    83  H    0.068720
    84  H    0.072713
    85  H    0.072272
    86  H    0.093425
    87  H    0.068464
    88  H    0.103984
    89  H    0.136838
    90  H    0.108681
    91  H    0.127987
    92  H    0.131146
    93  H    0.106528
    94  H    0.122227
    95  H    0.081587
    96  H    0.074899
    97  H    0.076176
    98  H    0.071575
 Sum of Mulliken charges =  -0.00000

 Dipole moment (field-independent basis, Debye):
    X=             -0.4837    Y=             -2.6086    Z=              1.6482  Tot=              3.1234
 Quadrupole moment (field-independent basis, Debye-Ang):
   XX=           -318.9396   YY=           -239.9209   ZZ=           -264.1436
   XY=             16.5086   XZ=             -9.3958   YZ=              3.3775

 Normal termination of Gaussian 16 at Tue Jul 16 16:04:45 2019.
