 Gaussian 16, Revision A.03,
 Gaussian 16:  ES64L-G16RevA.03 25-Dec-2016

 -------------------------------------
 # td=(NStates=1) CAM-B3LYP/6-31G(d,p)
 -------------------------------------

 --
 TD
 --
 Symbolic Z-matrix:
 Charge =  0 Multiplicity = 1

                         Standard orientation:
 ---------------------------------------------------------------------
 Center     Atomic      Atomic             Coordinates (Angstroms)
 Number     Number       Type             X           Y           Z
 ---------------------------------------------------------------------
      1          8           0       14.635321   -2.384369   -0.444907
      2          8           0      -14.813004    1.788457    0.939431
      3          6           0       11.062306   -1.504549    1.000483
      4          6           0      -12.309161   -1.103797    0.697566
      5          6           0       12.582526   -2.026594    0.987552
      6          6           0      -13.636224   -0.343547    0.771150
      7          6           0       13.265348   -2.051040   -0.460832
      8          6           0      -13.465045    1.150766    0.938648
      9          6           0       10.847039   -0.363184    0.039049
     10          6           0      -11.270019   -0.316242   -0.223457
     11          6           0       13.057457   -0.551997   -0.920008
     12          6           0      -12.791511    1.710043   -0.327422
     13          6           0       11.800603    0.075910   -0.803089
     14          6           0      -11.494427    0.884793   -0.698194
     15          6           0       10.699688   -1.148253    2.541048
     16          6           0       10.178652   -2.742514    0.569168
     17          6           0      -11.745370   -1.260899    2.081874
     18          6           0      -12.609109   -2.421898    0.071617
     19          6           0        9.586633    0.376810    0.156823
     20          6           0      -10.027396   -0.992981   -0.345584
     21          6           0       11.655448    1.192058   -1.735864
     22          6           0      -10.595828    1.658666   -1.693438
     23          6           0        9.313618    1.703426    0.021793
     24          6           0       -8.710489   -0.450416   -0.382120
     25          6           0        8.104879    2.305427    0.217257
     26          6           0       -7.515496   -1.183509   -0.590769
     27          6           0        8.093290    3.825967    0.569996
     28          6           0       -7.565013   -2.618551   -0.901907
     29          6           0        6.882398    1.635187    0.024880
     30          6           0       -6.370100   -0.549905   -0.359669
     31          6           0        5.627515    2.075260    0.297471
     32          6           0       -4.974345   -0.926993   -0.682278
     33          6           0        4.455943    1.331201    0.052975
     34          6           0       -3.898408   -0.151869   -0.409846
     35          6           0        3.160834    1.793060    0.146443
     36          6           0       -2.580124   -0.601122   -0.700202
     37          6           0        2.878484    3.215092    0.570444
     38          6           0       -2.219493   -2.036478   -1.019434
     39          6           0        2.132077    0.828712   -0.154691
     40          6           0       -1.498181    0.321533   -0.404642
     41          6           0        0.780416    1.002188   -0.060462
     42          6           0       -0.177791    0.036362   -0.424915
     43          1           0       13.002480   -1.249354    1.601043
     44          1           0       12.700989   -2.896930    1.487818
     45          1           0      -14.221282   -0.717422    1.755552
     46          1           0      -14.113667   -0.692551   -0.157153
     47          1           0       12.589249   -2.625693   -1.366740
     48          1           0      -12.820322    1.379395    1.807556
     49          1           0       13.931189   -0.260230   -0.566666
     50          1           0       13.205314   -0.561818   -1.980291
     51          1           0      -13.660279    1.673650   -1.038942
     52          1           0      -12.526169    2.858931   -0.154762
     53          1           0       11.197953   -1.817569    3.265554
     54          1           0        9.680653   -0.910812    2.488236
     55          1           0       11.431482   -0.207853    2.798536
     56          1           0       10.707721   -3.029121   -0.261318
     57          1           0       10.222139   -3.552902    1.444587
     58          1           0        9.127215   -2.318851    0.552086
     59          1           0      -11.448338   -0.385709    2.576162
     60          1           0      -10.769637   -1.845574    2.037506
     61          1           0      -12.360258   -1.698872    2.714917
     62          1           0      -13.212910   -3.145823    0.936494
     63          1           0      -11.775769   -3.000988    0.195051
     64          1           0      -13.159091   -2.435556   -0.917323
     65          1           0        8.561499   -0.157566    0.687452
     66          1           0       -9.944873   -2.002970   -0.365303
     67          1           0       10.633582    1.789629   -1.871655
     68          1           0       12.293174    1.997435   -1.461852
     69          1           0       11.991344    1.037329   -2.719010
     70          1           0      -11.245696    2.571826   -2.188997
     71          1           0      -10.282367    0.769587   -2.404460
     72          1           0       -9.651976    2.096465   -1.085521
     73          1           0       14.737934   -3.541072   -0.610147
     74          1           0      -15.113481    1.671991    1.941979
     75          1           0       10.290200    2.343693    0.069461
     76          1           0       -8.481041    0.668778   -0.210160
     77          1           0        9.188737    4.153279    0.934936
     78          1           0        7.494682    4.530397   -0.155485
     79          1           0        7.383659    3.950395    1.562572
     80          1           0       -7.747670   -3.422149   -0.016346
     81          1           0       -8.412909   -2.945071   -1.614358
     82          1           0       -6.570819   -3.058844   -1.354751
     83          1           0        7.016351    0.694774   -0.315125
     84          1           0       -6.631966    0.647911   -0.132785
     85          1           0        5.516027    3.172456    0.750628
     86          1           0       -4.819400   -2.013680   -0.838777
     87          1           0        4.642054    0.330064    0.006065
     88          1           0       -4.109429    0.857877   -0.111239
     89          1           0        2.754058    3.374357    1.695854
     90          1           0        1.839364    3.512605    0.155496
     91          1           0        3.707824    3.822283    0.002163
     92          1           0       -2.801368   -2.764778   -0.369112
     93          1           0       -2.526637   -2.342036   -1.972087
     94          1           0       -1.256378   -2.300835   -0.913294
     95          1           0        2.551734   -0.078142   -0.362996
     96          1           0       -1.857738    1.253021    0.017725
     97          1           0        0.072624    1.868884    0.082168
     98          1           0        0.201971   -0.935679   -0.751621
 ---------------------------------------------------------------------

 SCF Done:  E(RCAM-B3LYP) =  -1706.88901921     A.U. after   16 cycles

 Excitation energies and oscillator strengths:

 Excited State   1:      Singlet-A      1.7421 eV  711.68 nm  f=3.6493  <S**2>=0.000
     155 ->158        -0.13103
     156 ->157         0.70216
     156 <-157        -0.12934
 This state for optimization and/or second-order correction.
 Total Energy, E(TD-HF/TD-DFT) =  -1706.82499663
 Copying the excited state density for this state as the 1-particle RhoCI density.

 The electronic state is 1-A.
 Alpha  occ. eigenvalues --  -19.24436 -19.21498 -10.33044 -10.30143 -10.28595
 Alpha  occ. eigenvalues --  -10.27983 -10.27906 -10.27774 -10.27771 -10.27524
 Alpha  occ. eigenvalues --  -10.27426 -10.27318 -10.27166 -10.27146 -10.26944
 Alpha  occ. eigenvalues --  -10.26826 -10.26756 -10.26687 -10.26562 -10.26491
 Alpha  occ. eigenvalues --  -10.26457 -10.26408 -10.26380 -10.26198 -10.26174
 Alpha  occ. eigenvalues --  -10.26164 -10.26110 -10.25843 -10.25829 -10.25820
 Alpha  occ. eigenvalues --  -10.25547 -10.25223 -10.25220 -10.25173 -10.25166
 Alpha  occ. eigenvalues --  -10.25008 -10.24837 -10.24759 -10.24541 -10.24381
 Alpha  occ. eigenvalues --  -10.23572 -10.22968  -1.08289  -1.05878  -0.94283
 Alpha  occ. eigenvalues --   -0.93551  -0.92379  -0.91841  -0.91104  -0.90225
 Alpha  occ. eigenvalues --   -0.87803  -0.87578  -0.86742  -0.85300  -0.84214
 Alpha  occ. eigenvalues --   -0.82996  -0.81856  -0.79564  -0.78937  -0.78725
 Alpha  occ. eigenvalues --   -0.77153  -0.76783  -0.76206  -0.75707  -0.75507
 Alpha  occ. eigenvalues --   -0.75322  -0.75173  -0.74011  -0.73159  -0.70618
 Alpha  occ. eigenvalues --   -0.68879  -0.66924  -0.65291  -0.64527  -0.64213
 Alpha  occ. eigenvalues --   -0.63437  -0.62511  -0.61677  -0.60654  -0.60205
 Alpha  occ. eigenvalues --   -0.58736  -0.58659  -0.58199  -0.57520  -0.55879
 Alpha  occ. eigenvalues --   -0.55376  -0.54857  -0.54408  -0.54018  -0.53674
 Alpha  occ. eigenvalues --   -0.53303  -0.53143  -0.52362  -0.51631  -0.50902
 Alpha  occ. eigenvalues --   -0.50390  -0.50020  -0.49371  -0.49137  -0.48955
 Alpha  occ. eigenvalues --   -0.48724  -0.48343  -0.48151  -0.47901  -0.47554
 Alpha  occ. eigenvalues --   -0.47404  -0.47181  -0.46981  -0.46554  -0.46078
 Alpha  occ. eigenvalues --   -0.45931  -0.45804  -0.45476  -0.45227  -0.44717
 Alpha  occ. eigenvalues --   -0.44460  -0.44145  -0.43936  -0.43624  -0.43392
 Alpha  occ. eigenvalues --   -0.43010  -0.42270  -0.42146  -0.42088  -0.41635
 Alpha  occ. eigenvalues --   -0.41423  -0.41228  -0.41105  -0.40893  -0.40823
 Alpha  occ. eigenvalues --   -0.40446  -0.40090  -0.39681  -0.39560  -0.39253
 Alpha  occ. eigenvalues --   -0.39119  -0.38907  -0.38292  -0.38121  -0.37889
 Alpha  occ. eigenvalues --   -0.37433  -0.37110  -0.36717  -0.36596  -0.35787
 Alpha  occ. eigenvalues --   -0.35019  -0.34327  -0.33600  -0.32634  -0.31887
 Alpha  occ. eigenvalues --   -0.31721  -0.30648  -0.28699  -0.25805  -0.23106
 Alpha  occ. eigenvalues --   -0.17908
 Alpha virt. eigenvalues --   -0.07339  -0.01583   0.01634   0.05427   0.06030
 Alpha virt. eigenvalues --    0.08038   0.09824   0.10897   0.11189   0.11838
 Alpha virt. eigenvalues --    0.12344   0.12412   0.13034   0.13380   0.13481

 Mulliken charges:
               1
     1  O   -0.557066
     2  O   -0.564568
     3  C   -0.069368
     4  C   -0.020785
     5  C   -0.188430
     6  C   -0.144144
     7  C    0.159342
     8  C    0.132095
     9  C    0.103554
    10  C    0.127082
    11  C   -0.246708
    12  C   -0.217379
    13  C    0.100261
    14  C    0.004783
    15  C   -0.294178
    16  C   -0.271987
    17  C   -0.301373
    18  C   -0.291499
    19  C   -0.122282
    20  C   -0.154716
    21  C   -0.398667
    22  C   -0.336689
    23  C   -0.128609
    24  C   -0.110485
    25  C    0.098057
    26  C    0.195167
    27  C   -0.364222
    28  C   -0.388705
    29  C   -0.092428
    30  C   -0.149728
    31  C   -0.099166
    32  C   -0.107622
    33  C   -0.114783
    34  C   -0.089087
    35  C    0.115478
    36  C    0.091344
    37  C   -0.367078
    38  C   -0.375739
    39  C   -0.125875
    40  C   -0.137482
    41  C   -0.080146
    42  C   -0.067479
    43  H    0.100945
    44  H    0.088018
    45  H    0.057590
    46  H    0.097607
    47  H    0.049389
    48  H    0.090536
    49  H    0.137229
    50  H    0.102614
    51  H    0.125147
    52  H    0.089213
    53  H    0.113684
    54  H    0.115343
    55  H    0.072782
    56  H    0.110241
    57  H    0.079703
    58  H    0.095022
    59  H    0.108273
    60  H    0.090402
    61  H    0.109392
    62  H    0.052746
    63  H    0.114023
    64  H    0.114530
    65  H    0.064324
    66  H    0.076235
    67  H    0.119507
    68  H    0.127790
    69  H    0.115895
    70  H    0.095209
    71  H    0.121846
    72  H    0.103844
    73  H    0.321055
    74  H    0.302126
    75  H    0.095927
    76  H    0.069766
    77  H    0.100760
    78  H    0.122818
    79  H    0.096779
    80  H    0.103565
    81  H    0.111358
    82  H    0.101245
    83  H    0.071723
    84  H    0.051845
    85  H    0.075133
    86  H    0.082198
    87  H    0.082901
    88  H    0.090831
    89  H    0.127305
    90  H    0.106765
    91  H    0.110369
    92  H    0.110351
    93  H    0.128848
    94  H    0.120111
    95  H    0.080442
    96  H    0.083378
    97  H    0.084121
    98  H    0.080511
 Sum of Mulliken charges =  -0.00000

 Dipole moment (field-independent basis, Debye):
    X=              3.3536    Y=             -2.1388    Z=              1.3171  Tot=              4.1900
 Quadrupole moment (field-independent basis, Debye-Ang):
   XX=           -274.0157   YY=           -242.0748   ZZ=           -260.1038
   XY=             -1.6450   XZ=            -23.1100   YZ=              6.0228

 Normal termination of Gaussian 16 at Thu Jul 11 06:30:46 2019.
