 Gaussian 16, Revision A.03,
 Gaussian 16:  ES64L-G16RevA.03 25-Dec-2016

 -------------------------------------
 # td=(NStates=1) CAM-B3LYP/6-31G(d,p)
 -------------------------------------

 --
 TD
 --
 Symbolic Z-matrix:
 Charge =  0 Multiplicity = 1

                         Standard orientation:
 ---------------------------------------------------------------------
 Center     Atomic      Atomic             Coordinates (Angstroms)
 Number     Number       Type             X           Y           Z
 ---------------------------------------------------------------------
      1          8           0       14.828923   -2.062060   -0.294998
      2          8           0      -14.684332    2.043315    1.157317
      3          6           0       11.279383   -1.382507    0.990273
      4          6           0      -12.387102   -1.010857    0.715977
      5          6           0       12.730002   -1.690390    1.029706
      6          6           0      -13.612996   -0.186683    0.663325
      7          6           0       13.455800   -1.828612   -0.412475
      8          6           0      -13.444488    1.281097    0.949037
      9          6           0       11.010118   -0.196196   -0.016498
     10          6           0      -11.352728   -0.210499   -0.171230
     11          6           0       13.381160   -0.458995   -1.017492
     12          6           0      -12.799232    1.853355   -0.301225
     13          6           0       11.999971    0.207822   -0.824316
     14          6           0      -11.631040    1.042346   -0.709610
     15          6           0       10.842044   -1.026777    2.405583
     16          6           0       10.456018   -2.579831    0.633427
     17          6           0      -11.903355   -1.346639    2.020066
     18          6           0      -12.745231   -2.293515   -0.138450
     19          6           0        9.675929    0.307967    0.055119
     20          6           0      -10.037495   -0.870093   -0.387921
     21          6           0       11.748238    1.385102   -1.843382
     22          6           0      -10.582116    1.788892   -1.659919
     23          6           0        9.332694    1.623445   -0.015221
     24          6           0       -8.744442   -0.384688   -0.436671
     25          6           0        8.013281    2.140647    0.229505
     26          6           0       -7.611218   -1.317639   -0.597128
     27          6           0        7.906856    3.633687    0.548901
     28          6           0       -7.709315   -2.655225   -1.023459
     29          6           0        6.848033    1.491240    0.153273
     30          6           0       -6.343658   -0.667575   -0.393239
     31          6           0        5.490269    1.919082    0.340850
     32          6           0       -5.053013   -1.206563   -0.496593
     33          6           0        4.424707    1.185408    0.055921
     34          6           0       -3.893946   -0.397247   -0.321863
     35          6           0        3.091688    1.561800    0.114901
     36          6           0       -2.588096   -0.961126   -0.416156
     37          6           0        2.844354    3.041871    0.424778
     38          6           0       -2.419011   -2.237726   -0.847044
     39          6           0        2.078692    0.626693   -0.096655
     40          6           0       -1.708412    0.161852   -0.187354
     41          6           0        0.663165    0.850693   -0.062513
     42          6           0       -0.258768   -0.171148   -0.267717
     43          1           0       13.524377   -0.990185    1.450120
     44          1           0       13.081049   -2.616131    1.588770
     45          1           0      -14.210869   -0.651472    1.364690
     46          1           0      -14.313960   -0.290768   -0.279413
     47          1           0       13.167161   -2.559516   -1.038523
     48          1           0      -12.851464    1.297410    1.878662
     49          1           0       13.995754    0.207572   -0.320589
     50          1           0       13.723289   -0.720658   -2.059930
     51          1           0      -13.558524    1.935415   -1.166126
     52          1           0      -12.869205    3.051418   -0.196197
     53          1           0       10.881642   -1.812812    3.116794
     54          1           0        9.776624   -0.643068    2.365586
     55          1           0       11.509341   -0.333627    2.750632
     56          1           0       10.616714   -2.789481   -0.527101
     57          1           0       11.030426   -3.474070    1.250569
     58          1           0        9.259458   -2.466323    0.763581
     59          1           0      -11.885045   -0.413120    2.654609
     60          1           0      -10.773967   -1.678267    1.836213
     61          1           0      -12.454826   -2.140266    2.494371
     62          1           0      -13.451531   -2.726153    0.454543
     63          1           0      -11.958250   -3.023888   -0.152032
     64          1           0      -13.069870   -2.308206   -1.161612
     65          1           0        8.902595   -0.581822    0.388848
     66          1           0       -9.969043   -1.974124   -0.486291
     67          1           0       10.659199    1.608073   -1.959786
     68          1           0       11.925187    2.463515   -1.584467
     69          1           0       12.293391    1.072600   -2.838868
     70          1           0      -11.351130    2.387224   -2.080304
     71          1           0      -10.280063    1.029136   -2.323548
     72          1           0       -9.859666    2.376475   -1.095039
     73          1           0       14.918708   -2.947472   -0.377534
     74          1           0      -15.248442    1.695018    1.748887
     75          1           0       10.104419    2.280950   -0.383377
     76          1           0       -8.635257    0.670310   -0.183331
     77          1           0        8.753915    4.103016    0.465338
     78          1           0        7.174794    4.142953   -0.143230
     79          1           0        7.393322    3.664617    1.447835
     80          1           0       -8.089023   -3.259845   -0.121626
     81          1           0       -8.505763   -2.906770   -1.784497
     82          1           0       -6.880519   -3.082481   -1.480914
     83          1           0        7.119878    0.446490   -0.164986
     84          1           0       -6.347665    0.395205   -0.105595
     85          1           0        5.317744    3.098126    0.499898
     86          1           0       -5.107170   -2.424146   -0.724659
     87          1           0        4.601605    0.206278   -0.542117
     88          1           0       -3.937269    0.712543   -0.145774
     89          1           0        3.469332    3.341349    1.309820
     90          1           0        1.695367    3.302690    0.872922
     91          1           0        2.945775    3.611842   -0.506633
     92          1           0       -2.581264   -2.983511   -0.031062
     93          1           0       -2.979323   -2.441993   -1.673125
     94          1           0       -1.398129   -2.499919   -1.081037
     95          1           0        2.387368   -0.385924   -0.420295
     96          1           0       -2.096824    1.162405    0.029261
     97          1           0        0.342231    1.968576    0.018421
     98          1           0        0.256229   -1.090042   -0.628375
 ---------------------------------------------------------------------

 SCF Done:  E(RCAM-B3LYP) =  -1706.95143580     A.U. after   15 cycles

 Excitation energies and oscillator strengths:

 Excited State   1:      Singlet-A      2.2449 eV  552.28 nm  f=3.7553  <S**2>=0.000
     155 ->158        -0.16506
     156 ->157         0.68475
 This state for optimization and/or second-order correction.
 Total Energy, E(TD-HF/TD-DFT) =  -1706.86893566
 Copying the excited state density for this state as the 1-particle RhoCI density.

 The electronic state is 1-A.
 Alpha  occ. eigenvalues --  -19.20755 -19.19848 -10.30411 -10.29307 -10.27954
 Alpha  occ. eigenvalues --  -10.27617 -10.27372 -10.27328 -10.27312 -10.27300
 Alpha  occ. eigenvalues --  -10.27188 -10.27183 -10.27183 -10.27004 -10.26985
 Alpha  occ. eigenvalues --  -10.26928 -10.26892 -10.26796 -10.26717 -10.26684
 Alpha  occ. eigenvalues --  -10.26476 -10.26295 -10.26094 -10.26058 -10.26048
 Alpha  occ. eigenvalues --  -10.26036 -10.26025 -10.25922 -10.25809 -10.25807
 Alpha  occ. eigenvalues --  -10.25742 -10.25721 -10.25535 -10.25479 -10.25446
 Alpha  occ. eigenvalues --  -10.24863 -10.24834 -10.24044 -10.23987 -10.23314
 Alpha  occ. eigenvalues --  -10.23094 -10.23037  -1.12394  -1.08793  -0.94008
 Alpha  occ. eigenvalues --   -0.93815  -0.92854  -0.91852  -0.90605  -0.90202
 Alpha  occ. eigenvalues --   -0.87260  -0.87099  -0.86641  -0.85294  -0.84808
 Alpha  occ. eigenvalues --   -0.82942  -0.82127  -0.80160  -0.79832  -0.79084
 Alpha  occ. eigenvalues --   -0.77168  -0.76667  -0.76274  -0.75679  -0.75550
 Alpha  occ. eigenvalues --   -0.75467  -0.75178  -0.74556  -0.73125  -0.70518
 Alpha  occ. eigenvalues --   -0.69213  -0.67567  -0.65856  -0.64853  -0.63589
 Alpha  occ. eigenvalues --   -0.63041  -0.61723  -0.61634  -0.60862  -0.59968
 Alpha  occ. eigenvalues --   -0.59631  -0.58698  -0.58179  -0.57917  -0.56312
 Alpha  occ. eigenvalues --   -0.55975  -0.55458  -0.55010  -0.54183  -0.54085
 Alpha  occ. eigenvalues --   -0.53045  -0.52558  -0.52052  -0.51723  -0.51488
 Alpha  occ. eigenvalues --   -0.51143  -0.50435  -0.50064  -0.49873  -0.49613
 Alpha  occ. eigenvalues --   -0.49422  -0.49177  -0.48886  -0.48554  -0.48318
 Alpha  occ. eigenvalues --   -0.48016  -0.47173  -0.46795  -0.46287  -0.46208
 Alpha  occ. eigenvalues --   -0.46040  -0.45850  -0.45480  -0.44800  -0.44647
 Alpha  occ. eigenvalues --   -0.44531  -0.44154  -0.43993  -0.43746  -0.43396
 Alpha  occ. eigenvalues --   -0.43058  -0.42767  -0.42261  -0.41992  -0.41842
 Alpha  occ. eigenvalues --   -0.41643  -0.41168  -0.41038  -0.40759  -0.40516
 Alpha  occ. eigenvalues --   -0.40274  -0.39750  -0.39549  -0.39382  -0.39213
 Alpha  occ. eigenvalues --   -0.38653  -0.38318  -0.38275  -0.38026  -0.37756
 Alpha  occ. eigenvalues --   -0.37335  -0.37109  -0.36961  -0.36673  -0.35927
 Alpha  occ. eigenvalues --   -0.34927  -0.34117  -0.33135  -0.32369  -0.31762
 Alpha  occ. eigenvalues --   -0.31084  -0.29780  -0.27775  -0.25819  -0.22757
 Alpha  occ. eigenvalues --   -0.19122
 Alpha virt. eigenvalues --   -0.05246  -0.01018   0.02558   0.05446   0.07981
 Alpha virt. eigenvalues --    0.09814   0.10719   0.11420   0.11673   0.12065
 Alpha virt. eigenvalues --    0.12760   0.12960   0.13453   0.14002   0.14286

 Mulliken charges:
               1
     1  O   -0.528448
     2  O   -0.571495
     3  C   -0.010433
     4  C    0.003637
     5  C   -0.208542
     6  C   -0.194039
     7  C    0.123647
     8  C    0.177108
     9  C    0.100274
    10  C    0.072042
    11  C   -0.193364
    12  C   -0.231342
    13  C    0.017058
    14  C    0.006600
    15  C   -0.283684
    16  C   -0.272667
    17  C   -0.299766
    18  C   -0.310461
    19  C   -0.105330
    20  C   -0.167947
    21  C   -0.373953
    22  C   -0.339339
    23  C   -0.116317
    24  C   -0.075752
    25  C    0.072762
    26  C    0.109393
    27  C   -0.363657
    28  C   -0.396834
    29  C   -0.112124
    30  C   -0.116457
    31  C   -0.107928
    32  C   -0.113106
    33  C   -0.088205
    34  C   -0.132406
    35  C    0.106124
    36  C    0.172704
    37  C   -0.370752
    38  C   -0.396691
    39  C   -0.133902
    40  C   -0.141492
    41  C   -0.075998
    42  C   -0.107430
    43  H    0.104921
    44  H    0.071925
    45  H    0.074301
    46  H    0.090212
    47  H    0.080712
    48  H    0.082968
    49  H    0.127842
    50  H    0.105732
    51  H    0.113802
    52  H    0.106270
    53  H    0.102241
    54  H    0.094829
    55  H    0.107965
    56  H    0.082441
    57  H    0.084717
    58  H    0.095152
    59  H    0.102532
    60  H    0.102559
    61  H    0.106462
    62  H    0.099725
    63  H    0.093908
    64  H    0.115617
    65  H    0.080231
    66  H    0.065758
    67  H    0.114730
    68  H    0.112865
    69  H    0.093367
    70  H    0.105271
    71  H    0.132392
    72  H    0.123447
    73  H    0.292125
    74  H    0.290466
    75  H    0.087429
    76  H    0.085247
    77  H    0.102243
    78  H    0.105784
    79  H    0.134216
    80  H    0.117848
    81  H    0.121432
    82  H    0.121855
    83  H    0.062740
    84  H    0.074463
    85  H    0.082624
    86  H    0.074381
    87  H    0.081760
    88  H    0.090912
    89  H    0.125174
    90  H    0.075469
    91  H    0.136386
    92  H    0.130711
    93  H    0.142202
    94  H    0.111583
    95  H    0.073685
    96  H    0.107088
    97  H    0.078104
    98  H    0.097696
 Sum of Mulliken charges =  -0.00000

 Dipole moment (field-independent basis, Debye):
    X=             -0.2174    Y=             -2.9486    Z=             -0.2607  Tot=              2.9681
 Quadrupole moment (field-independent basis, Debye-Ang):
   XX=           -274.9476   YY=           -241.4588   ZZ=           -261.9814
   XY=              6.9936   XZ=            -16.2330   YZ=              3.9633

 Normal termination of Gaussian 16 at Thu Jul 11 08:35:20 2019.
