 Gaussian 16, Revision A.03,
 Gaussian 16:  ES64L-G16RevA.03 25-Dec-2016

 -------------------------------------
 # td=(NStates=1) CAM-B3LYP/6-31G(d,p)
 -------------------------------------

 --
 TD
 --
 Symbolic Z-matrix:
 Charge =  0 Multiplicity = 1

                         Standard orientation:
 ---------------------------------------------------------------------
 Center     Atomic      Atomic             Coordinates (Angstroms)
 Number     Number       Type             X           Y           Z
 ---------------------------------------------------------------------
      1          8           0       14.684723   -2.360258   -0.367489
      2          8           0      -14.877423    1.784829    0.990785
      3          6           0       11.306012   -1.389674    1.066185
      4          6           0      -12.380895   -1.097453    0.454366
      5          6           0       12.721980   -1.782966    1.059617
      6          6           0      -13.698111   -0.328817    0.394327
      7          6           0       13.293111   -1.936490   -0.417416
      8          6           0      -13.647230    1.127810    0.933660
      9          6           0       11.037448   -0.301528   -0.054993
     10          6           0      -11.332528   -0.267490   -0.320396
     11          6           0       13.221200   -0.573617   -1.128062
     12          6           0      -12.796673    1.864837   -0.207095
     13          6           0       11.907106    0.054206   -0.898868
     14          6           0      -11.569019    1.050386   -0.615962
     15          6           0       10.815315   -0.957270    2.405857
     16          6           0       10.420934   -2.634922    0.653374
     17          6           0      -11.810278   -1.370734    1.864704
     18          6           0      -12.612448   -2.471499   -0.220430
     19          6           0        9.657364    0.418671    0.119395
     20          6           0      -10.110314   -0.931739   -0.380962
     21          6           0       11.509518    0.985667   -2.056086
     22          6           0      -10.553230    1.982495   -1.403525
     23          6           0        9.426212    1.713847    0.009147
     24          6           0       -8.801538   -0.458934   -0.342013
     25          6           0        8.127068    2.267126    0.195440
     26          6           0       -7.582802   -1.260450   -0.577043
     27          6           0        8.048772    3.833239    0.319234
     28          6           0       -7.755264   -2.642765   -1.050209
     29          6           0        6.992792    1.579057    0.077729
     30          6           0       -6.359104   -0.594925   -0.252964
     31          6           0        5.612713    2.074929    0.162147
     32          6           0       -5.081759   -1.091984   -0.525257
     33          6           0        4.544570    1.241258    0.063238
     34          6           0       -3.991016   -0.310537   -0.171293
     35          6           0        3.175927    1.765616    0.206922
     36          6           0       -2.670797   -0.797462   -0.310134
     37          6           0        2.876170    3.087369    0.610590
     38          6           0       -2.437948   -2.197699   -0.706666
     39          6           0        2.164158    0.734590    0.076788
     40          6           0       -1.526342    0.173568   -0.157899
     41          6           0        0.796492    1.102143   -0.021991
     42          6           0       -0.222504    0.078970   -0.204380
     43          1           0       13.337757   -1.049669    1.427503
     44          1           0       12.819592   -2.677748    1.679193
     45          1           0      -14.400945   -0.665327    1.038784
     46          1           0      -14.218796   -0.333912   -0.488234
     47          1           0       12.904201   -2.742094   -1.008105
     48          1           0      -13.062923    0.997168    1.875265
     49          1           0       13.894768   -0.033483   -0.531585
     50          1           0       13.438366   -0.618084   -2.221349
     51          1           0      -13.490144    1.888142   -0.993474
     52          1           0      -12.305070    2.746686    0.202774
     53          1           0       11.130516   -1.623075    3.263204
     54          1           0        9.895102   -0.775186    2.399518
     55          1           0       11.268557    0.023069    2.813020
     56          1           0       10.772887   -2.992056   -0.250380
     57          1           0       10.604420   -3.506418    1.403805
     58          1           0        9.250075   -2.663342    0.521724
     59          1           0      -11.577057   -0.373120    2.398011
     60          1           0      -10.744619   -1.933953    1.898096
     61          1           0      -12.446705   -1.806845    2.686218
     62          1           0      -13.285133   -3.028716    0.568071
     63          1           0      -11.656877   -3.059408   -0.112697
     64          1           0      -13.013784   -2.259179   -1.164316
     65          1           0        8.848572   -0.132592    0.498457
     66          1           0      -10.041258   -1.959327   -0.081894
     67          1           0       10.360029    0.924071   -2.151591
     68          1           0       12.201424    1.788040   -1.984094
     69          1           0       11.765966    0.520374   -2.902782
     70          1           0      -11.211402    2.288641   -2.125841
     71          1           0       -9.825310    1.354914   -2.054176
     72          1           0      -10.118597    2.956655   -0.852036
     73          1           0       14.677924   -3.057428    0.339189
     74          1           0      -15.386379    1.469633    1.671098
     75          1           0       10.375164    2.300972   -0.151099
     76          1           0       -8.838659    0.738685   -0.292669
     77          1           0        9.092466    4.211989    0.481353
     78          1           0        7.494506    4.296679   -0.504226
     79          1           0        7.574666    4.062406    1.148869
     80          1           0       -7.980118   -3.170509   -0.082285
     81          1           0       -8.541920   -2.678150   -1.848970
     82          1           0       -6.822328   -3.161810   -1.465515
     83          1           0        7.059257    0.526810   -0.169798
     84          1           0       -6.381448    0.370883    0.102502
     85          1           0        5.530002    3.076053    0.333061
     86          1           0       -5.095746   -1.979762   -1.138684
     87          1           0        4.696164    0.118491   -0.414162
     88          1           0       -4.155019    0.701401    0.248816
     89          1           0        3.551434    3.447023    1.383446
     90          1           0        1.807586    3.188403    0.851295
     91          1           0        3.095890    3.746567   -0.207221
     92          1           0       -2.787239   -2.916721    0.069411
     93          1           0       -2.725943   -2.288747   -1.679635
     94          1           0       -1.318127   -2.344268   -0.788528
     95          1           0        2.449462   -0.172685   -0.330192
     96          1           0       -1.908499    1.262838    0.113615
     97          1           0        0.368283    2.035143    0.247237
     98          1           0        0.326229   -0.855653   -0.548815
 ---------------------------------------------------------------------

 SCF Done:  E(RCAM-B3LYP) =  -1706.97792271     A.U. after   16 cycles

 Excitation energies and oscillator strengths:

 Excited State   1:      Singlet-A      1.8287 eV  677.99 nm  f=3.5125  <S**2>=0.000
     155 ->158         0.12294
     156 ->157         0.70500
     156 <-157        -0.13393
 This state for optimization and/or second-order correction.
 Total Energy, E(TD-HF/TD-DFT) =  -1706.91071924
 Copying the excited state density for this state as the 1-particle RhoCI density.

 The electronic state is 1-A.
 Alpha  occ. eigenvalues --  -19.21850 -19.20465 -10.30738 -10.30339 -10.27905
 Alpha  occ. eigenvalues --  -10.27870 -10.27598 -10.27489 -10.27478 -10.27371
 Alpha  occ. eigenvalues --  -10.27208 -10.26873 -10.26715 -10.26518 -10.26410
 Alpha  occ. eigenvalues --  -10.26406 -10.26395 -10.26184 -10.26087 -10.25957
 Alpha  occ. eigenvalues --  -10.25945 -10.25731 -10.25580 -10.25314 -10.25314
 Alpha  occ. eigenvalues --  -10.25250 -10.25181 -10.25136 -10.25081 -10.25075
 Alpha  occ. eigenvalues --  -10.25051 -10.25041 -10.24994 -10.24935 -10.24919
 Alpha  occ. eigenvalues --  -10.24905 -10.24691 -10.24526 -10.24448 -10.23530
 Alpha  occ. eigenvalues --  -10.23344 -10.22929  -1.11892  -1.07731  -0.94178
 Alpha  occ. eigenvalues --   -0.93522  -0.91885  -0.91343  -0.90545  -0.89421
 Alpha  occ. eigenvalues --   -0.88188  -0.87089  -0.86244  -0.85460  -0.84775
 Alpha  occ. eigenvalues --   -0.83071  -0.82322  -0.80255  -0.79602  -0.79285
 Alpha  occ. eigenvalues --   -0.77137  -0.76619  -0.76300  -0.76062  -0.75757
 Alpha  occ. eigenvalues --   -0.75604  -0.75267  -0.75071  -0.72618  -0.70630
 Alpha  occ. eigenvalues --   -0.68548  -0.67644  -0.66390  -0.65002  -0.64080
 Alpha  occ. eigenvalues --   -0.63608  -0.62825  -0.61683  -0.60895  -0.60352
 Alpha  occ. eigenvalues --   -0.59986  -0.59017  -0.58132  -0.57510  -0.56076
 Alpha  occ. eigenvalues --   -0.55618  -0.54776  -0.54479  -0.54375  -0.53714
 Alpha  occ. eigenvalues --   -0.52652  -0.52521  -0.52167  -0.52007  -0.51215
 Alpha  occ. eigenvalues --   -0.50990  -0.50875  -0.50337  -0.50123  -0.49666
 Alpha  occ. eigenvalues --   -0.49323  -0.49110  -0.48739  -0.48718  -0.48543
 Alpha  occ. eigenvalues --   -0.47705  -0.47465  -0.47117  -0.46561  -0.46063
 Alpha  occ. eigenvalues --   -0.45746  -0.45700  -0.45541  -0.45232  -0.44921
 Alpha  occ. eigenvalues --   -0.44724  -0.44402  -0.43975  -0.43928  -0.43447
 Alpha  occ. eigenvalues --   -0.43113  -0.42959  -0.42651  -0.42488  -0.42177
 Alpha  occ. eigenvalues --   -0.42115  -0.41927  -0.41436  -0.41244  -0.41084
 Alpha  occ. eigenvalues --   -0.40567  -0.40411  -0.40134  -0.39860  -0.39349
 Alpha  occ. eigenvalues --   -0.39130  -0.38529  -0.38198  -0.38104  -0.37828
 Alpha  occ. eigenvalues --   -0.37417  -0.37266  -0.36754  -0.36708  -0.35912
 Alpha  occ. eigenvalues --   -0.35448  -0.34222  -0.33624  -0.32377  -0.31743
 Alpha  occ. eigenvalues --   -0.31405  -0.30286  -0.28690  -0.25460  -0.23189
 Alpha  occ. eigenvalues --   -0.17575
 Alpha virt. eigenvalues --   -0.06662  -0.00481   0.02148   0.06000   0.08515
 Alpha virt. eigenvalues --    0.10705   0.11808   0.12254   0.12901   0.13294
 Alpha virt. eigenvalues --    0.13377   0.13654   0.13939   0.14519   0.14635

 Mulliken charges:
               1
     1  O   -0.578613
     2  O   -0.535938
     3  C   -0.004387
     4  C   -0.031481
     5  C   -0.214206
     6  C   -0.181759
     7  C    0.150849
     8  C    0.138471
     9  C    0.091162
    10  C    0.133505
    11  C   -0.214209
    12  C   -0.196225
    13  C   -0.005383
    14  C   -0.020506
    15  C   -0.277999
    16  C   -0.310964
    17  C   -0.311750
    18  C   -0.276705
    19  C   -0.142809
    20  C   -0.142067
    21  C   -0.363460
    22  C   -0.367186
    23  C   -0.083543
    24  C   -0.121888
    25  C    0.064117
    26  C    0.061709
    27  C   -0.372668
    28  C   -0.371165
    29  C   -0.117178
    30  C   -0.093701
    31  C   -0.080851
    32  C   -0.077368
    33  C   -0.109866
    34  C   -0.115364
    35  C    0.106352
    36  C    0.077938
    37  C   -0.382965
    38  C   -0.370428
    39  C   -0.116340
    40  C   -0.124408
    41  C   -0.096176
    42  C   -0.080677
    43  H    0.116740
    44  H    0.084820
    45  H    0.070494
    46  H    0.101314
    47  H    0.091948
    48  H    0.074899
    49  H    0.129738
    50  H    0.113368
    51  H    0.129533
    52  H    0.111593
    53  H    0.087935
    54  H    0.114513
    55  H    0.081302
    56  H    0.113201
    57  H    0.078689
    58  H    0.094645
    59  H    0.094624
    60  H    0.096579
    61  H    0.098888
    62  H    0.085910
    63  H    0.097973
    64  H    0.112017
    65  H    0.083923
    66  H    0.071995
    67  H    0.126596
    68  H    0.116170
    69  H    0.111811
    70  H    0.126770
    71  H    0.117459
    72  H    0.104962
    73  H    0.302956
    74  H    0.299115
    75  H    0.096034
    76  H    0.084188
    77  H    0.101019
    78  H    0.122720
    79  H    0.132251
    80  H    0.132427
    81  H    0.131071
    82  H    0.105311
    83  H    0.071431
    84  H    0.077581
    85  H    0.075058
    86  H    0.088888
    87  H    0.081665
    88  H    0.090994
    89  H    0.125110
    90  H    0.117489
    91  H    0.131451
    92  H    0.125640
    93  H    0.138555
    94  H    0.101448
    95  H    0.085521
    96  H    0.058456
    97  H    0.081966
    98  H    0.067375
 Sum of Mulliken charges =  -0.00000

 Dipole moment (field-independent basis, Debye):
    X=             -1.7831    Y=             -0.9111    Z=              1.3953  Tot=              2.4406
 Quadrupole moment (field-independent basis, Debye-Ang):
   XX=           -266.9978   YY=           -245.6069   ZZ=           -257.9014
   XY=             11.3291   XZ=             -3.0967   YZ=              0.8216

 Normal termination of Gaussian 16 at Sun Jul 14 12:51:43 2019.
