 Gaussian 16, Revision A.03,
 Gaussian 16:  ES64L-G16RevA.03 25-Dec-2016

 -------------------------------------
 # td=(NStates=1) CAM-B3LYP/6-31G(d,p)
 -------------------------------------

 --
 TD
 --
 Symbolic Z-matrix:
 Charge =  0 Multiplicity = 1

                         Standard orientation:
 ---------------------------------------------------------------------
 Center     Atomic      Atomic             Coordinates (Angstroms)
 Number     Number       Type             X           Y           Z
 ---------------------------------------------------------------------
      1          8           0       14.638536   -2.446187   -0.435237
      2          8           0      -14.956625    1.785613    0.713014
      3          6           0       11.157456   -1.478217    1.028386
      4          6           0      -12.390301   -1.075694    0.595404
      5          6           0       12.750784   -1.870374    0.957223
      6          6           0      -13.652022   -0.284412    0.652007
      7          6           0       13.305224   -1.974473   -0.368716
      8          6           0      -13.619692    1.159147    0.886807
      9          6           0       11.007542   -0.237288    0.059733
     10          6           0      -11.375975   -0.307917   -0.214123
     11          6           0       13.301977   -0.585756   -1.075982
     12          6           0      -12.882917    1.923969   -0.197583
     13          6           0       11.910656    0.024526   -0.959243
     14          6           0      -11.673494    1.022495   -0.664696
     15          6           0       10.831704   -1.118798    2.496027
     16          6           0       10.247495   -2.594724    0.580093
     17          6           0      -11.911392   -1.238647    2.017607
     18          6           0      -12.678011   -2.440104   -0.100694
     19          6           0        9.672146    0.426681    0.240570
     20          6           0      -10.074366   -0.969632   -0.451937
     21          6           0       11.767250    1.249804   -1.950205
     22          6           0      -10.649448    1.780511   -1.564029
     23          6           0        9.411128    1.725743    0.084312
     24          6           0       -8.749383   -0.516799   -0.410065
     25          6           0        8.050571    2.399192    0.135376
     26          6           0       -7.464669   -1.273039   -0.644084
     27          6           0        7.913060    3.912025    0.388706
     28          6           0       -7.592342   -2.665110   -0.831747
     29          6           0        6.839376    1.522107    0.112988
     30          6           0       -6.265671   -0.610589   -0.386495
     31          6           0        5.657780    2.096380    0.243773
     32          6           0       -4.999784   -1.121274   -0.467157
     33          6           0        4.555188    1.423322   -0.004147
     34          6           0       -3.954752   -0.344857   -0.244124
     35          6           0        3.186577    1.779830    0.255465
     36          6           0       -2.540480   -0.758334   -0.414452
     37          6           0        2.837025    3.061750    0.574589
     38          6           0       -2.283283   -2.165259   -0.892257
     39          6           0        2.204245    0.776586    0.008235
     40          6           0       -1.563036    0.168491   -0.172042
     41          6           0        0.761891    0.922166    0.070350
     42          6           0       -0.246051   -0.075934   -0.279207
     43          1           0       13.244119   -1.091965    1.381868
     44          1           0       12.835469   -2.798647    1.543521
     45          1           0      -14.528148   -0.723588    1.427821
     46          1           0      -14.210654   -0.436645   -0.327445
     47          1           0       12.759520   -2.685227   -1.104170
     48          1           0      -13.357616    1.391620    2.000150
     49          1           0       14.190244   -0.164437   -0.425217
     50          1           0       13.514059   -0.928233   -2.038235
     51          1           0      -13.486324    2.193663   -1.056834
     52          1           0      -12.524354    2.797863   -0.068462
     53          1           0       11.187801   -1.712339    3.137947
     54          1           0        9.637399   -0.752272    2.480562
     55          1           0       11.507220   -0.285634    2.745245
     56          1           0       10.757593   -2.966301   -0.333806
     57          1           0        9.964278   -3.459760    1.427841
     58          1           0        9.288053   -2.159589    0.154432
     59          1           0      -11.788432   -0.183168    2.454151
     60          1           0      -10.860267   -1.641398    1.877642
     61          1           0      -12.415257   -2.269718    2.445005
     62          1           0      -13.414549   -2.599947    0.488909
     63          1           0      -11.891916   -3.143535   -0.146707
     64          1           0      -12.722664   -2.303186   -1.151463
     65          1           0        8.817764   -0.182368    0.381891
     66          1           0      -10.034742   -2.141411   -0.388430
     67          1           0       10.700088    1.435937   -2.198860
     68          1           0       11.922651    2.328385   -1.617764
     69          1           0       12.452462    1.136044   -2.864054
     70          1           0      -11.366005    2.076715   -2.391799
     71          1           0       -9.721720    1.023079   -1.816833
     72          1           0      -10.185540    2.521782   -0.934772
     73          1           0       14.662515   -3.325734   -0.073411
     74          1           0      -15.170067    1.966780    1.862141
     75          1           0       10.401154    2.305733    0.110556
     76          1           0       -8.472410    0.423177   -0.177608
     77          1           0        8.975182    4.291434    0.352596
     78          1           0        7.501247    4.327903   -0.435319
     79          1           0        7.279144    4.004090    1.428590
     80          1           0       -8.350012   -3.306201   -0.109977
     81          1           0       -8.127502   -2.698898   -1.836931
     82          1           0       -6.603530   -3.201199   -1.017516
     83          1           0        7.115367    0.406207   -0.027227
     84          1           0       -6.200073    0.490826   -0.158765
     85          1           0        5.504860    3.275396    0.194057
     86          1           0       -4.842562   -2.124056   -0.888773
     87          1           0        4.647497    0.341898   -0.112133
     88          1           0       -4.004711    0.699902   -0.016820
     89          1           0        3.040824    3.406606    1.663421
     90          1           0        1.709876    3.606005    0.416879
     91          1           0        3.331404    3.954751    0.012544
     92          1           0       -2.732940   -2.794387   -0.279222
     93          1           0       -2.497431   -2.346010   -1.969994
     94          1           0       -1.207767   -2.407044   -0.981017
     95          1           0        2.629254   -0.337727   -0.108637
     96          1           0       -1.794247    1.079250    0.555105
     97          1           0        0.520774    1.954592    0.356974
     98          1           0        0.146287   -0.989395   -0.631866
 ---------------------------------------------------------------------

 SCF Done:  E(RCAM-B3LYP) =  -1706.81079244     A.U. after   15 cycles

 Excitation energies and oscillator strengths:

 Excited State   1:      Singlet-A      2.0762 eV  597.16 nm  f=3.6687  <S**2>=0.000
     155 ->158         0.15262
     156 ->157         0.69040
 This state for optimization and/or second-order correction.
 Total Energy, E(TD-HF/TD-DFT) =  -1706.73449256
 Copying the excited state density for this state as the 1-particle RhoCI density.

 The electronic state is 1-A.
 Alpha  occ. eigenvalues --  -19.22388 -19.20808 -10.31569 -10.29913 -10.28910
 Alpha  occ. eigenvalues --  -10.28208 -10.27983 -10.27861 -10.27700 -10.27671
 Alpha  occ. eigenvalues --  -10.27530 -10.27492 -10.27478 -10.27450 -10.27369
 Alpha  occ. eigenvalues --  -10.27307 -10.27080 -10.26850 -10.26833 -10.26812
 Alpha  occ. eigenvalues --  -10.26557 -10.26552 -10.26501 -10.26374 -10.26309
 Alpha  occ. eigenvalues --  -10.26261 -10.26221 -10.26014 -10.25955 -10.25925
 Alpha  occ. eigenvalues --  -10.25820 -10.25813 -10.25757 -10.25721 -10.25575
 Alpha  occ. eigenvalues --  -10.25529 -10.25349 -10.25157 -10.24687 -10.24421
 Alpha  occ. eigenvalues --  -10.24225 -10.22598  -1.09910  -1.05541  -0.93624
 Alpha  occ. eigenvalues --   -0.92975  -0.92769  -0.92574  -0.90908  -0.89545
 Alpha  occ. eigenvalues --   -0.87555  -0.86652  -0.86472  -0.86070  -0.84373
 Alpha  occ. eigenvalues --   -0.83453  -0.82696  -0.80481  -0.79636  -0.78939
 Alpha  occ. eigenvalues --   -0.77363  -0.76729  -0.76699  -0.75948  -0.75835
 Alpha  occ. eigenvalues --   -0.75657  -0.75016  -0.74748  -0.72892  -0.70152
 Alpha  occ. eigenvalues --   -0.68306  -0.67042  -0.65558  -0.64383  -0.63563
 Alpha  occ. eigenvalues --   -0.62797  -0.61736  -0.61532  -0.61024  -0.60184
 Alpha  occ. eigenvalues --   -0.59383  -0.58861  -0.57856  -0.57730  -0.56805
 Alpha  occ. eigenvalues --   -0.55869  -0.55665  -0.55345  -0.54599  -0.54116
 Alpha  occ. eigenvalues --   -0.53642  -0.52986  -0.52222  -0.51723  -0.50765
 Alpha  occ. eigenvalues --   -0.50451  -0.50111  -0.49891  -0.49427  -0.49369
 Alpha  occ. eigenvalues --   -0.49017  -0.48936  -0.48464  -0.48242  -0.47971
 Alpha  occ. eigenvalues --   -0.47630  -0.47532  -0.47067  -0.46520  -0.46457
 Alpha  occ. eigenvalues --   -0.45838  -0.45649  -0.45478  -0.45127  -0.44633
 Alpha  occ. eigenvalues --   -0.44373  -0.44294  -0.43440  -0.43129  -0.42931
 Alpha  occ. eigenvalues --   -0.42737  -0.42568  -0.42150  -0.42045  -0.41874
 Alpha  occ. eigenvalues --   -0.41796  -0.41133  -0.40864  -0.40778  -0.40537
 Alpha  occ. eigenvalues --   -0.40318  -0.40179  -0.39813  -0.39592  -0.39444
 Alpha  occ. eigenvalues --   -0.39307  -0.39170  -0.38870  -0.38138  -0.37979
 Alpha  occ. eigenvalues --   -0.37319  -0.36659  -0.36122  -0.35869  -0.35419
 Alpha  occ. eigenvalues --   -0.34720  -0.34122  -0.33669  -0.32642  -0.32019
 Alpha  occ. eigenvalues --   -0.31727  -0.29395  -0.28270  -0.25725  -0.23034
 Alpha  occ. eigenvalues --   -0.19119
 Alpha virt. eigenvalues --   -0.06255  -0.01604   0.01614   0.05026   0.06297
 Alpha virt. eigenvalues --    0.06608   0.09127   0.11161   0.11190   0.11433
 Alpha virt. eigenvalues --    0.12260   0.12586   0.12739   0.12953   0.13301

 Mulliken charges:
               1
     1  O   -0.563038
     2  O   -0.547955
     3  C   -0.017123
     4  C   -0.032340
     5  C   -0.176411
     6  C   -0.157857
     7  C    0.137555
     8  C    0.127195
     9  C    0.031242
    10  C    0.069995
    11  C   -0.210043
    12  C   -0.168870
    13  C    0.050229
    14  C   -0.021369
    15  C   -0.273640
    16  C   -0.288907
    17  C   -0.283059
    18  C   -0.288893
    19  C   -0.089897
    20  C   -0.137296
    21  C   -0.366511
    22  C   -0.350306
    23  C   -0.118960
    24  C   -0.090694
    25  C    0.018565
    26  C    0.111503
    27  C   -0.357096
    28  C   -0.383620
    29  C   -0.091151
    30  C   -0.127013
    31  C   -0.068592
    32  C   -0.061160
    33  C   -0.123145
    34  C   -0.108847
    35  C    0.177520
    36  C    0.085952
    37  C   -0.425470
    38  C   -0.373303
    39  C   -0.138141
    40  C   -0.120832
    41  C   -0.103214
    42  C   -0.075045
    43  H    0.105882
    44  H    0.075921
    45  H    0.059074
    46  H    0.106186
    47  H    0.059665
    48  H    0.071778
    49  H    0.120018
    50  H    0.123425
    51  H    0.127632
    52  H    0.116312
    53  H    0.107770
    54  H    0.087708
    55  H    0.092883
    56  H    0.103971
    57  H    0.082224
    58  H    0.100198
    59  H    0.105206
    60  H    0.098204
    61  H    0.084818
    62  H    0.109764
    63  H    0.098655
    64  H    0.114530
    65  H    0.079015
    66  H    0.063322
    67  H    0.120180
    68  H    0.109043
    69  H    0.098449
    70  H    0.107934
    71  H    0.104025
    72  H    0.120552
    73  H    0.301780
    74  H    0.286353
    75  H    0.087764
    76  H    0.073278
    77  H    0.107223
    78  H    0.143283
    79  H    0.122129
    80  H    0.110798
    81  H    0.122307
    82  H    0.101157
    83  H    0.091387
    84  H    0.081960
    85  H    0.088600
    86  H    0.088906
    87  H    0.072629
    88  H    0.081807
    89  H    0.122628
    90  H    0.094377
    91  H    0.111934
    92  H    0.137424
    93  H    0.122130
    94  H    0.104767
    95  H    0.070241
    96  H    0.086969
    97  H    0.078081
    98  H    0.085790
 Sum of Mulliken charges =  -0.00000

 Dipole moment (field-independent basis, Debye):
    X=              0.1907    Y=             -0.4777    Z=              1.9583  Tot=              2.0247
 Quadrupole moment (field-independent basis, Debye-Ang):
   XX=           -309.6963   YY=           -238.0041   ZZ=           -262.5169
   XY=             -3.7247   XZ=             -9.2166   YZ=              4.2264

 Normal termination of Gaussian 16 at Mon Jul 15 01:42:16 2019.
