 Gaussian 16, Revision A.03,
 Gaussian 16:  ES64L-G16RevA.03 25-Dec-2016

 -------------------------------------
 # td=(NStates=1) CAM-B3LYP/6-31G(d,p)
 -------------------------------------

 --
 TD
 --
 Symbolic Z-matrix:
 Charge =  0 Multiplicity = 1

                         Standard orientation:
 ---------------------------------------------------------------------
 Center     Atomic      Atomic             Coordinates (Angstroms)
 Number     Number       Type             X           Y           Z
 ---------------------------------------------------------------------
      1          8           0       14.594086   -2.410836   -0.418603
      2          8           0      -14.988783    1.752410    0.791740
      3          6           0       11.231043   -1.511774    0.998033
      4          6           0      -12.477158   -1.076572    0.423793
      5          6           0       12.714296   -1.967668    1.019619
      6          6           0      -13.792085   -0.284041    0.418486
      7          6           0       13.302056   -1.905811   -0.379070
      8          6           0      -13.753245    1.134726    0.838915
      9          6           0       11.036641   -0.265272    0.109893
     10          6           0      -11.338025   -0.164734   -0.169898
     11          6           0       13.294194   -0.583907   -0.965008
     12          6           0      -12.779979    1.860655   -0.129970
     13          6           0       11.896036    0.061841   -0.906464
     14          6           0      -11.524284    1.090682   -0.464373
     15          6           0       10.898965   -1.037871    2.468464
     16          6           0       10.229729   -2.643356    0.609257
     17          6           0      -11.968564   -1.715822    1.805170
     18          6           0      -12.599032   -2.252142   -0.482324
     19          6           0        9.599744    0.459055    0.226784
     20          6           0       -9.980503   -0.919903   -0.407573
     21          6           0       11.797287    1.250423   -1.947338
     22          6           0      -10.474078    2.082130   -1.116437
     23          6           0        9.336988    1.680946    0.065675
     24          6           0       -8.729163   -0.480781   -0.181446
     25          6           0        8.095590    2.306056    0.096705
     26          6           0       -7.515751   -1.151645   -0.565807
     27          6           0        8.022432    3.825630    0.323057
     28          6           0       -7.683373   -2.530403   -1.121284
     29          6           0        6.921288    1.583473    0.023417
     30          6           0       -6.312943   -0.606060   -0.192106
     31          6           0        5.583543    2.098694    0.102423
     32          6           0       -5.051743   -1.180110   -0.297359
     33          6           0        4.491263    1.410371   -0.085900
     34          6           0       -3.873422   -0.359073   -0.114537
     35          6           0        3.167443    1.739619    0.080609
     36          6           0       -2.517863   -0.828041   -0.339411
     37          6           0        2.914890    3.090073    0.691397
     38          6           0       -2.280710   -2.188844   -0.880929
     39          6           0        2.099896    0.845847   -0.154956
     40          6           0       -1.554246    0.144226   -0.095811
     41          6           0        0.698178    0.883652    0.080137
     42          6           0       -0.152956   -0.093322   -0.283175
     43          1           0       13.282870   -1.472299    1.628600
     44          1           0       12.486903   -2.889627    1.534379
     45          1           0      -14.363899   -0.750334    1.229222
     46          1           0      -14.305581   -0.483690   -0.670451
     47          1           0       12.742057   -2.482973   -1.208940
     48          1           0      -13.346396    1.049825    1.861111
     49          1           0       13.937630    0.099577   -0.518130
     50          1           0       13.609391   -0.648240   -2.022664
     51          1           0      -13.231118    2.259102   -1.182468
     52          1           0      -12.451477    2.718565    0.358476
     53          1           0       10.896428   -1.804334    3.080465
     54          1           0        9.684290   -0.867849    2.303854
     55          1           0       11.415393   -0.192098    2.740626
     56          1           0       10.650192   -3.109353   -0.339541
     57          1           0       10.255538   -3.459385    1.337973
     58          1           0        9.371550   -2.079396    0.562170
     59          1           0      -11.980067   -0.807463    2.582939
     60          1           0      -10.981736   -2.097166    1.681029
     61          1           0      -12.780557   -2.438212    2.122158
     62          1           0      -13.640168   -2.818607   -0.304612
     63          1           0      -11.769958   -2.962532   -0.197565
     64          1           0      -12.371646   -2.123783   -1.561937
     65          1           0        8.962240   -0.347261    0.509065
     66          1           0      -10.193106   -1.994933   -0.656879
     67          1           0       10.678300    1.467064   -2.310820
     68          1           0       12.257135    2.076889   -1.435680
     69          1           0       12.519031    1.059472   -2.812611
     70          1           0      -10.967738    2.752525   -1.747076
     71          1           0       -9.697156    1.530077   -1.474065
     72          1           0       -9.946589    2.706549   -0.381720
     73          1           0       14.766915   -3.252332    0.050685
     74          1           0      -15.517768    1.644114    1.681204
     75          1           0       10.285423    2.541897   -0.339507
     76          1           0       -8.671426    0.478914    0.378756
     77          1           0        9.120407    4.270107    0.305378
     78          1           0        7.246961    4.301548   -0.300817
     79          1           0        7.569903    3.965255    1.244105
     80          1           0       -7.964859   -3.110096   -0.349040
     81          1           0       -8.454167   -2.823393   -1.843230
     82          1           0       -6.682533   -3.039376   -1.339959
     83          1           0        6.859739    0.534194   -0.193580
     84          1           0       -6.085867    0.454303    0.055777
     85          1           0        5.562830    3.054415    0.615385
     86          1           0       -4.849666   -2.212928   -0.576300
     87          1           0        4.675632    0.570566   -0.700067
     88          1           0       -4.155007    0.543213    0.370927
     89          1           0        3.339073    3.208377    1.766852
     90          1           0        1.849664    3.206779    0.422219
     91          1           0        3.412869    3.929139   -0.004900
     92          1           0       -2.767338   -3.079524   -0.355740
     93          1           0       -2.692223   -2.143342   -1.869706
     94          1           0       -1.275184   -2.188219   -0.851908
     95          1           0        2.482898   -0.165423   -0.660733
     96          1           0       -1.962786    1.042824    0.423772
     97          1           0        0.225376    1.804892    0.525473
     98          1           0        0.282685   -0.964310   -0.750996
 ---------------------------------------------------------------------

 SCF Done:  E(RCAM-B3LYP) =  -1706.98955566     A.U. after   15 cycles

 Excitation energies and oscillator strengths:

 Excited State   1:      Singlet-A      2.3673 eV  523.74 nm  f=3.7886  <S**2>=0.000
     155 ->158        -0.16312
     156 ->157         0.68660
 This state for optimization and/or second-order correction.
 Total Energy, E(TD-HF/TD-DFT) =  -1706.90255970
 Copying the excited state density for this state as the 1-particle RhoCI density.

 The electronic state is 1-A.
 Alpha  occ. eigenvalues --  -19.21879 -19.20097 -10.30227 -10.30047 -10.27653
 Alpha  occ. eigenvalues --  -10.27637 -10.27462 -10.27340 -10.27193 -10.27018
 Alpha  occ. eigenvalues --  -10.27017 -10.26933 -10.26906 -10.26848 -10.26721
 Alpha  occ. eigenvalues --  -10.26591 -10.26572 -10.26521 -10.26494 -10.26279
 Alpha  occ. eigenvalues --  -10.26272 -10.26184 -10.26035 -10.25987 -10.25798
 Alpha  occ. eigenvalues --  -10.25767 -10.25677 -10.25626 -10.25404 -10.25375
 Alpha  occ. eigenvalues --  -10.25348 -10.25125 -10.25120 -10.25018 -10.24972
 Alpha  occ. eigenvalues --  -10.24970 -10.24943 -10.24195 -10.24082 -10.23935
 Alpha  occ. eigenvalues --  -10.23559 -10.23474  -1.09457  -1.09287  -0.93086
 Alpha  occ. eigenvalues --   -0.92808  -0.92540  -0.92034  -0.90986  -0.90410
 Alpha  occ. eigenvalues --   -0.87946  -0.86868  -0.86409  -0.85514  -0.84700
 Alpha  occ. eigenvalues --   -0.82975  -0.82488  -0.80441  -0.79770  -0.78553
 Alpha  occ. eigenvalues --   -0.77077  -0.76983  -0.76199  -0.76041  -0.75746
 Alpha  occ. eigenvalues --   -0.75206  -0.75120  -0.74562  -0.73645  -0.70884
 Alpha  occ. eigenvalues --   -0.69105  -0.67291  -0.66334  -0.65164  -0.63511
 Alpha  occ. eigenvalues --   -0.63114  -0.62315  -0.61831  -0.61262  -0.60303
 Alpha  occ. eigenvalues --   -0.59749  -0.59068  -0.58667  -0.57830  -0.56382
 Alpha  occ. eigenvalues --   -0.55727  -0.55206  -0.54674  -0.53819  -0.53487
 Alpha  occ. eigenvalues --   -0.53215  -0.52680  -0.51999  -0.51715  -0.51431
 Alpha  occ. eigenvalues --   -0.50765  -0.50654  -0.49698  -0.49572  -0.49303
 Alpha  occ. eigenvalues --   -0.48576  -0.48287  -0.48112  -0.47967  -0.47922
 Alpha  occ. eigenvalues --   -0.47681  -0.47557  -0.47189  -0.46976  -0.46851
 Alpha  occ. eigenvalues --   -0.46693  -0.46613  -0.45468  -0.45149  -0.44786
 Alpha  occ. eigenvalues --   -0.44712  -0.44480  -0.44198  -0.43825  -0.43675
 Alpha  occ. eigenvalues --   -0.43151  -0.42866  -0.42608  -0.42127  -0.42020
 Alpha  occ. eigenvalues --   -0.41494  -0.41479  -0.41120  -0.40919  -0.40729
 Alpha  occ. eigenvalues --   -0.40615  -0.40175  -0.40049  -0.39766  -0.39741
 Alpha  occ. eigenvalues --   -0.38912  -0.38866  -0.38458  -0.38220  -0.37984
 Alpha  occ. eigenvalues --   -0.37881  -0.37358  -0.36477  -0.36200  -0.35059
 Alpha  occ. eigenvalues --   -0.34801  -0.33763  -0.33604  -0.32375  -0.31351
 Alpha  occ. eigenvalues --   -0.30781  -0.29803  -0.28493  -0.26785  -0.23496
 Alpha  occ. eigenvalues --   -0.19843
 Alpha virt. eigenvalues --   -0.05384  -0.00871   0.03223   0.06528   0.08243
 Alpha virt. eigenvalues --    0.10069   0.10200   0.10330   0.12228   0.12541
 Alpha virt. eigenvalues --    0.12781   0.13086   0.13286   0.13682   0.14089

 Mulliken charges:
               1
     1  O   -0.581584
     2  O   -0.555936
     3  C   -0.082531
     4  C   -0.007200
     5  C   -0.178436
     6  C   -0.174073
     7  C    0.198380
     8  C    0.175786
     9  C    0.052831
    10  C    0.067977
    11  C   -0.205543
    12  C   -0.217164
    13  C    0.012978
    14  C    0.021188
    15  C   -0.266727
    16  C   -0.284172
    17  C   -0.294054
    18  C   -0.299999
    19  C   -0.096633
    20  C   -0.140414
    21  C   -0.354923
    22  C   -0.355375
    23  C   -0.093279
    24  C   -0.104484
    25  C    0.093091
    26  C    0.109328
    27  C   -0.376515
    28  C   -0.390160
    29  C   -0.123923
    30  C   -0.126491
    31  C   -0.072675
    32  C   -0.079464
    33  C   -0.102992
    34  C   -0.137489
    35  C    0.105476
    36  C    0.087937
    37  C   -0.364304
    38  C   -0.354749
    39  C   -0.140587
    40  C   -0.127825
    41  C   -0.077779
    42  C   -0.079223
    43  H    0.104335
    44  H    0.082716
    45  H    0.069165
    46  H    0.088911
    47  H    0.058652
    48  H    0.073660
    49  H    0.118984
    50  H    0.106786
    51  H    0.097655
    52  H    0.114308
    53  H    0.103451
    54  H    0.055491
    55  H    0.118182
    56  H    0.106896
    57  H    0.101948
    58  H    0.105576
    59  H    0.076155
    60  H    0.122555
    61  H    0.099679
    62  H    0.083756
    63  H    0.089628
    64  H    0.110843
    65  H    0.088386
    66  H    0.069734
    67  H    0.117441
    68  H    0.130114
    69  H    0.098624
    70  H    0.110784
    71  H    0.124953
    72  H    0.106032
    73  H    0.305875
    74  H    0.311592
    75  H    0.054957
    76  H    0.089789
    77  H    0.099878
    78  H    0.124489
    79  H    0.139867
    80  H    0.142063
    81  H    0.126651
    82  H    0.097059
    83  H    0.075042
    84  H    0.082062
    85  H    0.064476
    86  H    0.072660
    87  H    0.070258
    88  H    0.081527
    89  H    0.123344
    90  H    0.108222
    91  H    0.097045
    92  H    0.120015
    93  H    0.138045
    94  H    0.112839
    95  H    0.063814
    96  H    0.095509
    97  H    0.087643
    98  H    0.101614
 Sum of Mulliken charges =  -0.00000

 Dipole moment (field-independent basis, Debye):
    X=              0.0437    Y=             -1.6212    Z=              2.3555  Tot=              2.8599
 Quadrupole moment (field-independent basis, Debye-Ang):
   XX=           -270.2303   YY=           -242.9904   ZZ=           -260.5928
   XY=              2.2371   XZ=            -10.2499   YZ=              2.7146

 Normal termination of Gaussian 16 at Wed Jul 17 01:35:40 2019.
