 Gaussian 16, Revision A.03,
 Gaussian 16:  ES64L-G16RevA.03 25-Dec-2016

 -------------------------------------
 # td=(NStates=1) CAM-B3LYP/6-31G(d,p)
 -------------------------------------

 --
 TD
 --
 Symbolic Z-matrix:
 Charge =  0 Multiplicity = 1

                         Standard orientation:
 ---------------------------------------------------------------------
 Center     Atomic      Atomic             Coordinates (Angstroms)
 Number     Number       Type             X           Y           Z
 ---------------------------------------------------------------------
      1          8           0       14.614405   -2.351088   -0.212733
      2          8           0      -15.005705    1.455656    1.038295
      3          6           0       11.303319   -1.489701    1.069942
      4          6           0      -12.255718   -1.135293    0.696620
      5          6           0       12.734093   -2.045882    1.010722
      6          6           0      -13.705055   -0.545070    0.786860
      7          6           0       13.202127   -2.044263   -0.330010
      8          6           0      -13.676641    0.910424    0.943223
      9          6           0       11.060338   -0.289005    0.101783
     10          6           0      -11.281335   -0.278549   -0.108374
     11          6           0       13.244598   -0.591137   -1.012751
     12          6           0      -13.014763    1.647350   -0.110953
     13          6           0       11.876488    0.137225   -0.884996
     14          6           0      -11.598939    0.952195   -0.574764
     15          6           0       10.883475   -1.093095    2.472035
     16          6           0       10.366339   -2.748016    0.636162
     17          6           0      -11.818632   -1.237614    2.259394
     18          6           0      -12.421331   -2.540562    0.150505
     19          6           0        9.782876    0.336913    0.321564
     20          6           0      -10.044293   -0.925181   -0.528113
     21          6           0       11.657687    1.201837   -1.914711
     22          6           0      -10.795498    1.858102   -1.387673
     23          6           0        9.357917    1.640113    0.060993
     24          6           0       -8.761172   -0.465431   -0.338125
     25          6           0        8.078083    2.203747    0.179290
     26          6           0       -7.605012   -1.075024   -0.679130
     27          6           0        8.019209    3.676487    0.541827
     28          6           0       -7.627642   -2.428290   -1.433367
     29          6           0        6.881376    1.398365    0.052439
     30          6           0       -6.357623   -0.475650   -0.434199
     31          6           0        5.569401    2.046779    0.330811
     32          6           0       -5.049246   -0.861061   -0.803905
     33          6           0        4.483860    1.236217    0.049367
     34          6           0       -3.964519   -0.147938   -0.455163
     35          6           0        3.143769    1.709150    0.150554
     36          6           0       -2.600862   -0.495373   -0.651112
     37          6           0        2.893355    3.136374    0.631045
     38          6           0       -2.304221   -1.789761   -1.230678
     39          6           0        2.199675    0.937221   -0.175404
     40          6           0       -1.559188    0.435828   -0.249156
     41          6           0        0.781908    1.211346   -0.067700
     42          6           0       -0.254562    0.211298   -0.374236
     43          1           0       13.424393   -1.381171    1.621551
     44          1           0       12.837005   -3.148043    1.454181
     45          1           0      -14.351123   -0.997406    1.399233
     46          1           0      -14.128040   -0.581089   -0.318699
     47          1           0       12.574747   -2.725977   -1.036060
     48          1           0      -13.109581    1.070663    1.753182
     49          1           0       14.076442   -0.065411   -0.623359
     50          1           0       13.477018   -0.500230   -2.124671
     51          1           0      -13.617001    1.793782   -1.158105
     52          1           0      -12.768156    2.737545    0.316041
     53          1           0       11.089402   -2.003673    3.174791
     54          1           0       10.000257   -0.715535    2.534246
     55          1           0       11.550319   -0.163685    2.838077
     56          1           0       10.605360   -3.086336   -0.322808
     57          1           0       10.571256   -3.543034    1.199815
     58          1           0        9.319827   -2.242519    0.672433
     59          1           0      -11.885065   -0.293325    2.754380
     60          1           0      -10.875281   -1.580192    2.145341
     61          1           0      -12.413152   -2.046047    2.711561
     62          1           0      -13.428255   -3.171955    0.537232
     63          1           0      -11.556435   -3.241563    0.353385
     64          1           0      -12.568520   -2.411024   -0.931015
     65          1           0        8.987197   -0.311482    0.682327
     66          1           0      -10.016260   -1.980990   -0.612395
     67          1           0       10.491755    1.247196   -2.166106
     68          1           0       12.226520    2.148462   -1.842259
     69          1           0       11.988095    0.838518   -3.120784
     70          1           0      -11.292103    2.487305   -1.964542
     71          1           0      -10.115609    1.107322   -2.082953
     72          1           0      -10.208115    2.412410   -0.800704
     73          1           0       14.685735   -3.271988   -0.113930
     74          1           0      -15.563914    0.978090    1.833362
     75          1           0       10.107436    2.417584   -0.203856
     76          1           0       -8.472379    0.588596    0.153070
     77          1           0        9.069971    3.873982    0.913453
     78          1           0        7.847971    4.361224   -0.609246
     79          1           0        7.302213    4.033013    1.385685
     80          1           0       -8.183468   -3.236558   -0.931288
     81          1           0       -8.192636   -2.330234   -2.416057
     82          1           0       -6.538280   -2.922791   -1.768297
     83          1           0        7.017346    0.357297   -0.260030
     84          1           0       -6.530511    0.517528    0.028523
     85          1           0        5.565997    3.177237    0.417224
     86          1           0       -5.009399   -1.867575   -1.412081
     87          1           0        4.664582    0.182051   -0.106156
     88          1           0       -4.151844    0.820281   -0.017633
     89          1           0        3.366041    3.462902    1.633857
     90          1           0        2.075155    3.480617    0.792000
     91          1           0        3.437749    3.860465   -0.065328
     92          1           0       -2.622460   -2.560763   -0.480685
     93          1           0       -2.742493   -2.073201   -2.162531
     94          1           0       -1.283439   -2.014941   -1.467952
     95          1           0        2.484823   -0.117689   -0.726168
     96          1           0       -1.767422    1.462807    0.116235
     97          1           0        0.526439    2.084919    0.165144
     98          1           0        0.208442   -0.862378   -0.548828
 ---------------------------------------------------------------------

 SCF Done:  E(RCAM-B3LYP) =  -1706.89403585     A.U. after   15 cycles

 Excitation energies and oscillator strengths:

 Excited State   1:      Singlet-A      2.0911 eV  592.91 nm  f=3.8742  <S**2>=0.000
     155 ->158        -0.16146
     156 ->157         0.68756
 This state for optimization and/or second-order correction.
 Total Energy, E(TD-HF/TD-DFT) =  -1706.81718902
 Copying the excited state density for this state as the 1-particle RhoCI density.

 The electronic state is 1-A.
 Alpha  occ. eigenvalues --  -19.21124 -19.20419 -10.30994 -10.28838 -10.28162
 Alpha  occ. eigenvalues --  -10.27956 -10.27889 -10.27726 -10.27645 -10.27389
 Alpha  occ. eigenvalues --  -10.27336 -10.27169 -10.27139 -10.27099 -10.27028
 Alpha  occ. eigenvalues --  -10.26995 -10.26967 -10.26926 -10.26823 -10.26781
 Alpha  occ. eigenvalues --  -10.26719 -10.26692 -10.26324 -10.26301 -10.26218
 Alpha  occ. eigenvalues --  -10.26178 -10.26142 -10.26111 -10.26098 -10.26077
 Alpha  occ. eigenvalues --  -10.26041 -10.25965 -10.25703 -10.25550 -10.25190
 Alpha  occ. eigenvalues --  -10.25087 -10.25023 -10.24621 -10.24301 -10.23853
 Alpha  occ. eigenvalues --  -10.23635 -10.23554  -1.09491  -1.06623  -0.93385
 Alpha  occ. eigenvalues --   -0.93339  -0.92867  -0.92155  -0.90814  -0.89825
 Alpha  occ. eigenvalues --   -0.87542  -0.86675  -0.86495  -0.85338  -0.84684
 Alpha  occ. eigenvalues --   -0.83708  -0.82621  -0.80169  -0.79530  -0.79371
 Alpha  occ. eigenvalues --   -0.76992  -0.76720  -0.76514  -0.76038  -0.75946
 Alpha  occ. eigenvalues --   -0.75266  -0.74910  -0.74865  -0.73193  -0.71411
 Alpha  occ. eigenvalues --   -0.68845  -0.67200  -0.65261  -0.64671  -0.63909
 Alpha  occ. eigenvalues --   -0.63806  -0.62644  -0.62085  -0.61020  -0.60404
 Alpha  occ. eigenvalues --   -0.59142  -0.58825  -0.58022  -0.57530  -0.56174
 Alpha  occ. eigenvalues --   -0.55726  -0.55126  -0.54747  -0.54424  -0.53912
 Alpha  occ. eigenvalues --   -0.53349  -0.53114  -0.51775  -0.51689  -0.50485
 Alpha  occ. eigenvalues --   -0.50092  -0.49832  -0.49456  -0.49371  -0.49144
 Alpha  occ. eigenvalues --   -0.48953  -0.48716  -0.48517  -0.48160  -0.47751
 Alpha  occ. eigenvalues --   -0.47512  -0.47252  -0.47016  -0.46902  -0.46682
 Alpha  occ. eigenvalues --   -0.46149  -0.45928  -0.45832  -0.45359  -0.45294
 Alpha  occ. eigenvalues --   -0.45050  -0.44749  -0.44434  -0.43557  -0.42917
 Alpha  occ. eigenvalues --   -0.42583  -0.42196  -0.41794  -0.41679  -0.41634
 Alpha  occ. eigenvalues --   -0.41427  -0.41360  -0.41095  -0.40930  -0.40675
 Alpha  occ. eigenvalues --   -0.40553  -0.40526  -0.39901  -0.39487  -0.39386
 Alpha  occ. eigenvalues --   -0.39130  -0.38979  -0.38652  -0.38470  -0.38110
 Alpha  occ. eigenvalues --   -0.37573  -0.37306  -0.36384  -0.36163  -0.35305
 Alpha  occ. eigenvalues --   -0.34922  -0.34618  -0.34237  -0.32908  -0.32234
 Alpha  occ. eigenvalues --   -0.31503  -0.29977  -0.28611  -0.25754  -0.22828
 Alpha  occ. eigenvalues --   -0.19201
 Alpha virt. eigenvalues --   -0.06349  -0.01695   0.01616   0.05754   0.08172
 Alpha virt. eigenvalues --    0.09497   0.10458   0.11222   0.11516   0.11761
 Alpha virt. eigenvalues --    0.12033   0.12699   0.12932   0.13430   0.13865

 Mulliken charges:
               1
     1  O   -0.551849
     2  O   -0.580911
     3  C   -0.045095
     4  C   -0.038297
     5  C   -0.152186
     6  C   -0.160046
     7  C    0.138043
     8  C    0.206345
     9  C    0.108618
    10  C    0.086224
    11  C   -0.214068
    12  C   -0.214302
    13  C    0.057929
    14  C    0.030828
    15  C   -0.272966
    16  C   -0.294942
    17  C   -0.303369
    18  C   -0.300179
    19  C   -0.138353
    20  C   -0.177342
    21  C   -0.370857
    22  C   -0.345855
    23  C   -0.127982
    24  C   -0.094387
    25  C    0.078658
    26  C    0.156090
    27  C   -0.349432
    28  C   -0.379152
    29  C   -0.114126
    30  C   -0.138527
    31  C   -0.101258
    32  C   -0.072604
    33  C   -0.119911
    34  C   -0.103589
    35  C    0.167287
    36  C    0.102969
    37  C   -0.349127
    38  C   -0.388753
    39  C   -0.145756
    40  C   -0.115882
    41  C   -0.081644
    42  C   -0.079137
    43  H    0.106976
    44  H    0.064818
    45  H    0.082013
    46  H    0.073392
    47  H    0.080157
    48  H    0.080894
    49  H    0.127446
    50  H    0.092195
    51  H    0.096907
    52  H    0.091879
    53  H    0.085895
    54  H    0.118546
    55  H    0.079623
    56  H    0.104408
    57  H    0.111368
    58  H    0.087962
    59  H    0.106329
    60  H    0.112870
    61  H    0.097458
    62  H    0.074580
    63  H    0.093979
    64  H    0.114404
    65  H    0.079478
    66  H    0.084003
    67  H    0.122625
    68  H    0.132480
    69  H    0.059343
    70  H    0.116320
    71  H    0.095760
    72  H    0.133375
    73  H    0.295171
    74  H    0.297740
    75  H    0.087151
    76  H    0.070563
    77  H    0.111771
    78  H    0.075179
    79  H    0.121027
    80  H    0.119961
    81  H    0.119612
    82  H    0.083770
    83  H    0.089230
    84  H    0.070989
    85  H    0.104020
    86  H    0.081200
    87  H    0.093170
    88  H    0.084763
    89  H    0.100448
    90  H    0.105368
    91  H    0.110772
    92  H    0.122973
    93  H    0.127847
    94  H    0.112114
    95  H    0.066227
    96  H    0.089465
    97  H    0.059579
    98  H    0.081299
 Sum of Mulliken charges =  -0.00000

 Dipole moment (field-independent basis, Debye):
    X=              0.6409    Y=             -1.5958    Z=              0.8503  Tot=              1.9184
 Quadrupole moment (field-independent basis, Debye-Ang):
   XX=           -302.8076   YY=           -239.3803   ZZ=           -261.2238
   XY=              7.3853   XZ=            -14.6816   YZ=              3.7518

 Normal termination of Gaussian 16 at Sat Jul 13 00:14:42 2019.
