 Gaussian 16, Revision A.03,
 Gaussian 16:  ES64L-G16RevA.03 25-Dec-2016

 -------------------------------------
 # td=(NStates=1) CAM-B3LYP/6-31G(d,p)
 -------------------------------------

 --
 TD
 --
 Symbolic Z-matrix:
 Charge =  0 Multiplicity = 1

                         Standard orientation:
 ---------------------------------------------------------------------
 Center     Atomic      Atomic             Coordinates (Angstroms)
 Number     Number       Type             X           Y           Z
 ---------------------------------------------------------------------
      1          8           0       14.806074   -2.344188   -0.011604
      2          8           0      -14.810579    1.802641    1.235923
      3          6           0       11.242269   -1.502130    0.991034
      4          6           0      -12.335749   -1.118904    0.637088
      5          6           0       12.623937   -2.043274    1.050168
      6          6           0      -13.704267   -0.320651    0.816682
      7          6           0       13.410394   -1.947651   -0.202369
      8          6           0      -13.491287    1.127121    1.129148
      9          6           0       11.024500   -0.318073    0.044996
     10          6           0      -11.323495   -0.307184   -0.093702
     11          6           0       13.378512   -0.561163   -0.919130
     12          6           0      -12.861709    1.710059   -0.135388
     13          6           0       11.953516    0.038594   -0.820818
     14          6           0      -11.649105    0.925603   -0.595675
     15          6           0       10.769544   -1.107260    2.433843
     16          6           0       10.373750   -2.667241    0.560681
     17          6           0      -11.738504   -1.460288    2.015548
     18          6           0      -12.646927   -2.493159   -0.115578
     19          6           0        9.648490    0.299159    0.171518
     20          6           0      -10.133881   -0.952907   -0.499647
     21          6           0       11.776927    1.079819   -1.997667
     22          6           0      -10.701225    1.746960   -1.446205
     23          6           0        9.357730    1.671735    0.048507
     24          6           0       -8.923596   -0.465843   -0.252653
     25          6           0        8.018052    2.322256    0.087395
     26          6           0       -7.617366   -1.175363   -0.593316
     27          6           0        7.958985    3.715832    0.560937
     28          6           0       -7.758617   -2.544775   -1.274019
     29          6           0        6.910195    1.596760   -0.071940
     30          6           0       -6.410357   -0.575698   -0.368413
     31          6           0        5.609753    2.170442    0.140431
     32          6           0       -5.020798   -0.974962   -0.680419
     33          6           0        4.433344    1.417104   -0.142468
     34          6           0       -3.922382   -0.160189   -0.352470
     35          6           0        3.098849    1.810732    0.061686
     36          6           0       -2.605002   -0.649722   -0.557555
     37          6           0        2.902253    3.237608    0.539898
     38          6           0       -2.276075   -1.953903   -1.027930
     39          6           0        2.136370    0.935720   -0.291913
     40          6           0       -1.560216    0.188963   -0.254246
     41          6           0        0.764745    1.079866   -0.188368
     42          6           0       -0.172814    0.033434   -0.498047
     43          1           0       13.059230   -1.454924    2.011293
     44          1           0       12.557409   -3.033855    1.619389
     45          1           0      -14.482960   -0.650518    1.446666
     46          1           0      -14.151049   -0.683069   -0.120531
     47          1           0       12.706726   -2.442918   -0.819270
     48          1           0      -12.886338    1.284469    1.935354
     49          1           0       14.119374    0.384633   -0.329505
     50          1           0       13.596048   -0.746760   -1.944030
     51          1           0      -13.810575    1.774004   -0.908834
     52          1           0      -12.881731    2.724629   -0.164760
     53          1           0       10.954641   -1.892695    3.156690
     54          1           0        9.694396   -0.672263    2.421092
     55          1           0       11.466709   -0.224510    2.735506
     56          1           0       10.838555   -3.165822   -0.433803
     57          1           0       10.506658   -3.468190    1.340967
     58          1           0        9.328378   -2.486522    0.246180
     59          1           0      -11.524769   -0.615300    2.682204
     60          1           0      -10.614033   -1.712108    1.751571
     61          1           0      -12.243264   -2.278968    2.689109
     62          1           0      -13.327956   -3.107316    0.551249
     63          1           0      -11.874051   -3.233881   -0.379448
     64          1           0      -12.985545   -2.016086   -1.153397
     65          1           0        8.802645   -0.281964    0.584554
     66          1           0      -10.111062   -1.977495   -1.121995
     67          1           0       10.779386    1.199918   -2.082341
     68          1           0       12.340133    1.989994   -1.637678
     69          1           0       12.289458    0.688254   -2.881281
     70          1           0      -11.297610    2.364625   -2.204014
     71          1           0      -10.006676    1.153539   -2.143096
     72          1           0      -10.074204    2.221535   -0.852485
     73          1           0       14.593826   -3.305041    0.203157
     74          1           0      -15.096296    1.327964    2.035817
     75          1           0       10.081555    2.498366   -0.044995
     76          1           0       -8.874603    0.555289    0.209692
     77          1           0        9.057200    3.935667    0.672573
     78          1           0        7.330768    4.430192   -0.162218
     79          1           0        7.645487    3.748882    1.728831
     80          1           0       -8.139377   -3.339323   -0.437014
     81          1           0       -8.434013   -2.541470   -2.156051
     82          1           0       -6.831991   -3.105321   -1.689715
     83          1           0        6.927984    0.503710   -0.334628
     84          1           0       -6.782599    0.549277   -0.080563
     85          1           0        5.623784    3.163992    0.317214
     86          1           0       -4.859435   -1.989744   -0.746826
     87          1           0        4.753486    0.430086   -0.232676
     88          1           0       -4.058728    0.889449   -0.278559
     89          1           0        3.148947    3.480978    1.642752
     90          1           0        1.894567    3.346117    0.831091
     91          1           0        3.276530    3.963076   -0.114875
     92          1           0       -2.650368   -2.725436   -0.350791
     93          1           0       -2.688580   -2.263133   -2.110904
     94          1           0       -1.262741   -2.151851   -1.090302
     95          1           0        2.533238    0.017751   -0.553534
     96          1           0       -1.740685    1.279080    0.023774
     97          1           0        0.268197    1.987503    0.434393
     98          1           0        0.319492   -0.838666   -0.963286
 ---------------------------------------------------------------------

 SCF Done:  E(RCAM-B3LYP) =  -1706.96264623     A.U. after   14 cycles

 Excitation energies and oscillator strengths:

 Excited State   1:      Singlet-A      2.3123 eV  536.19 nm  f=3.6448  <S**2>=0.000
     155 ->158        -0.15386
     156 ->157         0.68932
 This state for optimization and/or second-order correction.
 Total Energy, E(TD-HF/TD-DFT) =  -1706.87767048
 Copying the excited state density for this state as the 1-particle RhoCI density.

 The electronic state is 1-A.
 Alpha  occ. eigenvalues --  -19.22536 -19.21392 -10.30753 -10.29843 -10.28173
 Alpha  occ. eigenvalues --  -10.28050 -10.28038 -10.27750 -10.27716 -10.27594
 Alpha  occ. eigenvalues --  -10.27551 -10.27496 -10.27421 -10.27306 -10.27250
 Alpha  occ. eigenvalues --  -10.27134 -10.27108 -10.27057 -10.26920 -10.26761
 Alpha  occ. eigenvalues --  -10.26691 -10.26677 -10.26657 -10.26536 -10.26316
 Alpha  occ. eigenvalues --  -10.26252 -10.26216 -10.26047 -10.25907 -10.25755
 Alpha  occ. eigenvalues --  -10.25697 -10.25668 -10.25564 -10.25556 -10.25554
 Alpha  occ. eigenvalues --  -10.25402 -10.25360 -10.25238 -10.25235 -10.24651
 Alpha  occ. eigenvalues --  -10.24572 -10.24441  -1.08596  -1.08330  -0.94090
 Alpha  occ. eigenvalues --   -0.94074  -0.92834  -0.92227  -0.90922  -0.89578
 Alpha  occ. eigenvalues --   -0.87133  -0.86822  -0.86186  -0.85704  -0.84817
 Alpha  occ. eigenvalues --   -0.83280  -0.82101  -0.80070  -0.79639  -0.79079
 Alpha  occ. eigenvalues --   -0.76808  -0.76236  -0.76167  -0.75994  -0.75399
 Alpha  occ. eigenvalues --   -0.75131  -0.74962  -0.74859  -0.73735  -0.70925
 Alpha  occ. eigenvalues --   -0.68817  -0.67741  -0.66195  -0.65089  -0.64451
 Alpha  occ. eigenvalues --   -0.63661  -0.63020  -0.62231  -0.61493  -0.60692
 Alpha  occ. eigenvalues --   -0.58870  -0.58359  -0.58233  -0.57532  -0.56344
 Alpha  occ. eigenvalues --   -0.55540  -0.54947  -0.54474  -0.54292  -0.53873
 Alpha  occ. eigenvalues --   -0.52887  -0.52512  -0.51966  -0.51511  -0.51271
 Alpha  occ. eigenvalues --   -0.50489  -0.50184  -0.49777  -0.49580  -0.49185
 Alpha  occ. eigenvalues --   -0.48918  -0.48681  -0.48405  -0.48232  -0.47886
 Alpha  occ. eigenvalues --   -0.47743  -0.47470  -0.47011  -0.46778  -0.46530
 Alpha  occ. eigenvalues --   -0.46192  -0.45843  -0.45620  -0.45458  -0.45434
 Alpha  occ. eigenvalues --   -0.44591  -0.44486  -0.44084  -0.43539  -0.43051
 Alpha  occ. eigenvalues --   -0.42868  -0.42444  -0.42244  -0.41952  -0.41907
 Alpha  occ. eigenvalues --   -0.41602  -0.41393  -0.41253  -0.40951  -0.40795
 Alpha  occ. eigenvalues --   -0.40386  -0.40306  -0.39943  -0.39657  -0.39390
 Alpha  occ. eigenvalues --   -0.39182  -0.39072  -0.38599  -0.38050  -0.37844
 Alpha  occ. eigenvalues --   -0.37597  -0.37363  -0.36458  -0.36130  -0.35651
 Alpha  occ. eigenvalues --   -0.35170  -0.34650  -0.33860  -0.32779  -0.32611
 Alpha  occ. eigenvalues --   -0.32195  -0.30031  -0.28356  -0.26550  -0.24111
 Alpha  occ. eigenvalues --   -0.20015
 Alpha virt. eigenvalues --   -0.05887  -0.00921   0.02366   0.05201   0.07059
 Alpha virt. eigenvalues --    0.09241   0.10645   0.11513   0.11998   0.12038
 Alpha virt. eigenvalues --    0.12295   0.12748   0.13009   0.13423   0.13595

 Mulliken charges:
               1
     1  O   -0.544503
     2  O   -0.558356
     3  C   -0.036243
     4  C   -0.020093
     5  C   -0.187268
     6  C   -0.171510
     7  C    0.150511
     8  C    0.137680
     9  C    0.134193
    10  C    0.034540
    11  C   -0.180131
    12  C   -0.222683
    13  C   -0.036511
    14  C    0.072280
    15  C   -0.297957
    16  C   -0.279566
    17  C   -0.301334
    18  C   -0.309363
    19  C   -0.152204
    20  C   -0.120367
    21  C   -0.334753
    22  C   -0.364993
    23  C   -0.102959
    24  C   -0.086337
    25  C    0.071287
    26  C    0.110153
    27  C   -0.366042
    28  C   -0.379506
    29  C   -0.095860
    30  C   -0.127764
    31  C   -0.083424
    32  C   -0.111352
    33  C   -0.130022
    34  C   -0.091734
    35  C    0.117450
    36  C    0.148774
    37  C   -0.369307
    38  C   -0.384538
    39  C   -0.100725
    40  C   -0.144103
    41  C   -0.103027
    42  C   -0.086441
    43  H    0.074797
    44  H    0.080653
    45  H    0.071821
    46  H    0.103209
    47  H    0.094388
    48  H    0.107056
    49  H    0.078366
    50  H    0.118659
    51  H    0.095782
    52  H    0.115215
    53  H    0.100912
    54  H    0.099489
    55  H    0.096369
    56  H    0.069731
    57  H    0.096082
    58  H    0.103884
    59  H    0.095055
    60  H    0.089605
    61  H    0.084065
    62  H    0.103739
    63  H    0.110189
    64  H    0.095013
    65  H    0.099664
    66  H    0.089904
    67  H    0.127281
    68  H    0.111579
    69  H    0.104132
    70  H    0.100205
    71  H    0.108184
    72  H    0.135989
    73  H    0.307774
    74  H    0.301809
    75  H    0.082691
    76  H    0.083399
    77  H    0.100712
    78  H    0.117574
    79  H    0.115379
    80  H    0.100956
    81  H    0.124746
    82  H    0.103637
    83  H    0.076188
    84  H    0.058926
    85  H    0.075574
    86  H    0.095292
    87  H    0.075954
    88  H    0.096518
    89  H    0.106696
    90  H    0.107537
    91  H    0.135992
    92  H    0.122510
    93  H    0.101682
    94  H    0.118354
    95  H    0.083593
    96  H    0.079278
    97  H    0.080313
    98  H    0.090005
 Sum of Mulliken charges =  -0.00000

 Dipole moment (field-independent basis, Debye):
    X=             -0.1945    Y=             -1.8849    Z=              0.7430  Tot=              2.0354
 Quadrupole moment (field-independent basis, Debye-Ang):
   XX=           -323.6696   YY=           -243.2113   ZZ=           -259.5953
   XY=              9.5881   XZ=             -7.8114   YZ=              3.8073

 Normal termination of Gaussian 16 at Wed Jul 17 14:51:38 2019.
