 Gaussian 16, Revision A.03,
 Gaussian 16:  ES64L-G16RevA.03 25-Dec-2016

 -------------------------------------
 # td=(NStates=1) CAM-B3LYP/6-31G(d,p)
 -------------------------------------

 --
 TD
 --
 Symbolic Z-matrix:
 Charge =  0 Multiplicity = 1

                         Standard orientation:
 ---------------------------------------------------------------------
 Center     Atomic      Atomic             Coordinates (Angstroms)
 Number     Number       Type             X           Y           Z
 ---------------------------------------------------------------------
      1          8           0       14.651051   -2.361619   -0.266505
      2          8           0      -14.756886    1.792709    0.785531
      3          6           0       11.138295   -1.488430    0.921039
      4          6           0      -12.432219   -1.097559    0.469764
      5          6           0       12.589562   -1.935598    0.953344
      6          6           0      -13.707274   -0.303817    0.422360
      7          6           0       13.279290   -2.059512   -0.391820
      8          6           0      -13.604531    1.070340    0.809353
      9          6           0       10.957035   -0.337605    0.044849
     10          6           0      -11.274709   -0.315363   -0.220121
     11          6           0       13.114958   -0.712146   -1.214550
     12          6           0      -12.627323    1.734109   -0.234995
     13          6           0       11.850795    0.014879   -0.980137
     14          6           0      -11.515582    0.997087   -0.676003
     15          6           0       10.731312   -1.159163    2.350114
     16          6           0       10.289494   -2.638892    0.409211
     17          6           0      -12.043994   -1.405901    1.999250
     18          6           0      -12.596714   -2.454507   -0.226619
     19          6           0        9.641298    0.374880    0.228190
     20          6           0       -9.969703   -0.956733   -0.496913
     21          6           0       11.571107    1.146575   -2.106136
     22          6           0      -10.536722    1.687947   -1.444842
     23          6           0        9.430899    1.682149    0.133431
     24          6           0       -8.743342   -0.408049   -0.326720
     25          6           0        8.167587    2.341745    0.187369
     26          6           0       -7.520447   -1.222898   -0.638089
     27          6           0        8.050875    3.807313    0.409939
     28          6           0       -7.528788   -2.598216   -1.037676
     29          6           0        6.994945    1.604372    0.022185
     30          6           0       -6.379904   -0.506620   -0.221487
     31          6           0        5.685339    2.109292    0.272121
     32          6           0       -5.076991   -0.949661   -0.330997
     33          6           0        4.549709    1.348805    0.134131
     34          6           0       -3.915681   -0.162071   -0.179617
     35          6           0        3.213569    1.745748    0.297342
     36          6           0       -2.593174   -0.617680   -0.200827
     37          6           0        2.892057    3.192495    0.636675
     38          6           0       -2.332097   -2.041797   -0.629431
     39          6           0        2.131153    0.851798    0.009809
     40          6           0       -1.553844    0.177589   -0.083363
     41          6           0        0.765917    1.032382    0.160343
     42          6           0       -0.151226    0.012382   -0.122297
     43          1           0       13.075330   -1.254736    1.506757
     44          1           0       12.704944   -2.932923    1.540157
     45          1           0      -14.207471   -0.763836    1.279386
     46          1           0      -14.315920   -0.405975   -0.623140
     47          1           0       12.583188   -2.848662   -0.953311
     48          1           0      -12.966992    1.092447    1.712621
     49          1           0       14.003763    0.015554   -1.003469
     50          1           0       13.068993   -0.930798   -2.347604
     51          1           0      -13.476574    1.826933   -1.104594
     52          1           0      -12.262587    2.757905   -0.098479
     53          1           0       11.136672   -1.913182    3.286296
     54          1           0        9.622890   -1.045376    2.212005
     55          1           0       11.048847   -0.129626    2.619769
     56          1           0       10.434073   -2.923237   -0.693126
     57          1           0       10.112372   -3.602166    1.090191
     58          1           0        9.195623   -2.199832    0.412866
     59          1           0      -12.297580   -0.479121    2.660176
     60          1           0      -10.990930   -1.719895    1.996464
     61          1           0      -12.647158   -2.334850    2.522444
     62          1           0      -13.487857   -2.860529    0.043668
     63          1           0      -11.964659   -3.302146   -0.164467
     64          1           0      -12.856053   -2.133528   -1.364167
     65          1           0        8.852810   -0.142206    0.707355
     66          1           0      -10.119310   -1.914834   -0.983665
     67          1           0       10.466795    1.243893   -2.088146
     68          1           0       11.910121    2.145496   -1.666416
     69          1           0       12.149004    1.129364   -3.094859
     70          1           0      -11.163515    2.128622   -2.294732
     71          1           0       -9.579940    1.271605   -1.956066
     72          1           0      -10.209061    2.606882   -0.885436
     73          1           0       14.828093   -3.235533    0.206028
     74          1           0      -15.225039    1.686996    1.702138
     75          1           0       10.194902    2.458676   -0.198993
     76          1           0       -8.557670    0.667313   -0.323668
     77          1           0        8.926156    4.238889    0.545072
     78          1           0        7.515763    4.317794   -0.473740
     79          1           0        7.516269    4.201013    1.157597
     80          1           0       -8.375543   -3.171777   -0.480577
     81          1           0       -7.613416   -2.678857   -2.221324
     82          1           0       -6.663754   -3.045985   -0.744537
     83          1           0        6.970604    0.529762   -0.333492
     84          1           0       -6.441182    0.577250    0.367843
     85          1           0        5.766186    3.203702    0.419748
     86          1           0       -4.903234   -2.049891   -0.401679
     87          1           0        4.713343    0.247457   -0.135649
     88          1           0       -4.025955    1.019461    0.136823
     89          1           0        3.695756    3.551850    1.404001
     90          1           0        1.819169    3.176088    1.059952
     91          1           0        2.973681    3.963046   -0.342707
     92          1           0       -2.496049   -2.781271    0.087034
     93          1           0       -3.234779   -2.310010   -1.408138
     94          1           0       -1.269199   -2.018330   -0.954695
     95          1           0        2.432664   -0.056950   -0.628210
     96          1           0       -1.796199    1.312593    0.088517
     97          1           0        0.321902    2.016672    0.558245
     98          1           0        0.308839   -1.007932   -0.155355
 ---------------------------------------------------------------------

 SCF Done:  E(RCAM-B3LYP) =  -1706.97428664     A.U. after   15 cycles

 Excitation energies and oscillator strengths:

 Excited State   1:      Singlet-A      2.0868 eV  594.15 nm  f=3.7061  <S**2>=0.000
     155 ->158         0.15120
     156 ->157         0.68966
 This state for optimization and/or second-order correction.
 Total Energy, E(TD-HF/TD-DFT) =  -1706.89759960
 Copying the excited state density for this state as the 1-particle RhoCI density.

 The electronic state is 1-A.
 Alpha  occ. eigenvalues --  -19.23021 -19.21928 -10.31452 -10.30215 -10.28210
 Alpha  occ. eigenvalues --  -10.27932 -10.27927 -10.27762 -10.27489 -10.27299
 Alpha  occ. eigenvalues --  -10.27167 -10.27119 -10.26956 -10.26908 -10.26877
 Alpha  occ. eigenvalues --  -10.26866 -10.26785 -10.26703 -10.26662 -10.26658
 Alpha  occ. eigenvalues --  -10.26558 -10.26492 -10.26426 -10.26352 -10.26327
 Alpha  occ. eigenvalues --  -10.26251 -10.26056 -10.26036 -10.25860 -10.25840
 Alpha  occ. eigenvalues --  -10.25825 -10.25804 -10.25572 -10.25543 -10.25360
 Alpha  occ. eigenvalues --  -10.25341 -10.25242 -10.25066 -10.25060 -10.24438
 Alpha  occ. eigenvalues --  -10.24206 -10.23807  -1.11432  -1.08862  -0.94329
 Alpha  occ. eigenvalues --   -0.93811  -0.92245  -0.91747  -0.90824  -0.90089
 Alpha  occ. eigenvalues --   -0.88070  -0.87130  -0.86356  -0.85436  -0.84759
 Alpha  occ. eigenvalues --   -0.83247  -0.81950  -0.80551  -0.80382  -0.77756
 Alpha  occ. eigenvalues --   -0.76295  -0.76090  -0.75777  -0.75435  -0.75304
 Alpha  occ. eigenvalues --   -0.74900  -0.74653  -0.74393  -0.72805  -0.70929
 Alpha  occ. eigenvalues --   -0.69214  -0.67441  -0.66075  -0.65051  -0.63448
 Alpha  occ. eigenvalues --   -0.63291  -0.62242  -0.60949  -0.60336  -0.59904
 Alpha  occ. eigenvalues --   -0.59586  -0.58504  -0.58259  -0.57410  -0.56211
 Alpha  occ. eigenvalues --   -0.55523  -0.55307  -0.54722  -0.54111  -0.53507
 Alpha  occ. eigenvalues --   -0.53149  -0.52519  -0.51626  -0.51530  -0.50492
 Alpha  occ. eigenvalues --   -0.50034  -0.49829  -0.49627  -0.49267  -0.49165
 Alpha  occ. eigenvalues --   -0.48690  -0.48291  -0.48093  -0.47944  -0.47641
 Alpha  occ. eigenvalues --   -0.47184  -0.47067  -0.46902  -0.46681  -0.46261
 Alpha  occ. eigenvalues --   -0.45883  -0.45612  -0.45438  -0.45205  -0.44449
 Alpha  occ. eigenvalues --   -0.44075  -0.43968  -0.43792  -0.43719  -0.43345
 Alpha  occ. eigenvalues --   -0.42887  -0.42823  -0.42721  -0.42381  -0.42064
 Alpha  occ. eigenvalues --   -0.41847  -0.41363  -0.41307  -0.41042  -0.40830
 Alpha  occ. eigenvalues --   -0.40682  -0.40374  -0.40262  -0.39962  -0.39504
 Alpha  occ. eigenvalues --   -0.39003  -0.38728  -0.37866  -0.37679  -0.37354
 Alpha  occ. eigenvalues --   -0.37166  -0.36580  -0.36395  -0.36141  -0.35559
 Alpha  occ. eigenvalues --   -0.34846  -0.34541  -0.34042  -0.33299  -0.31700
 Alpha  occ. eigenvalues --   -0.31603  -0.29386  -0.27236  -0.25597  -0.22974
 Alpha  occ. eigenvalues --   -0.19114
 Alpha virt. eigenvalues --   -0.06180  -0.01201   0.02168   0.05365   0.07224
 Alpha virt. eigenvalues --    0.09373   0.10484   0.10785   0.11493   0.11742
 Alpha virt. eigenvalues --    0.12090   0.12438   0.12767   0.12897   0.13266

 Mulliken charges:
               1
     1  O   -0.564015
     2  O   -0.544170
     3  C   -0.032869
     4  C    0.002919
     5  C   -0.169596
     6  C   -0.166691
     7  C    0.188322
     8  C    0.170111
     9  C    0.080875
    10  C    0.018517
    11  C   -0.228804
    12  C   -0.253535
    13  C    0.048423
    14  C    0.147107
    15  C   -0.288362
    16  C   -0.286452
    17  C   -0.307263
    18  C   -0.308062
    19  C   -0.133512
    20  C   -0.154834
    21  C   -0.367693
    22  C   -0.390828
    23  C   -0.097624
    24  C   -0.081295
    25  C    0.076973
    26  C    0.096194
    27  C   -0.383319
    28  C   -0.364885
    29  C   -0.124218
    30  C   -0.119683
    31  C   -0.074320
    32  C   -0.109551
    33  C   -0.120019
    34  C   -0.121408
    35  C    0.104292
    36  C    0.158852
    37  C   -0.344778
    38  C   -0.371860
    39  C   -0.134087
    40  C   -0.140747
    41  C   -0.080498
    42  C   -0.098085
    43  H    0.104933
    44  H    0.061248
    45  H    0.084056
    46  H    0.085623
    47  H    0.055710
    48  H    0.079593
    49  H    0.116042
    50  H    0.105616
    51  H    0.087372
    52  H    0.101245
    53  H    0.079806
    54  H    0.092994
    55  H    0.113369
    56  H    0.105888
    57  H    0.092504
    58  H    0.075807
    59  H    0.089594
    60  H    0.119141
    61  H    0.072623
    62  H    0.110968
    63  H    0.109787
    64  H    0.077407
    65  H    0.096844
    66  H    0.098387
    67  H    0.134997
    68  H    0.112476
    69  H    0.112590
    70  H    0.099144
    71  H    0.124683
    72  H    0.105569
    73  H    0.313145
    74  H    0.316224
    75  H    0.077875
    76  H    0.100686
    77  H    0.111057
    78  H    0.113403
    79  H    0.138107
    80  H    0.115034
    81  H    0.115779
    82  H    0.123783
    83  H    0.079034
    84  H    0.079706
    85  H    0.081808
    86  H    0.084717
    87  H    0.079448
    88  H    0.065538
    89  H    0.104500
    90  H    0.105353
    91  H    0.103126
    92  H    0.128237
    93  H    0.092857
    94  H    0.108659
    95  H    0.085272
    96  H    0.061556
    97  H    0.089023
    98  H    0.090533
 Sum of Mulliken charges =  -0.00000

 Dipole moment (field-independent basis, Debye):
    X=             -0.5268    Y=             -0.9810    Z=              1.6855  Tot=              2.0201
 Quadrupole moment (field-independent basis, Debye-Ang):
   XX=           -252.0450   YY=           -240.8213   ZZ=           -262.1949
   XY=              8.8978   XZ=            -14.1336   YZ=              1.6636

 Normal termination of Gaussian 16 at Tue Jul 16 10:47:39 2019.
