 Gaussian 16, Revision A.03,
 Gaussian 16:  ES64L-G16RevA.03 25-Dec-2016

 -------------------------------------
 # td=(NStates=1) CAM-B3LYP/6-31G(d,p)
 -------------------------------------

 --
 TD
 --
 Symbolic Z-matrix:
 Charge =  0 Multiplicity = 1

                         Standard orientation:
 ---------------------------------------------------------------------
 Center     Atomic      Atomic             Coordinates (Angstroms)
 Number     Number       Type             X           Y           Z
 ---------------------------------------------------------------------
      1          8           0       14.705087   -2.176740   -0.253063
      2          8           0      -14.567546    2.116243    0.916950
      3          6           0       11.143908   -1.516729    0.901422
      4          6           0      -12.405232   -0.962556    0.571922
      5          6           0       12.569707   -1.893887    1.017319
      6          6           0      -13.698789   -0.153929    0.568496
      7          6           0       13.318825   -1.852015   -0.386073
      8          6           0      -13.453934    1.275816    0.838651
      9          6           0       10.976214   -0.255240   -0.011984
     10          6           0      -11.285808   -0.242730   -0.272886
     11          6           0       13.216222   -0.594870   -1.091215
     12          6           0      -12.600423    1.920153   -0.228332
     13          6           0       11.805597    0.140294   -0.921116
     14          6           0      -11.444411    1.039851   -0.653683
     15          6           0       10.695119   -1.096252    2.412925
     16          6           0       10.493292   -2.697834    0.376135
     17          6           0      -11.981814   -1.327241    1.979961
     18          6           0      -12.642491   -2.279848   -0.054830
     19          6           0        9.598315    0.376905    0.285483
     20          6           0      -10.029912   -1.051787   -0.294282
     21          6           0       11.733110    1.372469   -1.826300
     22          6           0      -10.442338    1.831405   -1.546568
     23          6           0        9.352362    1.692523    0.025049
     24          6           0       -8.769945   -0.568169   -0.477164
     25          6           0        8.077079    2.277569    0.175561
     26          6           0       -7.608582   -1.335682   -0.490853
     27          6           0        7.966426    3.769713    0.659787
     28          6           0       -7.790914   -2.821557   -0.740513
     29          6           0        6.906420    1.663807    0.126711
     30          6           0       -6.356025   -0.695826   -0.396939
     31          6           0        5.590187    2.081673    0.344912
     32          6           0       -5.085963   -1.203485   -0.415634
     33          6           0        4.443739    1.329958    0.038503
     34          6           0       -3.917724   -0.476213   -0.295055
     35          6           0        3.096386    1.726586    0.023876
     36          6           0       -2.572200   -0.761724   -0.522493
     37          6           0        2.809263    3.134132    0.471634
     38          6           0       -2.333911   -2.229481   -0.866313
     39          6           0        2.164103    0.685326   -0.236432
     40          6           0       -1.548227    0.115231   -0.281020
     41          6           0        0.788433    0.873153   -0.144982
     42          6           0       -0.224000   -0.174794   -0.246714
     43          1           0       12.917831   -1.006496    1.602920
     44          1           0       12.833792   -2.912744    1.752327
     45          1           0      -14.163553   -0.546581    1.531853
     46          1           0      -14.232115   -0.036086   -0.294487
     47          1           0       12.858537   -2.661168   -0.992100
     48          1           0      -12.865952    1.500431    1.682018
     49          1           0       13.909529    0.166604   -0.643566
     50          1           0       13.339190   -0.620899   -2.155902
     51          1           0      -13.507266    1.850805   -0.938987
     52          1           0      -12.371182    2.888984   -0.026407
     53          1           0       11.037114   -1.951209    3.020332
     54          1           0        9.597237   -0.990651    2.456356
     55          1           0       11.161873   -0.213618    2.694874
     56          1           0       10.860868   -3.379913   -0.577677
     57          1           0       10.712633   -3.494698    1.239768
     58          1           0        9.419835   -2.612930    0.134064
     59          1           0      -11.946846   -0.408295    2.711892
     60          1           0      -11.103270   -1.829990    1.892943
     61          1           0      -12.898238   -1.905807    2.433079
     62          1           0      -13.611337   -2.604870    0.411893
     63          1           0      -11.908532   -3.089552    0.064035
     64          1           0      -12.973372   -2.325548   -1.120822
     65          1           0        8.754002   -0.258508    0.534109
     66          1           0      -10.096788   -2.125257   -0.041191
     67          1           0       10.632414    1.611679   -2.048123
     68          1           0       11.896275    2.436107   -1.342594
     69          1           0       12.206012    1.406263   -2.771637
     70          1           0      -11.125076    2.571647   -2.210560
     71          1           0      -10.112119    1.117540   -2.311120
     72          1           0       -9.650873    2.081820   -0.897968
     73          1           0       14.785293   -3.054981    0.100410
     74          1           0      -15.047879    1.717577    1.653210
     75          1           0       10.334326    2.263325   -0.185540
     76          1           0       -8.662299    0.609120   -0.411225
     77          1           0        8.998977    3.975306    0.772804
     78          1           0        7.339616    4.263021   -0.152889
     79          1           0        7.623349    3.988225    1.784074
     80          1           0       -8.097194   -3.297424    0.249451
     81          1           0       -8.784185   -3.260959   -1.406017
     82          1           0       -6.916635   -3.274292   -1.213398
     83          1           0        7.046729    0.613186   -0.230347
     84          1           0       -6.564117    0.350317   -0.351619
     85          1           0        5.726950    3.085483    0.865734
     86          1           0       -4.973877   -2.160728   -0.604299
     87          1           0        4.676023    0.259530   -0.224922
     88          1           0       -3.901040    0.650433   -0.208999
     89          1           0        3.255087    3.359978    1.484278
     90          1           0        1.675608    3.223517    0.650272
     91          1           0        3.091326    4.081904   -0.199173
     92          1           0       -2.980763   -2.850456   -0.380021
     93          1           0       -2.809248   -2.176300   -1.953287
     94          1           0       -1.209254   -2.597191   -0.819845
     95          1           0        2.530584   -0.458650   -0.207741
     96          1           0       -1.957337    1.256977   -0.073558
     97          1           0        0.622573    1.755323    0.085003
     98          1           0        0.214043   -1.183611   -0.624567
 ---------------------------------------------------------------------

 SCF Done:  E(RCAM-B3LYP) =  -1706.92784213     A.U. after   15 cycles

 Excitation energies and oscillator strengths:

 Excited State   1:      Singlet-A      1.8867 eV  657.15 nm  f=3.8453  <S**2>=0.000
     155 ->158        -0.13550
     156 ->157         0.69929
     156 <-157        -0.11220
 This state for optimization and/or second-order correction.
 Total Energy, E(TD-HF/TD-DFT) =  -1706.85850749
 Copying the excited state density for this state as the 1-particle RhoCI density.

 The electronic state is 1-A.
 Alpha  occ. eigenvalues --  -19.21467 -19.20362 -10.30398 -10.28444 -10.28428
 Alpha  occ. eigenvalues --  -10.27994 -10.27947 -10.27873 -10.27667 -10.27528
 Alpha  occ. eigenvalues --  -10.27437 -10.27274 -10.27147 -10.27120 -10.27097
 Alpha  occ. eigenvalues --  -10.27017 -10.26774 -10.26527 -10.26465 -10.26457
 Alpha  occ. eigenvalues --  -10.26456 -10.26406 -10.26403 -10.26383 -10.26347
 Alpha  occ. eigenvalues --  -10.26340 -10.26267 -10.26211 -10.26170 -10.26112
 Alpha  occ. eigenvalues --  -10.25946 -10.25928 -10.25678 -10.25605 -10.25571
 Alpha  occ. eigenvalues --  -10.25538 -10.25398 -10.24910 -10.24845 -10.24615
 Alpha  occ. eigenvalues --  -10.24564 -10.24180  -1.11146  -1.08948  -0.94203
 Alpha  occ. eigenvalues --   -0.93938  -0.92769  -0.92062  -0.91208  -0.90604
 Alpha  occ. eigenvalues --   -0.87790  -0.87536  -0.87250  -0.85896  -0.84829
 Alpha  occ. eigenvalues --   -0.83656  -0.82070  -0.80135  -0.79337  -0.78598
 Alpha  occ. eigenvalues --   -0.76752  -0.76481  -0.76375  -0.76057  -0.75917
 Alpha  occ. eigenvalues --   -0.75780  -0.75595  -0.74709  -0.73680  -0.71747
 Alpha  occ. eigenvalues --   -0.69069  -0.67676  -0.65979  -0.65404  -0.64244
 Alpha  occ. eigenvalues --   -0.63732  -0.62964  -0.62509  -0.60789  -0.60571
 Alpha  occ. eigenvalues --   -0.59575  -0.58646  -0.58451  -0.57458  -0.56429
 Alpha  occ. eigenvalues --   -0.56086  -0.55912  -0.55423  -0.54468  -0.53602
 Alpha  occ. eigenvalues --   -0.53258  -0.52752  -0.52202  -0.51780  -0.51197
 Alpha  occ. eigenvalues --   -0.50799  -0.50389  -0.50346  -0.50083  -0.49352
 Alpha  occ. eigenvalues --   -0.49161  -0.48688  -0.48565  -0.48370  -0.47884
 Alpha  occ. eigenvalues --   -0.47580  -0.47477  -0.47348  -0.47156  -0.46778
 Alpha  occ. eigenvalues --   -0.46244  -0.45540  -0.45223  -0.45021  -0.44943
 Alpha  occ. eigenvalues --   -0.44775  -0.44335  -0.44060  -0.43854  -0.43513
 Alpha  occ. eigenvalues --   -0.43140  -0.42909  -0.42686  -0.42459  -0.41880
 Alpha  occ. eigenvalues --   -0.41665  -0.41540  -0.41327  -0.41129  -0.40871
 Alpha  occ. eigenvalues --   -0.40317  -0.40199  -0.40174  -0.39860  -0.39322
 Alpha  occ. eigenvalues --   -0.38903  -0.38649  -0.38310  -0.37988  -0.37764
 Alpha  occ. eigenvalues --   -0.37515  -0.36938  -0.36411  -0.36107  -0.35761
 Alpha  occ. eigenvalues --   -0.35628  -0.34190  -0.33635  -0.32991  -0.32484
 Alpha  occ. eigenvalues --   -0.31060  -0.30574  -0.29086  -0.26526  -0.23413
 Alpha  occ. eigenvalues --   -0.18736
 Alpha virt. eigenvalues --   -0.07295  -0.01511   0.02232   0.05792   0.08107
 Alpha virt. eigenvalues --    0.09835   0.11116   0.11236   0.11334   0.12047
 Alpha virt. eigenvalues --    0.12620   0.12803   0.12943   0.13288   0.13573

 Mulliken charges:
               1
     1  O   -0.562229
     2  O   -0.547284
     3  C   -0.016563
     4  C   -0.035733
     5  C   -0.193376
     6  C   -0.163256
     7  C    0.183131
     8  C    0.124582
     9  C    0.049937
    10  C    0.119724
    11  C   -0.206043
    12  C   -0.215277
    13  C    0.042502
    14  C   -0.010927
    15  C   -0.301046
    16  C   -0.272993
    17  C   -0.275454
    18  C   -0.296785
    19  C   -0.097402
    20  C   -0.127724
    21  C   -0.394884
    22  C   -0.364950
    23  C   -0.126043
    24  C   -0.107035
    25  C    0.057598
    26  C    0.120134
    27  C   -0.368782
    28  C   -0.374299
    29  C   -0.092975
    30  C   -0.112205
    31  C   -0.088832
    32  C   -0.073068
    33  C   -0.127574
    34  C   -0.106577
    35  C    0.116860
    36  C    0.107647
    37  C   -0.372075
    38  C   -0.362458
    39  C   -0.126192
    40  C   -0.102672
    41  C   -0.029398
    42  C   -0.113524
    43  H    0.092130
    44  H    0.053183
    45  H    0.073767
    46  H    0.106057
    47  H    0.074884
    48  H    0.075644
    49  H    0.124697
    50  H    0.115234
    51  H    0.101236
    52  H    0.119452
    53  H    0.098465
    54  H    0.105994
    55  H    0.124052
    56  H    0.089779
    57  H    0.076904
    58  H    0.094957
    59  H    0.090000
    60  H    0.113197
    61  H    0.086308
    62  H    0.087360
    63  H    0.101508
    64  H    0.101769
    65  H    0.097816
    66  H    0.077073
    67  H    0.124849
    68  H    0.110205
    69  H    0.116922
    70  H    0.100800
    71  H    0.130356
    72  H    0.135604
    73  H    0.301428
    74  H    0.300909
    75  H    0.089806
    76  H    0.064732
    77  H    0.108077
    78  H    0.127288
    79  H    0.104837
    80  H    0.119828
    81  H    0.092674
    82  H    0.117141
    83  H    0.051580
    84  H    0.075902
    85  H    0.086037
    86  H    0.066233
    87  H    0.087339
    88  H    0.062461
    89  H    0.132214
    90  H    0.103207
    91  H    0.116528
    92  H    0.134794
    93  H    0.110476
    94  H    0.096857
    95  H    0.083217
    96  H    0.076276
    97  H    0.043261
    98  H    0.090214
 Sum of Mulliken charges =  -0.00000

 Dipole moment (field-independent basis, Debye):
    X=             -0.7372    Y=             -1.7076    Z=              1.3957  Tot=              2.3254
 Quadrupole moment (field-independent basis, Debye-Ang):
   XX=           -281.9004   YY=           -245.3542   ZZ=           -261.9631
   XY=             12.2674   XZ=             -9.7586   YZ=              1.6124

 Normal termination of Gaussian 16 at Fri Jul 19 05:49:57 2019.
