 Gaussian 16, Revision A.03,
 Gaussian 16:  ES64L-G16RevA.03 25-Dec-2016

 -------------------------------------
 # td=(NStates=1) CAM-B3LYP/6-31G(d,p)
 -------------------------------------

 --
 TD
 --
 Symbolic Z-matrix:
 Charge =  0 Multiplicity = 1

                         Standard orientation:
 ---------------------------------------------------------------------
 Center     Atomic      Atomic             Coordinates (Angstroms)
 Number     Number       Type             X           Y           Z
 ---------------------------------------------------------------------
      1          8           0       14.645501   -2.286663   -0.275008
      2          8           0      -14.651359    2.023975    1.041907
      3          6           0       11.113415   -1.375549    1.056292
      4          6           0      -12.316673   -0.976757    0.662544
      5          6           0       12.656864   -1.835552    1.111157
      6          6           0      -13.626116   -0.013671    0.771322
      7          6           0       13.267209   -1.848495   -0.257780
      8          6           0      -13.338929    1.424582    0.965621
      9          6           0       10.868183   -0.229985    0.020693
     10          6           0      -11.184887   -0.204215   -0.278993
     11          6           0       13.276196   -0.470997   -0.851229
     12          6           0      -12.573560    1.883284   -0.274600
     13          6           0       11.878217    0.082395   -0.869025
     14          6           0      -11.404887    0.962657   -0.708599
     15          6           0       10.699517   -1.089263    2.496889
     16          6           0       10.250942   -2.540215    0.590821
     17          6           0      -11.772965   -1.223286    2.114931
     18          6           0      -12.839069   -2.201503    0.065317
     19          6           0        9.605418    0.371904    0.176939
     20          6           0      -10.079597   -1.064752   -0.498705
     21          6           0       11.716344    1.130384   -1.873826
     22          6           0      -10.458924    1.725228   -1.583146
     23          6           0        9.283991    1.663375   -0.043120
     24          6           0       -8.781865   -0.737083   -0.303644
     25          6           0        7.990176    2.384684    0.108503
     26          6           0       -7.508226   -1.355641   -0.516193
     27          6           0        8.033183    3.790752    0.388494
     28          6           0       -7.722907   -2.810995   -1.017598
     29          6           0        6.924757    1.654901   -0.081306
     30          6           0       -6.299573   -0.701007   -0.472133
     31          6           0        5.570732    2.097984    0.125764
     32          6           0       -5.037964   -1.315812   -0.636177
     33          6           0        4.465959    1.341631    0.043249
     34          6           0       -3.881225   -0.556650   -0.381872
     35          6           0        3.103819    1.678325    0.079664
     36          6           0       -2.577624   -0.911131   -0.501980
     37          6           0        2.634580    3.069254    0.598549
     38          6           0       -2.297171   -2.290796   -0.884938
     39          6           0        2.024795    0.790898   -0.093090
     40          6           0       -1.582992    0.074904   -0.304497
     41          6           0        0.716617    0.976651    0.018217
     42          6           0       -0.244314   -0.116131   -0.412374
     43          1           0       13.155437   -1.130113    1.649424
     44          1           0       12.784405   -2.727487    1.895994
     45          1           0      -14.208615   -0.500248    1.536332
     46          1           0      -14.174893   -0.183449   -0.255530
     47          1           0       12.828379   -2.657437   -0.933635
     48          1           0      -12.674316    1.703913    1.885616
     49          1           0       14.142522    0.356845   -0.372441
     50          1           0       13.589483   -0.483523   -1.964878
     51          1           0      -13.448497    1.819442   -1.069786
     52          1           0      -12.252308    2.836424   -0.410886
     53          1           0       10.982350   -1.973532    2.956103
     54          1           0        9.598283   -0.998855    2.752569
     55          1           0       11.414430   -0.136435    2.760913
     56          1           0       10.637807   -3.174023   -0.242891
     57          1           0       10.319905   -3.358658    1.365378
     58          1           0        9.241041   -2.313562    0.519215
     59          1           0      -11.646734   -0.389231    2.609351
     60          1           0      -10.725210   -1.403864    2.194048
     61          1           0      -12.527845   -1.841841    2.568263
     62          1           0      -13.509681   -2.762893    0.718305
     63          1           0      -12.004967   -2.961557   -0.004385
     64          1           0      -13.238197   -2.037115   -0.692522
     65          1           0        8.558649   -0.139056    0.452283
     66          1           0      -10.519494   -2.078123   -0.688771
     67          1           0       10.701484    1.497752   -2.188862
     68          1           0       12.047112    2.194872   -1.526314
     69          1           0       12.371226    0.919111   -2.889465
     70          1           0      -11.089320    2.178102   -2.242445
     71          1           0       -9.741262    1.143653   -2.112939
     72          1           0       -9.777046    2.392423   -0.972606
     73          1           0       14.696035   -3.294754   -0.362041
     74          1           0      -15.127548    1.847259    1.845547
     75          1           0       10.033940    2.094839   -0.414304
     76          1           0       -8.604209    0.258697   -0.028961
     77          1           0        9.183797    4.145401    0.271402
     78          1           0        7.401859    4.456575   -0.195317
     79          1           0        7.695346    3.890184    1.399692
     80          1           0       -8.509521   -3.514718   -0.562727
     81          1           0       -7.965505   -2.763091   -2.132059
     82          1           0       -6.686250   -3.071343   -1.307570
     83          1           0        7.063534    0.573608   -0.486975
     84          1           0       -6.309332    0.350908   -0.315121
     85          1           0        5.597096    3.182595    0.528420
     86          1           0       -5.068281   -2.289048   -0.541846
     87          1           0        4.692499    0.277922   -0.254884
     88          1           0       -4.090339    0.751752   -0.385282
     89          1           0        3.355176    3.354477    1.554773
     90          1           0        1.661114    2.867874    1.133202
     91          1           0        2.538591    4.021038   -0.279969
     92          1           0       -2.461452   -2.925195   -0.183157
     93          1           0       -2.981516   -2.288137   -1.856175
     94          1           0       -1.161991   -2.638264   -1.297373
     95          1           0        2.481232   -0.300933   -0.417853
     96          1           0       -1.855297    1.046942    0.096296
     97          1           0        0.211127    1.943694    0.275543
     98          1           0        0.113947   -1.074143   -0.814732
 ---------------------------------------------------------------------

 SCF Done:  E(RCAM-B3LYP) =  -1706.82535854     A.U. after   16 cycles

 Excitation energies and oscillator strengths:

 Excited State   1:      Singlet-A      1.8602 eV  666.51 nm  f=3.5729  <S**2>=0.000
     155 ->158         0.11126
     156 ->157         0.70823
     156 <-157        -0.14031
 This state for optimization and/or second-order correction.
 Total Energy, E(TD-HF/TD-DFT) =  -1706.75699778
 Copying the excited state density for this state as the 1-particle RhoCI density.

 The electronic state is 1-A.
 Alpha  occ. eigenvalues --  -19.20405 -19.20359 -10.31318 -10.31075 -10.28504
 Alpha  occ. eigenvalues --  -10.28035 -10.27751 -10.27715 -10.27674 -10.27422
 Alpha  occ. eigenvalues --  -10.27415 -10.27392 -10.27361 -10.27114 -10.27054
 Alpha  occ. eigenvalues --  -10.27004 -10.26798 -10.26728 -10.26676 -10.26550
 Alpha  occ. eigenvalues --  -10.26501 -10.26424 -10.26314 -10.26298 -10.26222
 Alpha  occ. eigenvalues --  -10.26196 -10.26102 -10.25887 -10.25769 -10.25624
 Alpha  occ. eigenvalues --  -10.25376 -10.25306 -10.25204 -10.25182 -10.25092
 Alpha  occ. eigenvalues --  -10.25064 -10.24366 -10.24116 -10.23908 -10.23761
 Alpha  occ. eigenvalues --  -10.22592 -10.22298  -1.08490  -1.07338  -0.93787
 Alpha  occ. eigenvalues --   -0.93444  -0.93041  -0.92317  -0.90988  -0.90332
 Alpha  occ. eigenvalues --   -0.87886  -0.87478  -0.87140  -0.86191  -0.85442
 Alpha  occ. eigenvalues --   -0.83793  -0.82383  -0.80988  -0.80277  -0.78901
 Alpha  occ. eigenvalues --   -0.78601  -0.76652  -0.76356  -0.76172  -0.75857
 Alpha  occ. eigenvalues --   -0.75198  -0.74997  -0.74554  -0.73089  -0.71392
 Alpha  occ. eigenvalues --   -0.68806  -0.67715  -0.66177  -0.65213  -0.64374
 Alpha  occ. eigenvalues --   -0.63355  -0.62706  -0.62211  -0.61117  -0.59929
 Alpha  occ. eigenvalues --   -0.59184  -0.58441  -0.57925  -0.57744  -0.56468
 Alpha  occ. eigenvalues --   -0.55996  -0.55484  -0.55366  -0.54532  -0.53766
 Alpha  occ. eigenvalues --   -0.53533  -0.53152  -0.52941  -0.52354  -0.52112
 Alpha  occ. eigenvalues --   -0.51355  -0.50409  -0.50308  -0.49961  -0.49552
 Alpha  occ. eigenvalues --   -0.49490  -0.48867  -0.48561  -0.48487  -0.47664
 Alpha  occ. eigenvalues --   -0.47588  -0.47263  -0.46903  -0.46798  -0.46459
 Alpha  occ. eigenvalues --   -0.45941  -0.45543  -0.45258  -0.45143  -0.44433
 Alpha  occ. eigenvalues --   -0.44088  -0.43860  -0.43627  -0.43299  -0.42969
 Alpha  occ. eigenvalues --   -0.42880  -0.42685  -0.42319  -0.42271  -0.41534
 Alpha  occ. eigenvalues --   -0.41493  -0.41054  -0.40860  -0.40525  -0.40192
 Alpha  occ. eigenvalues --   -0.40141  -0.39757  -0.39573  -0.39435  -0.39302
 Alpha  occ. eigenvalues --   -0.38755  -0.38606  -0.38393  -0.38127  -0.37307
 Alpha  occ. eigenvalues --   -0.37262  -0.37020  -0.36630  -0.36074  -0.35722
 Alpha  occ. eigenvalues --   -0.35464  -0.34710  -0.33718  -0.32751  -0.31749
 Alpha  occ. eigenvalues --   -0.31232  -0.30336  -0.28770  -0.26136  -0.24336
 Alpha  occ. eigenvalues --   -0.18517
 Alpha virt. eigenvalues --   -0.07611  -0.00562   0.01872   0.05533   0.08157
 Alpha virt. eigenvalues --    0.10365   0.10554   0.10995   0.11707   0.11886
 Alpha virt. eigenvalues --    0.12284   0.12690   0.13019   0.13139   0.13247

 Mulliken charges:
               1
     1  O   -0.585047
     2  O   -0.570289
     3  C   -0.033279
     4  C   -0.043171
     5  C   -0.181996
     6  C   -0.173667
     7  C    0.178403
     8  C    0.176535
     9  C    0.071076
    10  C    0.044236
    11  C   -0.203461
    12  C   -0.217169
    13  C    0.079675
    14  C    0.045696
    15  C   -0.281623
    16  C   -0.295956
    17  C   -0.301738
    18  C   -0.262533
    19  C   -0.089626
    20  C   -0.110978
    21  C   -0.381179
    22  C   -0.364258
    23  C   -0.092958
    24  C   -0.096187
    25  C    0.120981
    26  C    0.093946
    27  C   -0.388937
    28  C   -0.374720
    29  C   -0.116814
    30  C   -0.111041
    31  C   -0.084810
    32  C   -0.097665
    33  C   -0.124349
    34  C   -0.113069
    35  C    0.107799
    36  C    0.102288
    37  C   -0.350441
    38  C   -0.353734
    39  C   -0.090344
    40  C   -0.102673
    41  C   -0.121169
    42  C   -0.078186
    43  H    0.113561
    44  H    0.075527
    45  H    0.079942
    46  H    0.089644
    47  H    0.077178
    48  H    0.074710
    49  H    0.097544
    50  H    0.104449
    51  H    0.101883
    52  H    0.110127
    53  H    0.109015
    54  H    0.101229
    55  H    0.083869
    56  H    0.094226
    57  H    0.077626
    58  H    0.114333
    59  H    0.104428
    60  H    0.105825
    61  H    0.097314
    62  H    0.093515
    63  H    0.085885
    64  H    0.101582
    65  H    0.069794
    66  H    0.078338
    67  H    0.121984
    68  H    0.107753
    69  H    0.080399
    70  H    0.116610
    71  H    0.119551
    72  H    0.108808
    73  H    0.303979
    74  H    0.305889
    75  H    0.040884
    76  H    0.063594
    77  H    0.099239
    78  H    0.132212
    79  H    0.139617
    80  H    0.126178
    81  H    0.119121
    82  H    0.096414
    83  H    0.084589
    84  H    0.082080
    85  H    0.075195
    86  H    0.100671
    87  H    0.074571
    88  H    0.053130
    89  H    0.089615
    90  H    0.115006
    91  H    0.090233
    92  H    0.144978
    93  H    0.117671
    94  H    0.082538
    95  H    0.066421
    96  H    0.082067
    97  H    0.104147
    98  H    0.085748
 Sum of Mulliken charges =  -0.00000

 Dipole moment (field-independent basis, Debye):
    X=             -0.8387    Y=             -1.4252    Z=              0.8179  Tot=              1.8448
 Quadrupole moment (field-independent basis, Debye-Ang):
   XX=           -285.1573   YY=           -242.7666   ZZ=           -260.4630
   XY=              5.9696   XZ=            -16.9011   YZ=              3.8675

 Normal termination of Gaussian 16 at Sun Jul 14 23:25:43 2019.
