 Gaussian 16, Revision A.03,
 Gaussian 16:  ES64L-G16RevA.03 25-Dec-2016

 -------------------------------------
 # td=(NStates=1) CAM-B3LYP/6-31G(d,p)
 -------------------------------------

 --
 TD
 --
 Symbolic Z-matrix:
 Charge =  0 Multiplicity = 1

                         Standard orientation:
 ---------------------------------------------------------------------
 Center     Atomic      Atomic             Coordinates (Angstroms)
 Number     Number       Type             X           Y           Z
 ---------------------------------------------------------------------
      1          8           0       14.736044   -2.144032   -0.185974
      2          8           0      -14.822691    1.995669    0.813857
      3          6           0       11.222431   -1.480709    0.878179
      4          6           0      -12.443137   -1.053493    0.516665
      5          6           0       12.608063   -1.850982    0.990059
      6          6           0      -13.721894   -0.249475    0.459617
      7          6           0       13.385358   -1.797398   -0.353965
      8          6           0      -13.545214    1.231189    0.772301
      9          6           0       11.021143   -0.271853   -0.098570
     10          6           0      -11.350447   -0.330361   -0.207704
     11          6           0       13.424819   -0.443985   -1.096434
     12          6           0      -12.706042    1.822042   -0.328857
     13          6           0       12.062284    0.202441   -0.940657
     14          6           0      -11.501976    0.964773   -0.690827
     15          6           0       10.629358   -1.127369    2.307331
     16          6           0       10.357213   -2.706456    0.433080
     17          6           0      -11.940007   -1.075418    2.002007
     18          6           0      -12.640632   -2.420111    0.008177
     19          6           0        9.656314    0.438960   -0.001336
     20          6           0      -10.047754   -1.048753   -0.373184
     21          6           0       11.741559    1.310230   -1.748609
     22          6           0      -10.448685    1.875727   -1.372067
     23          6           0        9.340134    1.645119   -0.030416
     24          6           0       -8.837062   -0.447687   -0.295547
     25          6           0        8.052655    2.257111    0.152915
     26          6           0       -7.583658   -1.257430   -0.420739
     27          6           0        7.982744    3.755881    0.443859
     28          6           0       -7.657307   -2.662324   -0.991222
     29          6           0        6.909233    1.527277    0.151256
     30          6           0       -6.350789   -0.524171   -0.280026
     31          6           0        5.617129    2.036366    0.344164
     32          6           0       -5.080453   -1.086996   -0.424561
     33          6           0        4.500648    1.213806    0.123197
     34          6           0       -3.968112   -0.374312   -0.204673
     35          6           0        3.114559    1.647562    0.225355
     36          6           0       -2.597699   -0.857733   -0.450435
     37          6           0        2.832028    3.057624    0.545957
     38          6           0       -2.427621   -2.235155   -0.952777
     39          6           0        2.156580    0.627903   -0.084754
     40          6           0       -1.585945    0.077385   -0.161503
     41          6           0        0.741915    0.879830   -0.042792
     42          6           0       -0.258511   -0.186921   -0.258459
     43          1           0       13.152825   -1.265983    1.876437
     44          1           0       12.652285   -2.822280    1.407418
     45          1           0      -14.236652   -0.496317    1.321975
     46          1           0      -14.232957   -0.235023   -0.493529
     47          1           0       12.796384   -2.682109   -0.997868
     48          1           0      -12.904331    1.530891    1.729842
     49          1           0       14.050213    0.352098   -0.505538
     50          1           0       14.068380   -0.424890   -2.023640
     51          1           0      -13.286579    2.060365   -1.197565
     52          1           0      -12.538485    2.757601   -0.089667
     53          1           0       10.584708   -2.003836    2.993419
     54          1           0        9.538398   -0.890043    2.202131
     55          1           0       11.195649   -0.242940    2.760117
     56          1           0       10.924755   -2.973479   -0.567986
     57          1           0       10.375778   -3.572911    1.236152
     58          1           0        9.316278   -2.531741    0.451875
     59          1           0      -11.839909   -0.214420    2.442395
     60          1           0      -10.927496   -1.641093    2.008024
     61          1           0      -12.715232   -1.726329    2.403040
     62          1           0      -13.529943   -2.849260    0.389282
     63          1           0      -11.941817   -3.161321    0.208329
     64          1           0      -12.835058   -2.437171   -1.107916
     65          1           0        8.932177   -0.414063    0.281945
     66          1           0       -9.963072   -2.102355   -0.840698
     67          1           0       10.556855    1.467305   -2.007745
     68          1           0       11.957095    2.195643   -1.364247
     69          1           0       12.205734    1.233625   -2.792480
     70          1           0      -10.907563    2.602232   -1.955629
     71          1           0       -9.723697    1.326847   -2.087521
     72          1           0       -9.551209    2.301320   -0.613921
     73          1           0       14.800041   -2.888683    0.663746
     74          1           0      -15.038607    1.833191    1.697948
     75          1           0       10.027162    2.330675   -0.248230
     76          1           0       -8.662375    0.465034    0.151075
     77          1           0        8.953414    4.275393    0.814317
     78          1           0        7.370179    4.397973   -0.456678
     79          1           0        7.043817    3.706909    1.372255
     80          1           0       -8.234666   -3.109363   -0.200045
     81          1           0       -8.198977   -2.732879   -1.908928
     82          1           0       -6.647869   -3.084717   -1.044736
     83          1           0        7.121518    0.594068   -0.008321
     84          1           0       -6.437960    0.605663   -0.116753
     85          1           0        5.510733    2.971000    0.696283
     86          1           0       -5.034507   -2.059458   -0.960199
     87          1           0        4.802252    0.168333   -0.112693
     88          1           0       -4.028769    0.461575    0.296371
     89          1           0        3.107849    3.214406    1.580324
     90          1           0        1.850580    3.297619    0.477192
     91          1           0        3.200740    3.776071   -0.277123
     92          1           0       -2.720013   -2.926057   -0.214940
     93          1           0       -2.986498   -2.483108   -1.974677
     94          1           0       -1.280357   -2.487006   -1.074933
     95          1           0        2.556171   -0.309647   -0.307366
     96          1           0       -2.002015    0.967003    0.263589
     97          1           0        0.368129    1.811084    0.207825
     98          1           0        0.100352   -1.241345   -0.668839
 ---------------------------------------------------------------------

 SCF Done:  E(RCAM-B3LYP) =  -1706.93120629     A.U. after   15 cycles

 Excitation energies and oscillator strengths:

 Excited State   1:      Singlet-A      2.1509 eV  576.42 nm  f=3.6263  <S**2>=0.000
     155 ->158        -0.14274
     156 ->157         0.69392
 This state for optimization and/or second-order correction.
 Total Energy, E(TD-HF/TD-DFT) =  -1706.85216037
 Copying the excited state density for this state as the 1-particle RhoCI density.

 The electronic state is 1-A.
 Alpha  occ. eigenvalues --  -19.22388 -19.21150 -10.32290 -10.30946 -10.29231
 Alpha  occ. eigenvalues --  -10.27827 -10.27761 -10.27666 -10.27459 -10.27270
 Alpha  occ. eigenvalues --  -10.27218 -10.27021 -10.26948 -10.26943 -10.26859
 Alpha  occ. eigenvalues --  -10.26837 -10.26694 -10.26666 -10.26493 -10.26470
 Alpha  occ. eigenvalues --  -10.26367 -10.26326 -10.26140 -10.26126 -10.25940
 Alpha  occ. eigenvalues --  -10.25815 -10.25615 -10.25595 -10.25549 -10.25467
 Alpha  occ. eigenvalues --  -10.25444 -10.25384 -10.25279 -10.24912 -10.24670
 Alpha  occ. eigenvalues --  -10.24210 -10.24139 -10.24049 -10.23932 -10.23479
 Alpha  occ. eigenvalues --  -10.23220 -10.22946  -1.09045  -1.07853  -0.94240
 Alpha  occ. eigenvalues --   -0.93343  -0.92009  -0.91722  -0.90396  -0.89762
 Alpha  occ. eigenvalues --   -0.88012  -0.87247  -0.86944  -0.85828  -0.84351
 Alpha  occ. eigenvalues --   -0.82792  -0.81571  -0.79930  -0.79653  -0.79067
 Alpha  occ. eigenvalues --   -0.77589  -0.76748  -0.76664  -0.76295  -0.75839
 Alpha  occ. eigenvalues --   -0.75381  -0.74767  -0.74569  -0.73006  -0.70373
 Alpha  occ. eigenvalues --   -0.67887  -0.66775  -0.65509  -0.65008  -0.64535
 Alpha  occ. eigenvalues --   -0.63622  -0.63301  -0.61675  -0.61354  -0.60426
 Alpha  occ. eigenvalues --   -0.59016  -0.58446  -0.58059  -0.57241  -0.56593
 Alpha  occ. eigenvalues --   -0.55888  -0.55397  -0.54784  -0.54577  -0.54198
 Alpha  occ. eigenvalues --   -0.53602  -0.53098  -0.52545  -0.51273  -0.50913
 Alpha  occ. eigenvalues --   -0.50592  -0.50403  -0.50304  -0.49817  -0.49653
 Alpha  occ. eigenvalues --   -0.49090  -0.48874  -0.48661  -0.48437  -0.48250
 Alpha  occ. eigenvalues --   -0.47895  -0.47530  -0.46806  -0.46495  -0.46214
 Alpha  occ. eigenvalues --   -0.46061  -0.45809  -0.45604  -0.45193  -0.45090
 Alpha  occ. eigenvalues --   -0.44452  -0.44262  -0.44024  -0.44018  -0.43297
 Alpha  occ. eigenvalues --   -0.43271  -0.43078  -0.42851  -0.42604  -0.42443
 Alpha  occ. eigenvalues --   -0.42152  -0.41991  -0.41495  -0.40951  -0.40878
 Alpha  occ. eigenvalues --   -0.40691  -0.40394  -0.39915  -0.39750  -0.39474
 Alpha  occ. eigenvalues --   -0.39334  -0.39011  -0.38313  -0.37923  -0.37784
 Alpha  occ. eigenvalues --   -0.37368  -0.37008  -0.36425  -0.36195  -0.35703
 Alpha  occ. eigenvalues --   -0.35391  -0.35200  -0.34491  -0.32720  -0.32298
 Alpha  occ. eigenvalues --   -0.31112  -0.28694  -0.27462  -0.25674  -0.23280
 Alpha  occ. eigenvalues --   -0.18875
 Alpha virt. eigenvalues --   -0.05744  -0.00504   0.02559   0.05794   0.07223
 Alpha virt. eigenvalues --    0.08878   0.09494   0.11208   0.11576   0.12028
 Alpha virt. eigenvalues --    0.12303   0.12750   0.13354   0.13678   0.13861

 Mulliken charges:
               1
     1  O   -0.567249
     2  O   -0.548854
     3  C   -0.016444
     4  C   -0.026165
     5  C   -0.203858
     6  C   -0.149795
     7  C    0.220056
     8  C    0.087254
     9  C    0.037480
    10  C    0.058822
    11  C   -0.221199
    12  C   -0.212681
    13  C    0.081623
    14  C    0.044968
    15  C   -0.300814
    16  C   -0.287810
    17  C   -0.291431
    18  C   -0.316852
    19  C   -0.109084
    20  C   -0.151284
    21  C   -0.396993
    22  C   -0.349069
    23  C   -0.062897
    24  C   -0.054239
    25  C    0.075571
    26  C    0.044943
    27  C   -0.353176
    28  C   -0.368571
    29  C   -0.063118
    30  C   -0.128500
    31  C   -0.079710
    32  C   -0.081298
    33  C   -0.120212
    34  C   -0.094456
    35  C    0.081566
    36  C    0.102647
    37  C   -0.369767
    38  C   -0.377045
    39  C   -0.098892
    40  C   -0.091632
    41  C   -0.103613
    42  C   -0.105263
    43  H    0.081189
    44  H    0.092976
    45  H    0.080503
    46  H    0.117605
    47  H    0.047331
    48  H    0.071828
    49  H    0.115020
    50  H    0.129733
    51  H    0.111910
    52  H    0.115333
    53  H    0.092988
    54  H    0.096550
    55  H    0.098117
    56  H    0.095494
    57  H    0.078845
    58  H    0.110385
    59  H    0.112736
    60  H    0.100163
    61  H    0.095007
    62  H    0.104640
    63  H    0.111794
    64  H    0.101171
    65  H    0.072782
    66  H    0.084120
    67  H    0.108129
    68  H    0.136046
    69  H    0.090793
    70  H    0.113627
    71  H    0.109342
    72  H    0.085944
    73  H    0.301991
    74  H    0.303600
    75  H    0.069784
    76  H    0.082224
    77  H    0.109477
    78  H    0.099036
    79  H    0.079969
    80  H    0.129352
    81  H    0.136854
    82  H    0.107387
    83  H    0.051169
    84  H    0.080734
    85  H    0.074340
    86  H    0.080183
    87  H    0.081904
    88  H    0.066813
    89  H    0.132310
    90  H    0.116785
    91  H    0.120269
    92  H    0.139675
    93  H    0.112746
    94  H    0.089553
    95  H    0.084827
    96  H    0.084063
    97  H    0.085502
    98  H    0.084388
 Sum of Mulliken charges =  -0.00000

 Dipole moment (field-independent basis, Debye):
    X=             -0.3567    Y=             -1.2043    Z=              2.0794  Tot=              2.4292
 Quadrupole moment (field-independent basis, Debye-Ang):
   XX=           -291.3226   YY=           -244.5946   ZZ=           -260.0837
   XY=             13.9210   XZ=             -0.7353   YZ=              0.4207

 Normal termination of Gaussian 16 at Mon Jul 15 17:17:39 2019.
