 Gaussian 16, Revision A.03,
 Gaussian 16:  ES64L-G16RevA.03 25-Dec-2016

 -------------------------------------
 # td=(NStates=1) CAM-B3LYP/6-31G(d,p)
 -------------------------------------

 --
 TD
 --
 Symbolic Z-matrix:
 Charge =  0 Multiplicity = 1

                         Standard orientation:
 ---------------------------------------------------------------------
 Center     Atomic      Atomic             Coordinates (Angstroms)
 Number     Number       Type             X           Y           Z
 ---------------------------------------------------------------------
      1          8           0       14.948776   -1.919746   -0.440865
      2          8           0      -14.818874    2.042316    0.625606
      3          6           0       11.483053   -1.414534    0.953585
      4          6           0      -12.483600   -0.855739    0.639998
      5          6           0       13.007667   -1.618162    0.895651
      6          6           0      -13.825508   -0.133311    0.544882
      7          6           0       13.546324   -1.675528   -0.554911
      8          6           0      -13.589803    1.370268    0.689522
      9          6           0       11.095594   -0.267070   -0.174942
     10          6           0      -11.378503   -0.198553   -0.222996
     11          6           0       13.404371   -0.334356   -1.112112
     12          6           0      -12.875021    1.837110   -0.526481
     13          6           0       11.921536    0.164687   -1.093929
     14          6           0      -11.610907    1.018321   -0.849082
     15          6           0       10.989319   -0.991418    2.381275
     16          6           0       10.607366   -2.616219    0.459548
     17          6           0      -12.021064   -1.077507    2.131008
     18          6           0      -12.700272   -2.332460    0.132348
     19          6           0        9.705369    0.355578    0.047716
     20          6           0      -10.146128   -0.980952   -0.428690
     21          6           0       11.660375    1.153845   -2.167080
     22          6           0      -10.599756    1.635352   -1.754007
     23          6           0        9.405112    1.711475    0.149708
     24          6           0       -8.862952   -0.455859   -0.376481
     25          6           0        8.142946    2.272939    0.238108
     26          6           0       -7.692928   -1.239827   -0.603751
     27          6           0        8.008580    3.698107    0.437264
     28          6           0       -7.815162   -2.698983   -0.867515
     29          6           0        6.945920    1.434687    0.159032
     30          6           0       -6.493215   -0.636196   -0.341489
     31          6           0        5.545324    1.879393    0.462404
     32          6           0       -5.201142   -1.216216   -0.421939
     33          6           0        4.446963    1.099849    0.320278
     34          6           0       -4.041657   -0.407307   -0.213689
     35          6           0        3.121691    1.458822    0.501506
     36          6           0       -2.678548   -0.920780   -0.263180
     37          6           0        2.800583    2.939398    0.671473
     38          6           0       -2.395755   -2.246862   -0.673063
     39          6           0        2.120196    0.596771    0.152800
     40          6           0       -1.627199   -0.013138    0.000005
     41          6           0        0.749048    0.690814    0.127565
     42          6           0       -0.303761   -0.236782   -0.158522
     43          1           0       13.586324   -0.979879    1.652324
     44          1           0       13.144097   -2.615937    1.496077
     45          1           0      -14.543820   -0.558980    1.101081
     46          1           0      -14.265813   -0.529289   -0.448319
     47          1           0       13.146936   -2.521399   -1.219397
     48          1           0      -13.028329    1.763080    1.534389
     49          1           0       14.030009    0.435968   -0.613305
     50          1           0       13.921802   -0.405597   -2.010120
     51          1           0      -13.375372    1.816279   -1.461000
     52          1           0      -12.632924    2.928657   -0.376777
     53          1           0       11.264947   -1.834616    3.130469
     54          1           0        9.777195   -0.718728    2.161337
     55          1           0       11.624052   -0.049664    2.558416
     56          1           0       10.883612   -2.969310   -0.444409
     57          1           0       10.583335   -3.430654    1.097138
     58          1           0        9.516986   -2.352147    0.443620
     59          1           0      -11.643700   -0.141907    2.486768
     60          1           0      -11.257889   -1.769196    2.157847
     61          1           0      -12.646474   -1.611982    2.739939
     62          1           0      -13.436807   -2.516172    0.794206
     63          1           0      -11.708894   -2.945585    0.579554
     64          1           0      -12.840810   -2.483941   -0.835450
     65          1           0        9.108474   -0.362202    0.476721
     66          1           0      -10.159140   -2.053002   -0.411602
     67          1           0       10.566764    1.548263   -2.106483
     68          1           0       12.161783    1.985077   -2.028958
     69          1           0       11.886443    0.621992   -3.137737
     70          1           0      -10.984432    2.565030   -2.386210
     71          1           0      -10.218106    0.807619   -2.517683
     72          1           0       -9.791810    2.023550   -1.167743
     73          1           0       14.734848   -2.792638   -0.151865
     74          1           0      -15.499936    2.142112    1.329120
     75          1           0       10.235367    2.459394    0.127209
     76          1           0       -8.841871    0.570364   -0.070695
     77          1           0        9.101279    4.217745    0.577258
     78          1           0        7.497008    4.260423   -0.451252
     79          1           0        7.284186    3.999709    1.481419
     80          1           0       -8.388473   -3.165367   -0.165113
     81          1           0       -8.368232   -2.868509   -1.849634
     82          1           0       -6.835478   -3.280331   -1.043072
     83          1           0        7.066460    0.369997   -0.044685
     84          1           0       -6.488801    0.478519   -0.043038
     85          1           0        5.533082    2.872616    0.700520
     86          1           0       -4.960919   -2.162138   -0.818689
     87          1           0        4.697616    0.141208    0.222600
     88          1           0       -4.171442    0.692579   -0.182932
     89          1           0        2.871325    3.201064    1.748896
     90          1           0        1.524024    2.977209    0.385929
     91          1           0        3.248887    3.578824   -0.197866
     92          1           0       -3.057835   -3.013638   -0.158382
     93          1           0       -2.701983   -2.454351   -1.761355
     94          1           0       -1.293444   -2.482787   -0.315231
     95          1           0        2.561558   -0.466555   -0.189180
     96          1           0       -2.007105    1.032029    0.290060
     97          1           0        0.343686    1.761240    0.417903
     98          1           0        0.021802   -1.192541   -0.311445
 ---------------------------------------------------------------------

 SCF Done:  E(RCAM-B3LYP) =  -1706.94785441     A.U. after   15 cycles

 Excitation energies and oscillator strengths:

 Excited State   1:      Singlet-A      1.9163 eV  646.99 nm  f=3.7191  <S**2>=0.000
     155 ->158         0.15821
     156 ->157         0.69024
 This state for optimization and/or second-order correction.
 Total Energy, E(TD-HF/TD-DFT) =  -1706.87743033
 Copying the excited state density for this state as the 1-particle RhoCI density.

 The electronic state is 1-A.
 Alpha  occ. eigenvalues --  -19.20758 -19.19670 -10.31077 -10.30616 -10.28818
 Alpha  occ. eigenvalues --  -10.28343 -10.27756 -10.27508 -10.27427 -10.27399
 Alpha  occ. eigenvalues --  -10.27303 -10.27106 -10.26991 -10.26972 -10.26951
 Alpha  occ. eigenvalues --  -10.26917 -10.26915 -10.26878 -10.26604 -10.26553
 Alpha  occ. eigenvalues --  -10.26553 -10.26550 -10.26515 -10.26511 -10.26189
 Alpha  occ. eigenvalues --  -10.26167 -10.25997 -10.25997 -10.25891 -10.25787
 Alpha  occ. eigenvalues --  -10.25723 -10.25595 -10.25562 -10.25445 -10.24713
 Alpha  occ. eigenvalues --  -10.24642 -10.24322 -10.24228 -10.24206 -10.23812
 Alpha  occ. eigenvalues --  -10.23568 -10.22618  -1.11268  -1.08238  -0.92948
 Alpha  occ. eigenvalues --   -0.92631  -0.92412  -0.91808  -0.90889  -0.90239
 Alpha  occ. eigenvalues --   -0.87217  -0.86766  -0.86660  -0.85302  -0.84275
 Alpha  occ. eigenvalues --   -0.83409  -0.82126  -0.80029  -0.79617  -0.78074
 Alpha  occ. eigenvalues --   -0.76968  -0.76800  -0.76682  -0.75638  -0.75612
 Alpha  occ. eigenvalues --   -0.75187  -0.74876  -0.74758  -0.72981  -0.70552
 Alpha  occ. eigenvalues --   -0.69134  -0.68205  -0.66136  -0.64914  -0.63572
 Alpha  occ. eigenvalues --   -0.63265  -0.62512  -0.61993  -0.60446  -0.60287
 Alpha  occ. eigenvalues --   -0.59438  -0.58935  -0.58669  -0.57651  -0.56110
 Alpha  occ. eigenvalues --   -0.55650  -0.55172  -0.54651  -0.54059  -0.53629
 Alpha  occ. eigenvalues --   -0.53142  -0.52762  -0.52140  -0.51821  -0.51531
 Alpha  occ. eigenvalues --   -0.50829  -0.50583  -0.49751  -0.49682  -0.49257
 Alpha  occ. eigenvalues --   -0.49160  -0.49021  -0.48903  -0.48826  -0.48481
 Alpha  occ. eigenvalues --   -0.48410  -0.48136  -0.46667  -0.46613  -0.46549
 Alpha  occ. eigenvalues --   -0.46139  -0.45853  -0.45501  -0.45261  -0.44582
 Alpha  occ. eigenvalues --   -0.44376  -0.44181  -0.43827  -0.43527  -0.43205
 Alpha  occ. eigenvalues --   -0.42724  -0.42646  -0.42327  -0.41941  -0.41827
 Alpha  occ. eigenvalues --   -0.41386  -0.41070  -0.41009  -0.40730  -0.40685
 Alpha  occ. eigenvalues --   -0.40616  -0.40429  -0.40038  -0.39678  -0.39121
 Alpha  occ. eigenvalues --   -0.38684  -0.38405  -0.38164  -0.38024  -0.37753
 Alpha  occ. eigenvalues --   -0.37704  -0.37136  -0.36855  -0.36460  -0.36103
 Alpha  occ. eigenvalues --   -0.34714  -0.34104  -0.33074  -0.32057  -0.31946
 Alpha  occ. eigenvalues --   -0.31393  -0.29829  -0.28429  -0.25539  -0.22822
 Alpha  occ. eigenvalues --   -0.18794
 Alpha virt. eigenvalues --   -0.06857  -0.01885   0.01607   0.06054   0.08306
 Alpha virt. eigenvalues --    0.10110   0.11292   0.11638   0.11729   0.12040
 Alpha virt. eigenvalues --    0.12343   0.12649   0.12841   0.13393   0.13745

 Mulliken charges:
               1
     1  O   -0.535823
     2  O   -0.599864
     3  C   -0.008856
     4  C   -0.054539
     5  C   -0.200543
     6  C   -0.176033
     7  C    0.125461
     8  C    0.202630
     9  C    0.037496
    10  C    0.077052
    11  C   -0.207290
    12  C   -0.198836
    13  C    0.029655
    14  C    0.025189
    15  C   -0.275074
    16  C   -0.300561
    17  C   -0.303768
    18  C   -0.281673
    19  C   -0.118865
    20  C   -0.140836
    21  C   -0.349939
    22  C   -0.362062
    23  C   -0.110336
    24  C   -0.093797
    25  C    0.140910
    26  C    0.122444
    27  C   -0.373269
    28  C   -0.381850
    29  C   -0.132150
    30  C   -0.128005
    31  C   -0.082647
    32  C   -0.085927
    33  C   -0.078583
    34  C   -0.128151
    35  C    0.111699
    36  C    0.134828
    37  C   -0.356174
    38  C   -0.392499
    39  C   -0.103728
    40  C   -0.108456
    41  C   -0.104931
    42  C   -0.075487
    43  H    0.113041
    44  H    0.059317
    45  H    0.087252
    46  H    0.089090
    47  H    0.090334
    48  H    0.090975
    49  H    0.120352
    50  H    0.107370
    51  H    0.129437
    52  H    0.097075
    53  H    0.099163
    54  H    0.081632
    55  H    0.104232
    56  H    0.110569
    57  H    0.099332
    58  H    0.094664
    59  H    0.102626
    60  H    0.105583
    61  H    0.101940
    62  H    0.107123
    63  H    0.058939
    64  H    0.111082
    65  H    0.078950
    66  H    0.075437
    67  H    0.101502
    68  H    0.127834
    69  H    0.107608
    70  H    0.085087
    71  H    0.115851
    72  H    0.128024
    73  H    0.298964
    74  H    0.307429
    75  H    0.084447
    76  H    0.084112
    77  H    0.091622
    78  H    0.124264
    79  H    0.088421
    80  H    0.138721
    81  H    0.114350
    82  H    0.104011
    83  H    0.077976
    84  H    0.080203
    85  H    0.072032
    86  H    0.083697
    87  H    0.070901
    88  H    0.086587
    89  H    0.130193
    90  H    0.063584
    91  H    0.127492
    92  H    0.114064
    93  H    0.126451
    94  H    0.105843
    95  H    0.062847
    96  H    0.078137
    97  H    0.067737
    98  H    0.077683
 Sum of Mulliken charges =  -0.00000

 Dipole moment (field-independent basis, Debye):
    X=             -2.1804    Y=             -1.3904    Z=              1.1844  Tot=              2.8443
 Quadrupole moment (field-independent basis, Debye-Ang):
   XX=           -266.9146   YY=           -241.9969   ZZ=           -262.2102
   XY=             -0.1060   XZ=            -14.1014   YZ=              3.7286

 Normal termination of Gaussian 16 at Fri Jul 12 06:20:33 2019.
