 Gaussian 16, Revision A.03,
 Gaussian 16:  ES64L-G16RevA.03 25-Dec-2016

 -------------------------------------
 # td=(NStates=1) CAM-B3LYP/6-31G(d,p)
 -------------------------------------

 --
 TD
 --
 Symbolic Z-matrix:
 Charge =  0 Multiplicity = 1

                         Standard orientation:
 ---------------------------------------------------------------------
 Center     Atomic      Atomic             Coordinates (Angstroms)
 Number     Number       Type             X           Y           Z
 ---------------------------------------------------------------------
      1          8           0       14.616807   -2.390528   -0.159181
      2          8           0      -14.566395    2.012199    1.165543
      3          6           0       11.149767   -1.365767    1.078687
      4          6           0      -12.261027   -0.986493    0.761750
      5          6           0       12.671366   -1.747119    1.123906
      6          6           0      -13.558442   -0.257459    0.837544
      7          6           0       13.279854   -2.007404   -0.263591
      8          6           0      -13.415523    1.218545    1.062899
      9          6           0       10.987046   -0.231771    0.006937
     10          6           0      -11.249493   -0.292562   -0.132050
     11          6           0       13.245573   -0.650398   -1.034959
     12          6           0      -12.726328    1.703286   -0.242050
     13          6           0       11.793516    0.035041   -0.895917
     14          6           0      -11.500814    0.907349   -0.637249
     15          6           0       10.763430   -0.859452    2.425160
     16          6           0       10.292968   -2.555885    0.828586
     17          6           0      -11.594277   -1.280585    2.128346
     18          6           0      -12.589285   -2.493414    0.251780
     19          6           0        9.639867    0.333656    0.186645
     20          6           0       -9.978880   -1.017132   -0.404975
     21          6           0       11.602045    1.087102   -2.063914
     22          6           0      -10.632707    1.720557   -1.634262
     23          6           0        9.324808    1.733767    0.020761
     24          6           0       -8.735268   -0.463615   -0.492616
     25          6           0        8.005791    2.326459    0.135081
     26          6           0       -7.522439   -1.158380   -0.821338
     27          6           0        7.945255    3.706559    0.475278
     28          6           0       -7.720371   -2.641701   -1.030133
     29          6           0        6.859169    1.542746    0.043095
     30          6           0       -6.349569   -0.454222   -0.555431
     31          6           0        5.562941    2.041925    0.200394
     32          6           0       -5.142494   -1.058318   -0.815040
     33          6           0        4.423961    1.273693    0.028074
     34          6           0       -3.962051   -0.267684   -0.588890
     35          6           0        3.048821    1.698158    0.191467
     36          6           0       -2.622255   -0.737605   -0.721028
     37          6           0        2.761865    3.109397    0.602604
     38          6           0       -2.498438   -2.110544   -1.108205
     39          6           0        2.085145    0.721071   -0.195688
     40          6           0       -1.516568    0.131429   -0.362903
     41          6           0        0.673514    0.917831   -0.140531
     42          6           0       -0.193618   -0.146331   -0.348392
     43          1           0       13.080283   -0.949792    1.749508
     44          1           0       13.104312   -2.384396    1.852319
     45          1           0      -14.019940   -0.800940    1.662192
     46          1           0      -14.159402   -0.522341   -0.128043
     47          1           0       12.732805   -2.766143   -0.868213
     48          1           0      -12.833040    1.317567    1.903069
     49          1           0       13.831436    0.032978   -0.544923
     50          1           0       13.669511   -0.756625   -2.086829
     51          1           0      -13.508614    1.727559   -0.875419
     52          1           0      -12.497117    2.860411   -0.112905
     53          1           0       10.681822   -1.765598    3.303644
     54          1           0        9.698332   -0.321986    2.600001
     55          1           0       11.475201   -0.091263    2.653205
     56          1           0       10.377151   -3.008898   -0.240408
     57          1           0       10.426503   -3.434126    1.666935
     58          1           0        9.193420   -2.350776    0.906914
     59          1           0      -11.286060   -0.423008    2.710409
     60          1           0      -10.683602   -1.897386    1.907156
     61          1           0      -12.466258   -1.645330    2.829926
     62          1           0      -13.160145   -3.137907    0.812029
     63          1           0      -11.560364   -3.061573    0.266717
     64          1           0      -12.873235   -2.325611   -0.631903
     65          1           0        8.846815   -0.069351    0.345675
     66          1           0      -10.117062   -1.991638   -0.695776
     67          1           0       10.470844    1.549360   -2.147032
     68          1           0       12.040641    1.960735   -1.789448
     69          1           0       12.091304    0.826120   -2.814095
     70          1           0      -11.167538    2.495678   -2.135582
     71          1           0      -10.087462    0.942875   -2.304858
     72          1           0       -9.943938    2.166024   -0.914241
     73          1           0       14.631998   -3.317092    0.196050
     74          1           0      -15.123874    1.849165    2.034492
     75          1           0       10.181213    2.240266   -0.224268
     76          1           0       -8.470977    0.488812   -0.356395
     77          1           0        8.984721    4.196033    0.449096
     78          1           0        7.400786    4.292930   -0.232999
     79          1           0        7.514817    3.813027    1.524880
     80          1           0       -8.454783   -2.968540   -0.425021
     81          1           0       -8.215358   -2.945946   -2.114213
     82          1           0       -6.750324   -3.225611   -0.856129
     83          1           0        6.928359    0.498867   -0.244325
     84          1           0       -6.221076    0.683215   -0.307399
     85          1           0        5.639484    3.095965    0.399001
     86          1           0       -4.983482   -2.039348   -1.160178
     87          1           0        4.537271    0.194111   -0.206698
     88          1           0       -3.982184    0.742946   -0.186167
     89          1           0        3.569952    3.457851    1.307270
     90          1           0        1.723760    3.209689    1.063405
     91          1           0        3.029153    3.870298   -0.285083
     92          1           0       -2.319683   -2.769732   -0.037320
     93          1           0       -3.268035   -2.415342   -1.910534
     94          1           0       -1.458398   -2.298251   -1.675526
     95          1           0        2.436626   -0.222857   -0.518818
     96          1           0       -1.847347    1.067453   -0.089639
     97          1           0        0.435863    1.911886   -0.100917
     98          1           0        0.240486   -1.106146   -0.372460
 ---------------------------------------------------------------------

 SCF Done:  E(RCAM-B3LYP) =  -1706.91777061     A.U. after   15 cycles

 Excitation energies and oscillator strengths:

 Excited State   1:      Singlet-A      1.9683 eV  629.91 nm  f=3.7087  <S**2>=0.000
     155 ->158        -0.14325
     156 ->157         0.69569
     156 <-157        -0.10181
 This state for optimization and/or second-order correction.
 Total Energy, E(TD-HF/TD-DFT) =  -1706.84543749
 Copying the excited state density for this state as the 1-particle RhoCI density.

 The electronic state is 1-A.
 Alpha  occ. eigenvalues --  -19.21441 -19.21410 -10.30873 -10.29003 -10.27952
 Alpha  occ. eigenvalues --  -10.27869 -10.27593 -10.27346 -10.26945 -10.26881
 Alpha  occ. eigenvalues --  -10.26876 -10.26815 -10.26759 -10.26584 -10.26555
 Alpha  occ. eigenvalues --  -10.26374 -10.26337 -10.26167 -10.26111 -10.26077
 Alpha  occ. eigenvalues --  -10.25964 -10.25962 -10.25860 -10.25810 -10.25762
 Alpha  occ. eigenvalues --  -10.25753 -10.25577 -10.25526 -10.25359 -10.25189
 Alpha  occ. eigenvalues --  -10.25117 -10.24962 -10.24811 -10.24800 -10.24692
 Alpha  occ. eigenvalues --  -10.24594 -10.24432 -10.24372 -10.24359 -10.24328
 Alpha  occ. eigenvalues --  -10.23948 -10.23175  -1.09942  -1.08234  -0.93935
 Alpha  occ. eigenvalues --   -0.93451  -0.92311  -0.91837  -0.91109  -0.89864
 Alpha  occ. eigenvalues --   -0.87662  -0.87050  -0.86263  -0.85234  -0.84614
 Alpha  occ. eigenvalues --   -0.83159  -0.82265  -0.80331  -0.79130  -0.78539
 Alpha  occ. eigenvalues --   -0.77692  -0.76522  -0.75958  -0.75872  -0.75653
 Alpha  occ. eigenvalues --   -0.75156  -0.74729  -0.74465  -0.73047  -0.71134
 Alpha  occ. eigenvalues --   -0.69525  -0.67495  -0.66434  -0.66090  -0.64267
 Alpha  occ. eigenvalues --   -0.63906  -0.63457  -0.62632  -0.60857  -0.60302
 Alpha  occ. eigenvalues --   -0.59534  -0.59127  -0.59034  -0.57747  -0.56264
 Alpha  occ. eigenvalues --   -0.56019  -0.55432  -0.54964  -0.54168  -0.53974
 Alpha  occ. eigenvalues --   -0.53109  -0.52497  -0.52094  -0.51920  -0.51599
 Alpha  occ. eigenvalues --   -0.50961  -0.50566  -0.50057  -0.49489  -0.49229
 Alpha  occ. eigenvalues --   -0.49002  -0.48638  -0.48413  -0.48337  -0.48276
 Alpha  occ. eigenvalues --   -0.47833  -0.47212  -0.47045  -0.46815  -0.46725
 Alpha  occ. eigenvalues --   -0.46384  -0.46207  -0.45469  -0.44744  -0.44586
 Alpha  occ. eigenvalues --   -0.44489  -0.44235  -0.44109  -0.43858  -0.43283
 Alpha  occ. eigenvalues --   -0.43087  -0.42988  -0.42652  -0.42011  -0.41837
 Alpha  occ. eigenvalues --   -0.41483  -0.41477  -0.41210  -0.41133  -0.40886
 Alpha  occ. eigenvalues --   -0.40363  -0.40334  -0.39765  -0.39516  -0.39281
 Alpha  occ. eigenvalues --   -0.38952  -0.38908  -0.38617  -0.38594  -0.38372
 Alpha  occ. eigenvalues --   -0.37922  -0.37128  -0.36591  -0.35270  -0.34760
 Alpha  occ. eigenvalues --   -0.34389  -0.33834  -0.33314  -0.32388  -0.32168
 Alpha  occ. eigenvalues --   -0.31690  -0.30362  -0.28542  -0.26121  -0.22849
 Alpha  occ. eigenvalues --   -0.18442
 Alpha virt. eigenvalues --   -0.06384  -0.01210   0.02633   0.06468   0.08717
 Alpha virt. eigenvalues --    0.10441   0.11455   0.11718   0.11935   0.12227
 Alpha virt. eigenvalues --    0.12493   0.12939   0.13048   0.13313   0.13823

 Mulliken charges:
               1
     1  O   -0.558272
     2  O   -0.577284
     3  C    0.004048
     4  C   -0.051730
     5  C   -0.197804
     6  C   -0.188176
     7  C    0.176557
     8  C    0.197731
     9  C    0.087096
    10  C    0.098954
    11  C   -0.216767
    12  C   -0.232697
    13  C   -0.000948
    14  C    0.024707
    15  C   -0.292790
    16  C   -0.284709
    17  C   -0.284139
    18  C   -0.285524
    19  C   -0.038602
    20  C   -0.170150
    21  C   -0.339538
    22  C   -0.352560
    23  C   -0.145722
    24  C   -0.054506
    25  C    0.095023
    26  C    0.085951
    27  C   -0.396131
    28  C   -0.365777
    29  C   -0.105192
    30  C   -0.121256
    31  C   -0.084356
    32  C   -0.072289
    33  C   -0.127963
    34  C   -0.131656
    35  C    0.117596
    36  C    0.122390
    37  C   -0.376650
    38  C   -0.382066
    39  C   -0.133431
    40  C   -0.113987
    41  C   -0.074599
    42  C   -0.068154
    43  H    0.092881
    44  H    0.076709
    45  H    0.072927
    46  H    0.082389
    47  H    0.081515
    48  H    0.079947
    49  H    0.134643
    50  H    0.097810
    51  H    0.132125
    52  H    0.083442
    53  H    0.068456
    54  H    0.096999
    55  H    0.106369
    56  H    0.086461
    57  H    0.081093
    58  H    0.100337
    59  H    0.096819
    60  H    0.108758
    61  H    0.074807
    62  H    0.111433
    63  H    0.071032
    64  H    0.110448
    65  H    0.041776
    66  H    0.088316
    67  H    0.103044
    68  H    0.127176
    69  H    0.104898
    70  H    0.113623
    71  H    0.114507
    72  H    0.126612
    73  H    0.307314
    74  H    0.306943
    75  H    0.071258
    76  H    0.064928
    77  H    0.105147
    78  H    0.130581
    79  H    0.127316
    80  H    0.139914
    81  H    0.094230
    82  H    0.101219
    83  H    0.079617
    84  H    0.098824
    85  H    0.076360
    86  H    0.091188
    87  H    0.082488
    88  H    0.072969
    89  H    0.120617
    90  H    0.113581
    91  H    0.114677
    92  H    0.106745
    93  H    0.119791
    94  H    0.090713
    95  H    0.079312
    96  H    0.075353
    97  H    0.084738
    98  H    0.092193
 Sum of Mulliken charges =  -0.00000

 Dipole moment (field-independent basis, Debye):
    X=              0.6620    Y=             -0.8870    Z=              1.3809  Tot=              1.7697
 Quadrupole moment (field-independent basis, Debye-Ang):
   XX=           -274.6924   YY=           -241.7850   ZZ=           -260.2128
   XY=              7.3214   XZ=            -11.6921   YZ=              2.2740

 Normal termination of Gaussian 16 at Thu Jul 11 03:45:08 2019.
