 Gaussian 16, Revision A.03,
 Gaussian 16:  ES64L-G16RevA.03 25-Dec-2016

 -------------------------------------
 # td=(NStates=1) CAM-B3LYP/6-31G(d,p)
 -------------------------------------

 --
 TD
 --
 Symbolic Z-matrix:
 Charge =  0 Multiplicity = 1

                         Standard orientation:
 ---------------------------------------------------------------------
 Center     Atomic      Atomic             Coordinates (Angstroms)
 Number     Number       Type             X           Y           Z
 ---------------------------------------------------------------------
      1          8           0       14.619028   -2.402280   -0.395960
      2          8           0      -14.749044    1.952836    0.694139
      3          6           0       11.132203   -1.295842    1.054461
      4          6           0      -12.228544   -1.034389    0.634124
      5          6           0       12.605159   -1.835845    1.067465
      6          6           0      -13.689095   -0.226575    0.573554
      7          6           0       13.148708   -2.021081   -0.348149
      8          6           0      -13.498023    1.240450    0.690316
      9          6           0       10.945469   -0.165086   -0.008505
     10          6           0      -11.161461   -0.286175   -0.234764
     11          6           0       13.096310   -0.782449   -1.237785
     12          6           0      -12.702073    1.700471   -0.547237
     13          6           0       11.841172   -0.012464   -1.063616
     14          6           0      -11.406019    0.934703   -0.797950
     15          6           0       10.795580   -0.809496    2.525011
     16          6           0       10.142958   -2.483383    0.624595
     17          6           0      -11.792486   -1.110350    2.085522
     18          6           0      -12.568078   -2.397814    0.034261
     19          6           0        9.586469    0.430003    0.115001
     20          6           0       -9.955745   -1.035538   -0.227035
     21          6           0       11.526955    1.008190   -2.179137
     22          6           0      -10.535677    1.558107   -1.694498
     23          6           0        9.232603    1.735619   -0.026054
     24          6           0       -8.761774   -0.443133   -0.282862
     25          6           0        7.980261    2.386658    0.082155
     26          6           0       -7.526137   -1.191853   -0.463057
     27          6           0        7.915861    3.856410    0.356740
     28          6           0       -7.737096   -2.600227   -0.815103
     29          6           0        6.855737    1.581252    0.059479
     30          6           0       -6.305376   -0.571921   -0.326899
     31          6           0        5.555337    2.115662    0.294575
     32          6           0       -4.960390   -1.174369   -0.534516
     33          6           0        4.510873    1.315498    0.090969
     34          6           0       -3.873366   -0.431431   -0.268069
     35          6           0        3.069230    1.748054    0.217487
     36          6           0       -2.560892   -0.793829   -0.330897
     37          6           0        2.856555    3.117892    0.904046
     38          6           0       -2.162525   -2.207883   -0.753163
     39          6           0        2.097018    0.790871    0.069576
     40          6           0       -1.562207    0.079508   -0.136794
     41          6           0        0.774031    0.947502    0.168976
     42          6           0       -0.193973   -0.029536   -0.251795
     43          1           0       13.361597   -1.014379    1.575734
     44          1           0       12.535672   -2.734114    1.602281
     45          1           0      -14.304078   -0.559791    1.429315
     46          1           0      -14.098377   -0.536252   -0.375606
     47          1           0       12.753588   -2.957986   -0.714159
     48          1           0      -12.916010    1.492980    1.768390
     49          1           0       13.882843   -0.150632   -1.100056
     50          1           0       13.290650   -1.189518   -2.199493
     51          1           0      -13.364918    1.480248   -1.405678
     52          1           0      -12.522884    2.941795   -0.613830
     53          1           0       11.206781   -1.296530    3.287511
     54          1           0        9.743525   -0.756897    2.634308
     55          1           0       11.613064    0.121543    2.696203
     56          1           0       10.249814   -2.815562   -0.400361
     57          1           0       10.682023   -3.301781    1.208020
     58          1           0        9.140553   -2.251288    0.751124
     59          1           0      -11.550215   -0.076049    2.641254
     60          1           0      -10.853008   -1.694517    2.171881
     61          1           0      -12.606291   -1.653731    2.683624
     62          1           0      -13.350282   -2.748620    0.601130
     63          1           0      -11.623966   -2.847035    0.304963
     64          1           0      -12.964222   -2.656123   -1.204123
     65          1           0        8.760905   -0.126275    0.505171
     66          1           0       -9.949829   -2.078828   -0.411485
     67          1           0       10.445372    1.263163   -2.221052
     68          1           0       12.315242    2.053780   -2.245324
     69          1           0       11.923736    0.302252   -3.065909
     70          1           0      -10.968157    2.420360   -2.354595
     71          1           0       -9.849539    0.822460   -2.248418
     72          1           0       -9.921385    2.295340   -1.231739
     73          1           0       14.792401   -3.178734    0.208860
     74          1           0      -15.016486    1.670678    1.530468
     75          1           0       10.133070    2.360826   -0.474508
     76          1           0       -8.700760    0.661309    0.040245
     77          1           0        8.909878    4.122961    0.511940
     78          1           0        7.530665    4.619045   -0.429968
     79          1           0        7.248012    3.927727    1.354093
     80          1           0       -7.995406   -3.422899    0.022778
     81          1           0       -8.369695   -2.737112   -1.598594
     82          1           0       -6.636028   -2.947134   -1.125226
     83          1           0        7.109125    0.466736   -0.345274
     84          1           0       -6.332679    0.474723   -0.198152
     85          1           0        5.327158    3.078850    0.563145
     86          1           0       -4.983458   -2.189196   -0.827783
     87          1           0        4.627449    0.278168   -0.379671
     88          1           0       -4.092307    0.539905   -0.237224
     89          1           0        3.709972    3.339776    1.881464
     90          1           0        1.854086    3.219124    1.218472
     91          1           0        2.981599    3.901888   -0.007325
     92          1           0       -2.243785   -2.866927    0.151974
     93          1           0       -2.815316   -2.653152   -1.572778
     94          1           0       -1.019619   -2.509399   -0.942340
     95          1           0        2.316098   -0.091686   -0.476187
     96          1           0       -1.992442    1.037784    0.199217
     97          1           0        0.391707    1.937813    0.238682
     98          1           0        0.319387   -0.830646   -0.483393
 ---------------------------------------------------------------------

 SCF Done:  E(RCAM-B3LYP) =  -1706.91655675     A.U. after   15 cycles

 Excitation energies and oscillator strengths:

 Excited State   1:      Singlet-A      2.3057 eV  537.74 nm  f=3.6637  <S**2>=0.000
     155 ->158         0.16177
     156 ->157         0.68564
 This state for optimization and/or second-order correction.
 Total Energy, E(TD-HF/TD-DFT) =  -1706.83182508
 Copying the excited state density for this state as the 1-particle RhoCI density.

 The electronic state is 1-A.
 Alpha  occ. eigenvalues --  -19.20730 -19.20085 -10.31471 -10.30627 -10.28829
 Alpha  occ. eigenvalues --  -10.28281 -10.28250 -10.27826 -10.27794 -10.27251
 Alpha  occ. eigenvalues --  -10.27082 -10.26918 -10.26875 -10.26766 -10.26743
 Alpha  occ. eigenvalues --  -10.26720 -10.26644 -10.26587 -10.26550 -10.26468
 Alpha  occ. eigenvalues --  -10.26463 -10.26438 -10.26330 -10.26277 -10.26226
 Alpha  occ. eigenvalues --  -10.26123 -10.25931 -10.25907 -10.25874 -10.25859
 Alpha  occ. eigenvalues --  -10.25785 -10.25721 -10.25388 -10.25349 -10.25254
 Alpha  occ. eigenvalues --  -10.25031 -10.24981 -10.24926 -10.24882 -10.24814
 Alpha  occ. eigenvalues --  -10.24735 -10.24655  -1.10357  -1.05385  -0.93745
 Alpha  occ. eigenvalues --   -0.93193  -0.92749  -0.91971  -0.91021  -0.90476
 Alpha  occ. eigenvalues --   -0.87861  -0.87630  -0.86614  -0.86133  -0.84697
 Alpha  occ. eigenvalues --   -0.83774  -0.82102  -0.80710  -0.79721  -0.78236
 Alpha  occ. eigenvalues --   -0.76704  -0.76539  -0.76165  -0.75883  -0.75524
 Alpha  occ. eigenvalues --   -0.75261  -0.74712  -0.74380  -0.73791  -0.70984
 Alpha  occ. eigenvalues --   -0.68643  -0.67346  -0.65846  -0.65066  -0.63690
 Alpha  occ. eigenvalues --   -0.63429  -0.62783  -0.62565  -0.61940  -0.60399
 Alpha  occ. eigenvalues --   -0.59188  -0.58438  -0.57771  -0.57399  -0.56365
 Alpha  occ. eigenvalues --   -0.55813  -0.55255  -0.54944  -0.54487  -0.53692
 Alpha  occ. eigenvalues --   -0.53035  -0.53002  -0.52394  -0.51850  -0.50940
 Alpha  occ. eigenvalues --   -0.50601  -0.50425  -0.49746  -0.49520  -0.49253
 Alpha  occ. eigenvalues --   -0.48681  -0.48445  -0.48097  -0.48059  -0.47681
 Alpha  occ. eigenvalues --   -0.47542  -0.47241  -0.47000  -0.46832  -0.46579
 Alpha  occ. eigenvalues --   -0.46162  -0.45762  -0.45510  -0.45342  -0.44766
 Alpha  occ. eigenvalues --   -0.44724  -0.44151  -0.44043  -0.43945  -0.43647
 Alpha  occ. eigenvalues --   -0.43464  -0.43023  -0.42563  -0.42098  -0.41911
 Alpha  occ. eigenvalues --   -0.41715  -0.41246  -0.41233  -0.41061  -0.40639
 Alpha  occ. eigenvalues --   -0.40439  -0.40273  -0.40020  -0.39843  -0.39426
 Alpha  occ. eigenvalues --   -0.38933  -0.38642  -0.38465  -0.37986  -0.37737
 Alpha  occ. eigenvalues --   -0.37657  -0.37394  -0.37009  -0.36523  -0.35813
 Alpha  occ. eigenvalues --   -0.35349  -0.34637  -0.33802  -0.32710  -0.31594
 Alpha  occ. eigenvalues --   -0.31567  -0.29597  -0.28121  -0.25623  -0.23529
 Alpha  occ. eigenvalues --   -0.19989
 Alpha virt. eigenvalues --   -0.05862  -0.00912   0.01756   0.05770   0.07444
 Alpha virt. eigenvalues --    0.09629   0.10971   0.11289   0.11657   0.11703
 Alpha virt. eigenvalues --    0.12272   0.12621   0.12928   0.13405   0.13495

 Mulliken charges:
               1
     1  O   -0.596311
     2  O   -0.534695
     3  C   -0.042912
     4  C   -0.050411
     5  C   -0.199051
     6  C   -0.183484
     7  C    0.154454
     8  C    0.150961
     9  C    0.072193
    10  C    0.072669
    11  C   -0.203942
    12  C   -0.227769
    13  C    0.041076
    14  C    0.112633
    15  C   -0.286440
    16  C   -0.306320
    17  C   -0.294518
    18  C   -0.277426
    19  C   -0.117104
    20  C   -0.131640
    21  C   -0.331071
    22  C   -0.400781
    23  C   -0.128679
    24  C   -0.110987
    25  C    0.102369
    26  C    0.113050
    27  C   -0.359616
    28  C   -0.379059
    29  C   -0.128921
    30  C   -0.130657
    31  C   -0.071694
    32  C   -0.084538
    33  C   -0.101592
    34  C   -0.109852
    35  C    0.070815
    36  C    0.166126
    37  C   -0.349544
    38  C   -0.387833
    39  C   -0.101051
    40  C   -0.135122
    41  C   -0.085379
    42  C   -0.078493
    43  H    0.083666
    44  H    0.090050
    45  H    0.072259
    46  H    0.109044
    47  H    0.094628
    48  H    0.047147
    49  H    0.143080
    50  H    0.125254
    51  H    0.127657
    52  H    0.080525
    53  H    0.116699
    54  H    0.109108
    55  H    0.078072
    56  H    0.111981
    57  H    0.087859
    58  H    0.113879
    59  H    0.101989
    60  H    0.107800
    61  H    0.091177
    62  H    0.113654
    63  H    0.099261
    64  H    0.075936
    65  H    0.077471
    66  H    0.097644
    67  H    0.128880
    68  H    0.075443
    69  H    0.085070
    70  H    0.093368
    71  H    0.122008
    72  H    0.124394
    73  H    0.297104
    74  H    0.298980
    75  H    0.071845
    76  H    0.084855
    77  H    0.121585
    78  H    0.115117
    79  H    0.107150
    80  H    0.107124
    81  H    0.140306
    82  H    0.080385
    83  H    0.088144
    84  H    0.077898
    85  H    0.094062
    86  H    0.085455
    87  H    0.076423
    88  H    0.081063
    89  H    0.093798
    90  H    0.123438
    91  H    0.108385
    92  H    0.120839
    93  H    0.111622
    94  H    0.102315
    95  H    0.082503
    96  H    0.070850
    97  H    0.078965
    98  H    0.065334
 Sum of Mulliken charges =  -0.00000

 Dipole moment (field-independent basis, Debye):
    X=             -0.2959    Y=             -1.7271    Z=              1.4559  Tot=              2.2782
 Quadrupole moment (field-independent basis, Debye-Ang):
   XX=           -307.0166   YY=           -244.8692   ZZ=           -261.2513
   XY=              8.9251   XZ=             -1.3319   YZ=             -0.1059

 Normal termination of Gaussian 16 at Wed Jul 17 19:42:39 2019.
