 Gaussian 16, Revision A.03,
 Gaussian 16:  ES64L-G16RevA.03 25-Dec-2016

 -------------------------------------
 # td=(NStates=1) CAM-B3LYP/6-31G(d,p)
 -------------------------------------

 --
 TD
 --
 Symbolic Z-matrix:
 Charge =  0 Multiplicity = 1

                         Standard orientation:
 ---------------------------------------------------------------------
 Center     Atomic      Atomic             Coordinates (Angstroms)
 Number     Number       Type             X           Y           Z
 ---------------------------------------------------------------------
      1          8           0       14.401338   -2.528439   -0.162439
      2          8           0      -14.394119    1.971035    1.569048
      3          6           0       11.087771   -1.461791    1.207716
      4          6           0      -12.114650   -1.049247    0.761918
      5          6           0       12.522063   -2.033833    1.185202
      6          6           0      -13.505621   -0.280295    0.889074
      7          6           0       13.090008   -2.143493   -0.229058
      8          6           0      -13.237060    1.184972    1.220338
      9          6           0       10.939287   -0.323229    0.111662
     10          6           0      -11.254382   -0.203608   -0.109916
     11          6           0       13.171580   -0.763867   -0.823787
     12          6           0      -12.666405    1.775067    0.015654
     13          6           0       11.863904    0.017834   -0.787630
     14          6           0      -11.449940    1.016424   -0.459414
     15          6           0       10.625350   -1.062252    2.611798
     16          6           0       10.148697   -2.588876    0.769489
     17          6           0      -11.459372   -1.483328    2.074662
     18          6           0      -12.502397   -2.419856    0.058907
     19          6           0        9.655338    0.472423    0.050047
     20          6           0      -10.029599   -0.979615   -0.576943
     21          6           0       11.654167    1.089517   -1.720899
     22          6           0      -10.629344    1.751349   -1.488107
     23          6           0        9.351634    1.806719    0.050785
     24          6           0       -8.732830   -0.594721   -0.461065
     25          6           0        8.085907    2.460580    0.220082
     26          6           0       -7.505668   -1.277763   -0.726407
     27          6           0        8.028756    3.792151    0.557485
     28          6           0       -7.690321   -2.753721   -1.100232
     29          6           0        6.921663    1.668250    0.009839
     30          6           0       -6.370654   -0.686479   -0.488500
     31          6           0        5.588418    2.155515    0.114645
     32          6           0       -5.045965   -1.177620   -0.778098
     33          6           0        4.465118    1.440378   -0.132113
     34          6           0       -3.909070   -0.393896   -0.703868
     35          6           0        3.086773    1.901737   -0.059497
     36          6           0       -2.584576   -0.694017   -0.845785
     37          6           0        2.792348    3.204273    0.266669
     38          6           0       -2.242764   -2.119259   -1.299202
     39          6           0        2.004452    1.004215   -0.482771
     40          6           0       -1.688606    0.367159   -0.515348
     41          6           0        0.581066    1.143840   -0.316648
     42          6           0       -0.335993    0.151279   -0.624851
     43          1           0       13.047671   -1.148972    1.705024
     44          1           0       12.755795   -2.962132    1.856986
     45          1           0      -14.135195   -0.808447    1.697699
     46          1           0      -14.036491   -0.328424   -0.069537
     47          1           0       12.460883   -2.721721   -0.835725
     48          1           0      -12.412453    1.380362    1.986371
     49          1           0       14.030942   -0.261607   -0.276613
     50          1           0       13.421482   -0.678780   -1.995649
     51          1           0      -13.508186    1.863786   -0.643149
     52          1           0      -12.370229    2.970950   -0.156846
     53          1           0       10.826177   -1.939533    3.410224
     54          1           0        9.615921   -0.740605    2.574122
     55          1           0       11.233953   -0.182554    2.900220
     56          1           0       10.340701   -3.176806   -0.265144
     57          1           0       10.059935   -3.458915    1.603502
     58          1           0        9.018088   -2.267203    0.624085
     59          1           0      -11.290410   -0.590082    2.653464
     60          1           0      -10.527857   -2.052348    2.045764
     61          1           0      -12.232675   -2.029896    2.773451
     62          1           0      -13.399753   -2.957531    0.650498
     63          1           0      -11.690446   -3.024093    0.165558
     64          1           0      -12.819949   -2.181150   -1.063562
     65          1           0        8.743700   -0.142306    0.529742
     66          1           0      -10.066305   -2.173464   -0.660773
     67          1           0       10.683498    1.225554   -1.879256
     68          1           0       12.050054    2.180873   -1.357434
     69          1           0       12.208136    0.843644   -2.671613
     70          1           0      -11.303232    2.385491   -2.219829
     71          1           0      -10.160885    0.961587   -2.129386
     72          1           0       -9.965842    2.435969   -0.936867
     73          1           0       14.569561   -3.371804    0.339189
     74          1           0      -15.016091    1.420631    2.356077
     75          1           0       10.056335    2.494408   -0.136845
     76          1           0       -8.672659    0.451626   -0.082164
     77          1           0        9.099668    4.307416    0.820038
     78          1           0        7.449015    4.538106   -0.188323
     79          1           0        7.300942    3.923500    1.481378
     80          1           0       -8.023767   -3.298646   -0.364868
     81          1           0       -8.390864   -3.003534   -1.977235
     82          1           0       -6.607718   -3.008954   -1.534121
     83          1           0        6.934969    0.463688   -0.061252
     84          1           0       -6.390800    0.253789    0.031790
     85          1           0        5.556076    3.171431    0.308945
     86          1           0       -5.051108   -2.219120   -1.061093
     87          1           0        4.506254    0.404913   -0.581471
     88          1           0       -4.108133    0.525239   -0.330968
     89          1           0        2.872349    3.221548    1.413836
     90          1           0        1.775175    3.569979    0.134941
     91          1           0        3.529790    3.952075   -0.402068
     92          1           0       -2.571091   -2.837383   -0.532458
     93          1           0       -2.937854   -2.528289   -2.152069
     94          1           0       -1.254205   -2.376575   -1.549713
     95          1           0        2.234944   -0.139949   -0.656972
     96          1           0       -2.338007    1.268257   -0.202558
     97          1           0        0.457621    2.201368   -0.148618
     98          1           0        0.130314   -0.823628   -0.866582
 ---------------------------------------------------------------------

 SCF Done:  E(RCAM-B3LYP) =  -1706.95734888     A.U. after   15 cycles

 Excitation energies and oscillator strengths:

 Excited State   1:      Singlet-A      2.0919 eV  592.69 nm  f=3.5398  <S**2>=0.000
     155 ->158         0.15353
     156 ->157         0.69020
 This state for optimization and/or second-order correction.
 Total Energy, E(TD-HF/TD-DFT) =  -1706.88047381
 Copying the excited state density for this state as the 1-particle RhoCI density.

 The electronic state is 1-A.
 Alpha  occ. eigenvalues --  -19.21964 -19.21257 -10.30119 -10.29749 -10.28393
 Alpha  occ. eigenvalues --  -10.28322 -10.28044 -10.27667 -10.27574 -10.27500
 Alpha  occ. eigenvalues --  -10.27377 -10.27244 -10.27157 -10.27114 -10.26981
 Alpha  occ. eigenvalues --  -10.26967 -10.26802 -10.26699 -10.26533 -10.26449
 Alpha  occ. eigenvalues --  -10.26437 -10.26341 -10.26330 -10.26304 -10.26240
 Alpha  occ. eigenvalues --  -10.26096 -10.25791 -10.25790 -10.25725 -10.25707
 Alpha  occ. eigenvalues --  -10.25638 -10.25610 -10.25572 -10.25551 -10.25497
 Alpha  occ. eigenvalues --  -10.25418 -10.25383 -10.25252 -10.25217 -10.25208
 Alpha  occ. eigenvalues --  -10.24966 -10.24610  -1.10601  -1.06023  -0.94137
 Alpha  occ. eigenvalues --   -0.93560  -0.92700  -0.92297  -0.91369  -0.90810
 Alpha  occ. eigenvalues --   -0.87772  -0.87486  -0.86771  -0.85312  -0.84741
 Alpha  occ. eigenvalues --   -0.83668  -0.82369  -0.80548  -0.79475  -0.78616
 Alpha  occ. eigenvalues --   -0.77294  -0.76188  -0.76111  -0.75575  -0.75356
 Alpha  occ. eigenvalues --   -0.75302  -0.74578  -0.73958  -0.73631  -0.70481
 Alpha  occ. eigenvalues --   -0.69103  -0.67011  -0.65559  -0.64875  -0.64319
 Alpha  occ. eigenvalues --   -0.63003  -0.62600  -0.61757  -0.61675  -0.59952
 Alpha  occ. eigenvalues --   -0.59815  -0.59049  -0.57881  -0.57413  -0.56361
 Alpha  occ. eigenvalues --   -0.55918  -0.54785  -0.54695  -0.54304  -0.53887
 Alpha  occ. eigenvalues --   -0.53335  -0.52658  -0.51998  -0.50982  -0.50805
 Alpha  occ. eigenvalues --   -0.50721  -0.50294  -0.49954  -0.49501  -0.49254
 Alpha  occ. eigenvalues --   -0.49097  -0.48490  -0.48267  -0.47894  -0.47775
 Alpha  occ. eigenvalues --   -0.47457  -0.47161  -0.47069  -0.46556  -0.46307
 Alpha  occ. eigenvalues --   -0.45936  -0.45726  -0.45545  -0.45209  -0.45164
 Alpha  occ. eigenvalues --   -0.44385  -0.44375  -0.44033  -0.43876  -0.43750
 Alpha  occ. eigenvalues --   -0.42929  -0.42437  -0.42233  -0.42181  -0.41965
 Alpha  occ. eigenvalues --   -0.41616  -0.41422  -0.40736  -0.40396  -0.40063
 Alpha  occ. eigenvalues --   -0.39882  -0.39698  -0.39555  -0.39228  -0.39146
 Alpha  occ. eigenvalues --   -0.38958  -0.38803  -0.38244  -0.37939  -0.37771
 Alpha  occ. eigenvalues --   -0.37605  -0.37403  -0.36564  -0.36348  -0.35807
 Alpha  occ. eigenvalues --   -0.35114  -0.34812  -0.34445  -0.32296  -0.32181
 Alpha  occ. eigenvalues --   -0.31558  -0.30034  -0.28566  -0.26312  -0.23476
 Alpha  occ. eigenvalues --   -0.19229
 Alpha virt. eigenvalues --   -0.06283  -0.01320   0.02549   0.05645   0.07763
 Alpha virt. eigenvalues --    0.08980   0.09650   0.11068   0.11714   0.11987
 Alpha virt. eigenvalues --    0.12402   0.12600   0.12651   0.13052   0.13419

 Mulliken charges:
               1
     1  O   -0.560434
     2  O   -0.581061
     3  C   -0.004069
     4  C   -0.030583
     5  C   -0.198511
     6  C   -0.198810
     7  C    0.213566
     8  C    0.189218
     9  C    0.063825
    10  C    0.105361
    11  C   -0.217858
    12  C   -0.217648
    13  C    0.078894
    14  C    0.056842
    15  C   -0.288878
    16  C   -0.281657
    17  C   -0.301975
    18  C   -0.276740
    19  C   -0.151067
    20  C   -0.177891
    21  C   -0.357881
    22  C   -0.361451
    23  C   -0.080210
    24  C   -0.087403
    25  C    0.143852
    26  C    0.124510
    27  C   -0.415002
    28  C   -0.367231
    29  C   -0.113395
    30  C   -0.113966
    31  C   -0.079595
    32  C   -0.102641
    33  C   -0.106458
    34  C   -0.121189
    35  C    0.125729
    36  C    0.149555
    37  C   -0.384036
    38  C   -0.388031
    39  C   -0.153348
    40  C   -0.114870
    41  C   -0.058567
    42  C   -0.106325
    43  H    0.090950
    44  H    0.074484
    45  H    0.071526
    46  H    0.113287
    47  H    0.086558
    48  H    0.077549
    49  H    0.118258
    50  H    0.077291
    51  H    0.121375
    52  H    0.073128
    53  H    0.089415
    54  H    0.116860
    55  H    0.102961
    56  H    0.085720
    57  H    0.074600
    58  H    0.085834
    59  H    0.106981
    60  H    0.116273
    61  H    0.082895
    62  H    0.079179
    63  H    0.108823
    64  H    0.089556
    65  H    0.060823
    66  H    0.060938
    67  H    0.139467
    68  H    0.093459
    69  H    0.092553
    70  H    0.093264
    71  H    0.126509
    72  H    0.121817
    73  H    0.304225
    74  H    0.295997
    75  H    0.071347
    76  H    0.069385
    77  H    0.102999
    78  H    0.115385
    79  H    0.123685
    80  H    0.141104
    81  H    0.110891
    82  H    0.087707
    83  H    0.079733
    84  H    0.082777
    85  H    0.073581
    86  H    0.072899
    87  H    0.085468
    88  H    0.064796
    89  H    0.125422
    90  H    0.120703
    91  H    0.099417
    92  H    0.128339
    93  H    0.110303
    94  H    0.117259
    95  H    0.055826
    96  H    0.101842
    97  H    0.072660
    98  H    0.101345
 Sum of Mulliken charges =  -0.00000

 Dipole moment (field-independent basis, Debye):
    X=              0.7905    Y=             -1.6781    Z=              1.9863  Tot=              2.7177
 Quadrupole moment (field-independent basis, Debye-Ang):
   XX=           -278.5985   YY=           -243.5632   ZZ=           -262.4352
   XY=             17.2431   XZ=              2.0457   YZ=             -1.8358

 Normal termination of Gaussian 16 at Sat Jul 13 17:09:49 2019.
