 Gaussian 16, Revision A.03,
 Gaussian 16:  ES64L-G16RevA.03 25-Dec-2016

 -------------------------------------
 # td=(NStates=1) CAM-B3LYP/6-31G(d,p)
 -------------------------------------

 --
 TD
 --
 Symbolic Z-matrix:
 Charge =  0 Multiplicity = 1

                         Standard orientation:
 ---------------------------------------------------------------------
 Center     Atomic      Atomic             Coordinates (Angstroms)
 Number     Number       Type             X           Y           Z
 ---------------------------------------------------------------------
      1          8           0       14.568802   -2.225980   -0.281617
      2          8           0      -14.705606    1.925829    1.052823
      3          6           0       11.123643   -1.425179    1.020408
      4          6           0      -12.320096   -1.015661    0.649726
      5          6           0       12.624501   -1.813608    1.048791
      6          6           0      -13.591165   -0.155352    0.743272
      7          6           0       13.246907   -1.865376   -0.332670
      8          6           0      -13.450090    1.256474    0.943771
      9          6           0       10.911309   -0.273259    0.112753
     10          6           0      -11.266209   -0.214388   -0.247347
     11          6           0       13.118013   -0.589488   -1.074251
     12          6           0      -12.687609    1.791075   -0.249134
     13          6           0       11.760833    0.164882   -0.908649
     14          6           0      -11.431473    1.093594   -0.521351
     15          6           0       10.749574   -1.145015    2.510536
     16          6           0       10.313643   -2.638574    0.491031
     17          6           0      -11.686098   -1.277296    2.083317
     18          6           0      -12.661664   -2.302860   -0.067687
     19          6           0        9.588669    0.369943    0.345732
     20          6           0       -9.971411   -0.963532   -0.439892
     21          6           0       11.562392    1.312746   -1.861214
     22          6           0      -10.405162    1.875249   -1.348796
     23          6           0        9.357950    1.706579    0.095453
     24          6           0       -8.730857   -0.558916   -0.349557
     25          6           0        8.082249    2.336129    0.243168
     26          6           0       -7.530499   -1.297712   -0.636221
     27          6           0        7.991272    3.819229    0.388562
     28          6           0       -7.724979   -2.748222   -0.969211
     29          6           0        6.918866    1.537453    0.200767
     30          6           0       -6.364732   -0.651417   -0.517307
     31          6           0        5.573909    2.021172    0.294405
     32          6           0       -5.061581   -1.201264   -0.675670
     33          6           0        4.500988    1.211686   -0.040948
     34          6           0       -3.953653   -0.365676   -0.416119
     35          6           0        3.172629    1.609042    0.118481
     36          6           0       -2.602984   -0.826488   -0.499328
     37          6           0        2.850938    3.047197    0.370891
     38          6           0       -2.246621   -2.210348   -0.898627
     39          6           0        2.228655    0.690062   -0.232827
     40          6           0       -1.559255    0.175748   -0.312402
     41          6           0        0.752069    0.880270   -0.247289
     42          6           0       -0.225423   -0.037481   -0.331844
     43          1           0       13.208781   -1.046414    1.567666
     44          1           0       12.815616   -2.733081    1.740731
     45          1           0      -14.420435   -0.599791    1.333647
     46          1           0      -14.070374   -0.009960   -0.258538
     47          1           0       12.711950   -2.447625   -1.026356
     48          1           0      -13.062011    1.482420    1.924702
     49          1           0       13.898039    0.119149   -0.870994
     50          1           0       13.228812   -0.726755   -2.016256
     51          1           0      -13.322504    1.851100   -1.201097
     52          1           0      -12.455081    2.799715    0.060250
     53          1           0       10.918894   -1.973369    3.196007
     54          1           0        9.779166   -1.026313    2.715579
     55          1           0       11.150931   -0.158288    2.851003
     56          1           0       10.471093   -2.872937   -0.724340
     57          1           0       10.449639   -3.615043    1.116331
     58          1           0        9.256942   -2.428755    0.949276
     59          1           0      -11.881690   -0.302161    2.777877
     60          1           0      -10.626084   -1.707897    2.031983
     61          1           0      -12.596270   -1.902562    2.380075
     62          1           0      -13.510443   -2.883096    0.323290
     63          1           0      -11.731328   -3.030447   -0.042525
     64          1           0      -12.898298   -2.326523   -1.107553
     65          1           0        8.835988   -0.137976    0.738823
     66          1           0      -10.204814   -2.014385   -0.803300
     67          1           0       10.618680    1.421626   -1.953841
     68          1           0       12.130594    2.312558   -1.495457
     69          1           0       12.001789    1.173012   -2.823743
     70          1           0      -11.043847    2.457444   -2.123537
     71          1           0       -9.734278    1.380966   -1.914746
     72          1           0       -9.992165    2.620009   -0.496076
     73          1           0       14.685697   -3.317532   -0.134514
     74          1           0      -15.324390    1.434472    1.654615
     75          1           0       10.151808    2.431695    0.119749
     76          1           0       -8.374251    0.396357    0.125139
     77          1           0        8.994375    4.295116    0.800761
     78          1           0        7.594455    4.255843   -0.498216
     79          1           0        7.323772    4.100530    1.320134
     80          1           0       -8.330013   -3.217314   -0.207808
     81          1           0       -8.167508   -2.664169   -1.987897
     82          1           0       -6.744699   -3.362982   -1.251142
     83          1           0        6.942289    0.722232   -0.086325
     84          1           0       -6.473343    0.477355   -0.237693
     85          1           0        5.343933    3.088514    0.512845
     86          1           0       -4.758373   -2.158926   -0.826165
     87          1           0        4.390182    0.187450   -0.563467
     88          1           0       -4.058093    0.610287   -0.114300
     89          1           0        2.991348    3.285325    1.475039
     90          1           0        1.753291    3.088149    0.195438
     91          1           0        3.292110    3.587213   -0.300537
     92          1           0       -2.486550   -2.988787   -0.059136
     93          1           0       -3.069377   -2.604524   -1.661746
     94          1           0       -1.210540   -2.408788   -1.147853
     95          1           0        2.517443   -0.457973   -0.154525
     96          1           0       -1.978934    1.159950   -0.203320
     97          1           0        0.369165    1.979142   -0.160984
     98          1           0        0.048663   -1.120564   -0.522950
 ---------------------------------------------------------------------

 SCF Done:  E(RCAM-B3LYP) =  -1706.94012804     A.U. after   15 cycles

 Excitation energies and oscillator strengths:

 Excited State   1:      Singlet-A      2.2017 eV  563.13 nm  f=3.6281  <S**2>=0.000
     155 ->158         0.17286
     156 ->157         0.68390
 This state for optimization and/or second-order correction.
 Total Energy, E(TD-HF/TD-DFT) =  -1706.85921774
 Copying the excited state density for this state as the 1-particle RhoCI density.

 The electronic state is 1-A.
 Alpha  occ. eigenvalues --  -19.21818 -19.20450 -10.29184 -10.28808 -10.28162
 Alpha  occ. eigenvalues --  -10.27700 -10.27571 -10.27500 -10.27421 -10.27130
 Alpha  occ. eigenvalues --  -10.27058 -10.26988 -10.26964 -10.26880 -10.26787
 Alpha  occ. eigenvalues --  -10.26410 -10.26349 -10.26285 -10.26255 -10.26239
 Alpha  occ. eigenvalues --  -10.26100 -10.25936 -10.25935 -10.25856 -10.25786
 Alpha  occ. eigenvalues --  -10.25748 -10.25743 -10.25679 -10.25631 -10.25522
 Alpha  occ. eigenvalues --  -10.25362 -10.25240 -10.25168 -10.25107 -10.25106
 Alpha  occ. eigenvalues --  -10.24723 -10.24544 -10.24530 -10.24504 -10.23911
 Alpha  occ. eigenvalues --  -10.23245 -10.23055  -1.08859  -1.08538  -0.93444
 Alpha  occ. eigenvalues --   -0.93333  -0.92281  -0.91848  -0.90771  -0.90100
 Alpha  occ. eigenvalues --   -0.87374  -0.86955  -0.86847  -0.85351  -0.84843
 Alpha  occ. eigenvalues --   -0.83012  -0.82211  -0.80277  -0.79814  -0.78328
 Alpha  occ. eigenvalues --   -0.76938  -0.76728  -0.76558  -0.76373  -0.75778
 Alpha  occ. eigenvalues --   -0.75406  -0.74972  -0.74766  -0.73571  -0.70836
 Alpha  occ. eigenvalues --   -0.69080  -0.67558  -0.65894  -0.65463  -0.64486
 Alpha  occ. eigenvalues --   -0.63666  -0.62777  -0.61346  -0.60830  -0.60397
 Alpha  occ. eigenvalues --   -0.59099  -0.58992  -0.58100  -0.57213  -0.56083
 Alpha  occ. eigenvalues --   -0.55834  -0.55261  -0.55006  -0.54367  -0.53696
 Alpha  occ. eigenvalues --   -0.53509  -0.52787  -0.52103  -0.51728  -0.51157
 Alpha  occ. eigenvalues --   -0.50407  -0.50257  -0.50144  -0.50101  -0.49868
 Alpha  occ. eigenvalues --   -0.49581  -0.49354  -0.49045  -0.48811  -0.48234
 Alpha  occ. eigenvalues --   -0.47895  -0.47552  -0.46913  -0.46260  -0.46008
 Alpha  occ. eigenvalues --   -0.45641  -0.45554  -0.45271  -0.44967  -0.44786
 Alpha  occ. eigenvalues --   -0.44073  -0.43700  -0.43557  -0.43265  -0.43134
 Alpha  occ. eigenvalues --   -0.42974  -0.42507  -0.42273  -0.42200  -0.41895
 Alpha  occ. eigenvalues --   -0.41824  -0.41527  -0.41257  -0.40840  -0.40633
 Alpha  occ. eigenvalues --   -0.40618  -0.40309  -0.40078  -0.39652  -0.39502
 Alpha  occ. eigenvalues --   -0.39435  -0.38978  -0.38581  -0.38272  -0.37966
 Alpha  occ. eigenvalues --   -0.37718  -0.37480  -0.36528  -0.35884  -0.35137
 Alpha  occ. eigenvalues --   -0.35050  -0.34631  -0.33928  -0.32129  -0.31688
 Alpha  occ. eigenvalues --   -0.31583  -0.29781  -0.28005  -0.26167  -0.22800
 Alpha  occ. eigenvalues --   -0.19150
 Alpha virt. eigenvalues --   -0.05464  -0.01267   0.02970   0.05628   0.08265
 Alpha virt. eigenvalues --    0.09237   0.09791   0.11763   0.12020   0.12224
 Alpha virt. eigenvalues --    0.12533   0.12747   0.13182   0.13482   0.13725

 Mulliken charges:
               1
     1  O   -0.567581
     2  O   -0.583791
     3  C   -0.029162
     4  C    0.006361
     5  C   -0.169399
     6  C   -0.205471
     7  C    0.185009
     8  C    0.191030
     9  C    0.078529
    10  C    0.056214
    11  C   -0.210056
    12  C   -0.231975
    13  C    0.016448
    14  C    0.034253
    15  C   -0.318821
    16  C   -0.285615
    17  C   -0.287572
    18  C   -0.310234
    19  C   -0.096556
    20  C   -0.175293
    21  C   -0.340637
    22  C   -0.326804
    23  C   -0.121023
    24  C   -0.074236
    25  C    0.070181
    26  C    0.131554
    27  C   -0.377486
    28  C   -0.366745
    29  C   -0.029736
    30  C   -0.149925
    31  C   -0.134919
    32  C   -0.081523
    33  C   -0.105325
    34  C   -0.100004
    35  C    0.130910
    36  C    0.118715
    37  C   -0.355979
    38  C   -0.389777
    39  C   -0.170479
    40  C   -0.121755
    41  C   -0.106558
    42  C   -0.062433
    43  H    0.098395
    44  H    0.064145
    45  H    0.064721
    46  H    0.100886
    47  H    0.070287
    48  H    0.077905
    49  H    0.111512
    50  H    0.108751
    51  H    0.120353
    52  H    0.110918
    53  H    0.101340
    54  H    0.106619
    55  H    0.110062
    56  H    0.096272
    57  H    0.088554
    58  H    0.090816
    59  H    0.089451
    60  H    0.121169
    61  H    0.097920
    62  H    0.096618
    63  H    0.079938
    64  H    0.119065
    65  H    0.089189
    66  H    0.083545
    67  H    0.136644
    68  H    0.097437
    69  H    0.107459
    70  H    0.089834
    71  H    0.130287
    72  H    0.097606
    73  H    0.308103
    74  H    0.303152
    75  H    0.090133
    76  H    0.081428
    77  H    0.096481
    78  H    0.140134
    79  H    0.110918
    80  H    0.127803
    81  H    0.128545
    82  H    0.091523
    83  H    0.026890
    84  H    0.077350
    85  H    0.089865
    86  H    0.076610
    87  H    0.086370
    88  H    0.076741
    89  H    0.121279
    90  H    0.099464
    91  H    0.134069
    92  H    0.110201
    93  H    0.108115
    94  H    0.122800
    95  H    0.080084
    96  H    0.075930
    97  H    0.076541
    98  H    0.069437
 Sum of Mulliken charges =  -0.00000

 Dipole moment (field-independent basis, Debye):
    X=              0.6011    Y=             -1.9691    Z=              0.3900  Tot=              2.0954
 Quadrupole moment (field-independent basis, Debye-Ang):
   XX=           -266.9244   YY=           -242.4971   ZZ=           -259.6563
   XY=             11.4574   XZ=             -8.0199   YZ=              1.8078

 Normal termination of Gaussian 16 at Mon Jul 15 03:49:07 2019.
