 Gaussian 16, Revision A.03,
 Gaussian 16:  ES64L-G16RevA.03 25-Dec-2016

 -------------------------------------
 # td=(NStates=1) CAM-B3LYP/6-31G(d,p)
 -------------------------------------

 --
 TD
 --
 Symbolic Z-matrix:
 Charge =  0 Multiplicity = 1

                         Standard orientation:
 ---------------------------------------------------------------------
 Center     Atomic      Atomic             Coordinates (Angstroms)
 Number     Number       Type             X           Y           Z
 ---------------------------------------------------------------------
      1          8           0       14.745276   -2.338759   -0.155232
      2          8           0      -14.795139    1.627061    1.187650
      3          6           0       11.119042   -1.583745    0.983617
      4          6           0      -12.272421   -1.029803    0.537423
      5          6           0       12.652812   -1.950730    1.068926
      6          6           0      -13.734880   -0.471968    0.814996
      7          6           0       13.281440   -1.908994   -0.246045
      8          6           0      -13.546934    0.959627    1.031555
      9          6           0       10.908255   -0.258804    0.101377
     10          6           0      -11.229395   -0.172031   -0.206163
     11          6           0       13.251712   -0.540847   -0.858636
     12          6           0      -12.768675    1.691773    0.006801
     13          6           0       11.922676    0.074095   -0.812163
     14          6           0      -11.576722    1.076688   -0.504613
     15          6           0       10.502236   -1.188158    2.344857
     16          6           0       10.329556   -2.815757    0.507365
     17          6           0      -11.725588   -1.529470    1.967853
     18          6           0      -12.546577   -2.361920   -0.287676
     19          6           0        9.580386    0.226071    0.152629
     20          6           0      -10.059173   -0.902607   -0.454592
     21          6           0       11.779610    1.154705   -1.755765
     22          6           0      -10.607254    1.807891   -1.333284
     23          6           0        9.400328    1.638074    0.076162
     24          6           0       -8.715202   -0.332132   -0.257816
     25          6           0        8.038196    2.293931    0.182259
     26          6           0       -7.611878   -1.068437   -0.657685
     27          6           0        8.064411    3.761269    0.547441
     28          6           0       -7.747614   -2.632915   -0.961575
     29          6           0        6.867487    1.573839    0.013644
     30          6           0       -6.322969   -0.439138   -0.553345
     31          6           0        5.651954    2.169676    0.164559
     32          6           0       -5.032964   -1.040674   -0.636376
     33          6           0        4.463119    1.397980    0.016062
     34          6           0       -3.913101   -0.146072   -0.480494
     35          6           0        3.144231    1.817724    0.163104
     36          6           0       -2.479534   -0.525726   -0.623589
     37          6           0        2.791706    3.153769    0.647651
     38          6           0       -2.309718   -1.963625   -1.072107
     39          6           0        2.184427    0.887191   -0.262837
     40          6           0       -1.537694    0.292460   -0.441125
     41          6           0        0.759295    1.059981   -0.304094
     42          6           0       -0.145264    0.012561   -0.482274
     43          1           0       13.042535   -1.051732    1.553249
     44          1           0       12.587049   -2.978037    1.648278
     45          1           0      -14.229135   -1.017092    1.493097
     46          1           0      -14.429563   -0.425005   -0.099775
     47          1           0       12.643382   -2.559827   -0.816751
     48          1           0      -12.830926    1.140036    1.958947
     49          1           0       14.053823   -0.003903   -0.160833
     50          1           0       13.809617   -0.519076   -1.764864
     51          1           0      -13.351759    1.858596   -0.772647
     52          1           0      -12.655977    2.749377    0.367694
     53          1           0       10.713342   -2.011627    2.878694
     54          1           0        9.538259   -1.195559    2.386236
     55          1           0       10.922503   -0.336465    2.812316
     56          1           0       10.459515   -3.253142   -0.625903
     57          1           0       10.730643   -3.797107    1.151934
     58          1           0        9.170953   -2.671576    0.515261
     59          1           0      -11.729315   -0.673189    2.569065
     60          1           0      -10.704353   -1.919949    1.926330
     61          1           0      -12.395042   -2.222735    2.372629
     62          1           0      -13.333805   -2.917488    0.270313
     63          1           0      -11.813243   -3.155386   -0.391510
     64          1           0      -12.945528   -2.218931   -1.362313
     65          1           0        8.856284   -0.376965    0.546078
     66          1           0      -10.133834   -2.040485   -0.642553
     67          1           0       10.697548    1.171621   -1.969048
     68          1           0       12.253796    2.197640   -1.500589
     69          1           0       12.298877    1.044648   -2.630310
     70          1           0      -11.187181    2.400173   -1.952857
     71          1           0       -9.988574    1.193691   -1.783740
     72          1           0      -10.213080    2.688457   -0.686870
     73          1           0       14.699795   -3.176449    0.255011
     74          1           0      -15.207747    0.996988    1.820385
     75          1           0       10.349164    2.236494   -0.344965
     76          1           0       -8.541550    0.828900   -0.016864
     77          1           0        8.967769    4.238563    0.569602
     78          1           0        7.789162    4.276814   -0.383354
     79          1           0        7.289537    4.031512    1.402676
     80          1           0       -8.007109   -3.263065   -0.129786
     81          1           0       -8.331611   -2.856986   -1.956502
     82          1           0       -6.643208   -2.986891   -1.058906
     83          1           0        6.906197    0.504685   -0.277369
     84          1           0       -6.352351    0.526948   -0.038253
     85          1           0        5.471780    3.219654    0.308350
     86          1           0       -4.864976   -2.095015   -0.981763
     87          1           0        4.420573    0.382890   -0.483029
     88          1           0       -4.072497    0.788687   -0.237009
     89          1           0        2.721211    3.218175    1.772134
     90          1           0        1.722480    3.553900    0.439488
     91          1           0        3.402227    3.902270    0.298010
     92          1           0       -2.952711   -2.748994   -0.413875
     93          1           0       -2.702250   -2.200852   -2.243252
     94          1           0       -1.295780   -2.210977   -0.987968
     95          1           0        2.221347    0.032802   -0.884155
     96          1           0       -1.856885    1.305655   -0.163991
     97          1           0        0.298781    1.932253    0.098270
     98          1           0        0.274836   -0.957838   -0.727935
 ---------------------------------------------------------------------

 SCF Done:  E(RCAM-B3LYP) =  -1706.93319840     A.U. after   15 cycles

 Excitation energies and oscillator strengths:

 Excited State   1:      Singlet-A      2.1152 eV  586.17 nm  f=3.8118  <S**2>=0.000
     155 ->158        -0.19136
     156 ->157         0.67658
 This state for optimization and/or second-order correction.
 Total Energy, E(TD-HF/TD-DFT) =  -1706.85546791
 Copying the excited state density for this state as the 1-particle RhoCI density.

 The electronic state is 1-A.
 Alpha  occ. eigenvalues --  -19.21661 -19.20476 -10.30359 -10.29768 -10.28411
 Alpha  occ. eigenvalues --  -10.28031 -10.28015 -10.27981 -10.27899 -10.27708
 Alpha  occ. eigenvalues --  -10.27603 -10.27361 -10.27348 -10.27249 -10.27126
 Alpha  occ. eigenvalues --  -10.26904 -10.26730 -10.26529 -10.26514 -10.26390
 Alpha  occ. eigenvalues --  -10.26275 -10.26230 -10.26112 -10.26076 -10.25994
 Alpha  occ. eigenvalues --  -10.25963 -10.25944 -10.25827 -10.25818 -10.25806
 Alpha  occ. eigenvalues --  -10.25752 -10.25477 -10.25443 -10.25230 -10.25020
 Alpha  occ. eigenvalues --  -10.24916 -10.24574 -10.24279 -10.23890 -10.23488
 Alpha  occ. eigenvalues --  -10.23210 -10.21832  -1.10120  -1.07097  -0.94283
 Alpha  occ. eigenvalues --   -0.93891  -0.92687  -0.91864  -0.90098  -0.89559
 Alpha  occ. eigenvalues --   -0.87964  -0.87473  -0.87031  -0.86325  -0.85409
 Alpha  occ. eigenvalues --   -0.83390  -0.82429  -0.81048  -0.79325  -0.78185
 Alpha  occ. eigenvalues --   -0.77697  -0.77088  -0.76838  -0.75900  -0.75819
 Alpha  occ. eigenvalues --   -0.75457  -0.75194  -0.74697  -0.73322  -0.70851
 Alpha  occ. eigenvalues --   -0.69303  -0.67295  -0.66047  -0.65378  -0.64365
 Alpha  occ. eigenvalues --   -0.63314  -0.62790  -0.62636  -0.61117  -0.60405
 Alpha  occ. eigenvalues --   -0.59415  -0.58909  -0.58462  -0.57719  -0.56575
 Alpha  occ. eigenvalues --   -0.56205  -0.55269  -0.54934  -0.54325  -0.53757
 Alpha  occ. eigenvalues --   -0.53357  -0.52746  -0.52331  -0.51585  -0.50756
 Alpha  occ. eigenvalues --   -0.50684  -0.50255  -0.49647  -0.49275  -0.49190
 Alpha  occ. eigenvalues --   -0.49015  -0.48778  -0.48287  -0.48138  -0.48048
 Alpha  occ. eigenvalues --   -0.47613  -0.47568  -0.47452  -0.47268  -0.47024
 Alpha  occ. eigenvalues --   -0.46139  -0.46127  -0.45415  -0.45405  -0.45044
 Alpha  occ. eigenvalues --   -0.44872  -0.44691  -0.44346  -0.43856  -0.43740
 Alpha  occ. eigenvalues --   -0.43689  -0.43082  -0.42748  -0.42589  -0.42412
 Alpha  occ. eigenvalues --   -0.41801  -0.41640  -0.41528  -0.41093  -0.40865
 Alpha  occ. eigenvalues --   -0.40441  -0.40312  -0.40062  -0.39793  -0.39507
 Alpha  occ. eigenvalues --   -0.39310  -0.39077  -0.38750  -0.38322  -0.38189
 Alpha  occ. eigenvalues --   -0.37905  -0.37335  -0.37275  -0.36936  -0.35838
 Alpha  occ. eigenvalues --   -0.35515  -0.34537  -0.33616  -0.32646  -0.32573
 Alpha  occ. eigenvalues --   -0.31787  -0.29737  -0.27910  -0.25521  -0.21733
 Alpha  occ. eigenvalues --   -0.19122
 Alpha virt. eigenvalues --   -0.05832  -0.02392   0.01506   0.05117   0.07689
 Alpha virt. eigenvalues --    0.09735   0.10847   0.11103   0.12258   0.12582
 Alpha virt. eigenvalues --    0.12740   0.13318   0.13528   0.13669   0.14072

 Mulliken charges:
               1
     1  O   -0.570191
     2  O   -0.554494
     3  C   -0.055069
     4  C   -0.059540
     5  C   -0.179714
     6  C   -0.184757
     7  C    0.153454
     8  C    0.151826
     9  C    0.073530
    10  C    0.114183
    11  C   -0.235199
    12  C   -0.224247
    13  C    0.086056
    14  C    0.063914
    15  C   -0.284864
    16  C   -0.291457
    17  C   -0.305043
    18  C   -0.309220
    19  C   -0.104106
    20  C   -0.177939
    21  C   -0.392066
    22  C   -0.348942
    23  C   -0.135088
    24  C   -0.121628
    25  C    0.058623
    26  C    0.110637
    27  C   -0.365925
    28  C   -0.364796
    29  C   -0.089405
    30  C   -0.138361
    31  C   -0.095840
    32  C   -0.086659
    33  C   -0.124936
    34  C   -0.108215
    35  C    0.138327
    36  C    0.146902
    37  C   -0.389554
    38  C   -0.358288
    39  C   -0.140329
    40  C   -0.124932
    41  C   -0.100158
    42  C   -0.097442
    43  H    0.104557
    44  H    0.077522
    45  H    0.098346
    46  H    0.096701
    47  H    0.088604
    48  H    0.054448
    49  H    0.105420
    50  H    0.122767
    51  H    0.126429
    52  H    0.113961
    53  H    0.093906
    54  H    0.109555
    55  H    0.113320
    56  H    0.089550
    57  H    0.077096
    58  H    0.095544
    59  H    0.106256
    60  H    0.109037
    61  H    0.099005
    62  H    0.085034
    63  H    0.097511
    64  H    0.092820
    65  H    0.089603
    66  H    0.102708
    67  H    0.125956
    68  H    0.097780
    69  H    0.110797
    70  H    0.105034
    71  H    0.131442
    72  H    0.093003
    73  H    0.300029
    74  H    0.306819
    75  H    0.104706
    76  H    0.095125
    77  H    0.118486
    78  H    0.120639
    79  H    0.115045
    80  H    0.134299
    81  H    0.114693
    82  H    0.089179
    83  H    0.092199
    84  H    0.086263
    85  H    0.092518
    86  H    0.096065
    87  H    0.082769
    88  H    0.064463
    89  H    0.124682
    90  H    0.107829
    91  H    0.129201
    92  H    0.097741
    93  H    0.095778
    94  H    0.106267
    95  H    0.089078
    96  H    0.081519
    97  H    0.071893
    98  H    0.089955
 Sum of Mulliken charges =  -0.00000

 Dipole moment (field-independent basis, Debye):
    X=             -0.9454    Y=             -0.9515    Z=              0.9597  Tot=              1.6493
 Quadrupole moment (field-independent basis, Debye-Ang):
   XX=           -300.6603   YY=           -240.1122   ZZ=           -262.7616
   XY=             20.5303   XZ=             -6.8173   YZ=             -1.1503

 Normal termination of Gaussian 16 at Thu Jul 18 10:56:40 2019.
