 Gaussian 16, Revision A.03,
 Gaussian 16:  ES64L-G16RevA.03 25-Dec-2016

 -------------------------------------
 # td=(NStates=1) CAM-B3LYP/6-31G(d,p)
 -------------------------------------

 --
 TD
 --
 Symbolic Z-matrix:
 Charge =  0 Multiplicity = 1

                         Standard orientation:
 ---------------------------------------------------------------------
 Center     Atomic      Atomic             Coordinates (Angstroms)
 Number     Number       Type             X           Y           Z
 ---------------------------------------------------------------------
      1          8           0       14.616230   -2.366066   -0.381555
      2          8           0      -14.681631    1.803320    1.188023
      3          6           0       11.159066   -1.525174    1.031453
      4          6           0      -12.315771   -1.089772    0.581858
      5          6           0       12.573777   -1.898344    1.011058
      6          6           0      -13.633191   -0.322871    0.650446
      7          6           0       13.176231   -1.989874   -0.403225
      8          6           0      -13.448518    1.105835    1.002559
      9          6           0       11.001187   -0.237563    0.148573
     10          6           0      -11.287732   -0.229822   -0.183539
     11          6           0       13.244192   -0.591482   -0.841929
     12          6           0      -12.734750    1.689163   -0.014919
     13          6           0       11.883289    0.186518   -0.743181
     14          6           0      -11.453923    1.063756   -0.537377
     15          6           0       10.622246   -1.324920    2.448885
     16          6           0       10.293895   -2.687334    0.405374
     17          6           0      -11.731961   -1.451391    2.094691
     18          6           0      -12.621965   -2.394798   -0.096445
     19          6           0        9.675402    0.348362    0.347256
     20          6           0       -9.993603   -0.978584   -0.585741
     21          6           0       11.696647    1.348232   -1.694515
     22          6           0      -10.600876    1.809235   -1.424651
     23          6           0        9.340641    1.742188    0.209144
     24          6           0       -8.781756   -0.392819   -0.406656
     25          6           0        8.066237    2.277822    0.220813
     26          6           0       -7.553107   -1.064694   -0.621042
     27          6           0        8.000224    3.716972    0.523776
     28          6           0       -7.682071   -2.656477   -0.852305
     29          6           0        6.925470    1.565603   -0.040215
     30          6           0       -6.357137   -0.416344   -0.575820
     31          6           0        5.534731    2.177943   -0.001869
     32          6           0       -5.040247   -1.015946   -0.657274
     33          6           0        4.411741    1.306314   -0.062188
     34          6           0       -3.884600   -0.298274   -0.539935
     35          6           0        3.136769    1.734762    0.101299
     36          6           0       -2.565823   -0.787166   -0.660212
     37          6           0        2.879172    3.130294    0.514708
     38          6           0       -2.274527   -2.098132   -1.056538
     39          6           0        2.096300    0.873632   -0.266914
     40          6           0       -1.628946    0.233257   -0.388026
     41          6           0        0.741433    1.064308   -0.092361
     42          6           0       -0.151093   -0.006729   -0.338404
     43          1           0       13.201363   -1.162440    1.533442
     44          1           0       12.846819   -2.724160    1.643644
     45          1           0      -14.512900   -0.857527    1.440311
     46          1           0      -13.994143   -0.199866   -0.467210
     47          1           0       12.681336   -2.799720   -0.976872
     48          1           0      -12.819425    1.118308    1.988626
     49          1           0       13.935868   -0.119584   -0.209323
     50          1           0       13.638468   -0.640716   -1.944962
     51          1           0      -13.504882    1.670266   -0.933816
     52          1           0      -12.491882    2.726247    0.291261
     53          1           0       10.891650   -2.098833    3.059415
     54          1           0        9.451246   -1.147596    2.275055
     55          1           0       11.135861   -0.361355    2.980189
     56          1           0       10.419175   -2.957079   -0.698948
     57          1           0       10.417643   -3.556775    1.058975
     58          1           0        9.283401   -2.392759    0.460806
     59          1           0      -11.593131   -0.500506    2.666983
     60          1           0      -10.780167   -1.815271    1.975546
     61          1           0      -12.367227   -2.393744    2.712614
     62          1           0      -13.335780   -2.910911    0.518414
     63          1           0      -11.893318   -3.059048    0.090965
     64          1           0      -12.775901   -2.437969   -1.398767
     65          1           0        9.001558   -0.328046    0.505728
     66          1           0      -10.104589   -2.114101   -0.809309
     67          1           0       10.552032    1.550777   -1.598576
     68          1           0       12.118890    2.167971   -1.252949
     69          1           0       12.125951    1.183286   -2.776278
     70          1           0      -11.088602    2.394986   -1.981179
     71          1           0       -9.869541    1.119319   -2.005954
     72          1           0       -9.920350    2.556379   -0.801408
     73          1           0       14.668841   -3.201878    0.322394
     74          1           0      -15.119633    1.694421    2.134966
     75          1           0       10.149538    2.372491    0.074870
     76          1           0       -8.703626    0.667642   -0.131584
     77          1           0        9.013757    4.244455    0.610042
     78          1           0        7.341339    4.445577   -0.051180
     79          1           0        7.491725    3.712889    1.551630
     80          1           0       -8.712198   -2.880069   -0.143213
     81          1           0       -7.968620   -2.473588   -1.962560
     82          1           0       -6.742311   -3.249254   -0.583571
     83          1           0        6.973189    0.510711   -0.193287
     84          1           0       -6.430391    0.498942   -0.230644
     85          1           0        5.352991    3.150218    0.338147
     86          1           0       -4.973858   -2.049389   -0.988326
     87          1           0        4.514274    0.132665   -0.312356
     88          1           0       -4.029259    0.613716   -0.271936
     89          1           0        3.467526    3.199146    1.299007
     90          1           0        1.762655    3.143582    0.647389
     91          1           0        3.356188    3.692468   -0.366855
     92          1           0       -2.623229   -2.876232   -0.365929
     93          1           0       -2.933381   -2.127510   -2.083680
     94          1           0       -1.243376   -2.285874   -1.303269
     95          1           0        2.563748   -0.229820   -0.455771
     96          1           0       -1.914165    1.214129   -0.191812
     97          1           0        0.206762    2.159175    0.109061
     98          1           0        0.102956   -0.980291   -0.489376
 ---------------------------------------------------------------------

 SCF Done:  E(RCAM-B3LYP) =  -1706.88544013     A.U. after   15 cycles

 Excitation energies and oscillator strengths:

 Excited State   1:      Singlet-A      2.1912 eV  565.84 nm  f=3.5727  <S**2>=0.000
     155 ->158         0.15887
     156 ->157         0.68818
 This state for optimization and/or second-order correction.
 Total Energy, E(TD-HF/TD-DFT) =  -1706.80491677
 Copying the excited state density for this state as the 1-particle RhoCI density.

 The electronic state is 1-A.
 Alpha  occ. eigenvalues --  -19.21354 -19.21336 -10.29984 -10.29534 -10.28390
 Alpha  occ. eigenvalues --  -10.28259 -10.28214 -10.27506 -10.27140 -10.27071
 Alpha  occ. eigenvalues --  -10.26944 -10.26943 -10.26882 -10.26859 -10.26807
 Alpha  occ. eigenvalues --  -10.26706 -10.26666 -10.26519 -10.26400 -10.26395
 Alpha  occ. eigenvalues --  -10.26382 -10.26339 -10.26300 -10.26227 -10.26185
 Alpha  occ. eigenvalues --  -10.26104 -10.26009 -10.25959 -10.25879 -10.25649
 Alpha  occ. eigenvalues --  -10.25438 -10.25320 -10.25247 -10.25174 -10.25112
 Alpha  occ. eigenvalues --  -10.25111 -10.25028 -10.24983 -10.24827 -10.24711
 Alpha  occ. eigenvalues --  -10.24380 -10.24362  -1.07666  -1.05477  -0.94119
 Alpha  occ. eigenvalues --   -0.94060  -0.92974  -0.92558  -0.91005  -0.90576
 Alpha  occ. eigenvalues --   -0.87424  -0.87229  -0.86963  -0.85829  -0.84975
 Alpha  occ. eigenvalues --   -0.83787  -0.81931  -0.80043  -0.79649  -0.79056
 Alpha  occ. eigenvalues --   -0.76858  -0.76386  -0.76120  -0.76051  -0.75477
 Alpha  occ. eigenvalues --   -0.75419  -0.75368  -0.74896  -0.73682  -0.71006
 Alpha  occ. eigenvalues --   -0.69474  -0.67601  -0.65164  -0.64809  -0.64344
 Alpha  occ. eigenvalues --   -0.63915  -0.62397  -0.62184  -0.61568  -0.59945
 Alpha  occ. eigenvalues --   -0.59168  -0.58629  -0.58158  -0.57545  -0.56154
 Alpha  occ. eigenvalues --   -0.55745  -0.55465  -0.54735  -0.54625  -0.53432
 Alpha  occ. eigenvalues --   -0.52896  -0.52642  -0.51555  -0.51453  -0.51006
 Alpha  occ. eigenvalues --   -0.50304  -0.50242  -0.49678  -0.49663  -0.49370
 Alpha  occ. eigenvalues --   -0.49076  -0.48964  -0.48700  -0.48329  -0.48101
 Alpha  occ. eigenvalues --   -0.47604  -0.47518  -0.47266  -0.46993  -0.46750
 Alpha  occ. eigenvalues --   -0.46352  -0.45978  -0.45705  -0.45200  -0.45086
 Alpha  occ. eigenvalues --   -0.44744  -0.44411  -0.44176  -0.43784  -0.43490
 Alpha  occ. eigenvalues --   -0.43221  -0.42949  -0.42576  -0.42015  -0.41864
 Alpha  occ. eigenvalues --   -0.41572  -0.41338  -0.41256  -0.41108  -0.40995
 Alpha  occ. eigenvalues --   -0.40419  -0.40391  -0.39882  -0.39619  -0.39422
 Alpha  occ. eigenvalues --   -0.39272  -0.38889  -0.38243  -0.38049  -0.38024
 Alpha  occ. eigenvalues --   -0.37261  -0.36914  -0.36434  -0.36157  -0.35768
 Alpha  occ. eigenvalues --   -0.35199  -0.34807  -0.33659  -0.32077  -0.31890
 Alpha  occ. eigenvalues --   -0.31734  -0.30260  -0.28401  -0.25993  -0.23207
 Alpha  occ. eigenvalues --   -0.19344
 Alpha virt. eigenvalues --   -0.05735  -0.01138   0.01870   0.05668   0.08213
 Alpha virt. eigenvalues --    0.09932   0.10548   0.10650   0.10992   0.11216
 Alpha virt. eigenvalues --    0.11631   0.12579   0.12649   0.12746   0.14003

 Mulliken charges:
               1
     1  O   -0.578626
     2  O   -0.580617
     3  C   -0.018475
     4  C    0.001195
     5  C   -0.212257
     6  C   -0.150494
     7  C    0.167060
     8  C    0.189504
     9  C    0.085438
    10  C    0.032892
    11  C   -0.199063
    12  C   -0.217615
    13  C    0.024335
    14  C    0.093070
    15  C   -0.276827
    16  C   -0.302830
    17  C   -0.307508
    18  C   -0.278763
    19  C   -0.086890
    20  C   -0.179264
    21  C   -0.370407
    22  C   -0.355781
    23  C   -0.153293
    24  C   -0.071176
    25  C    0.135256
    26  C    0.069484
    27  C   -0.389333
    28  C   -0.342108
    29  C   -0.120967
    30  C   -0.113198
    31  C   -0.131295
    32  C   -0.109178
    33  C   -0.096797
    34  C   -0.068402
    35  C    0.097270
    36  C    0.140343
    37  C   -0.345516
    38  C   -0.381791
    39  C   -0.116526
    40  C   -0.133586
    41  C   -0.105153
    42  C   -0.077653
    43  H    0.097487
    44  H    0.063960
    45  H    0.046475
    46  H    0.082861
    47  H    0.093122
    48  H    0.056045
    49  H    0.134930
    50  H    0.090728
    51  H    0.099224
    52  H    0.099562
    53  H    0.111986
    54  H    0.089384
    55  H    0.087769
    56  H    0.104821
    57  H    0.101814
    58  H    0.101764
    59  H    0.106449
    60  H    0.124137
    61  H    0.065756
    62  H    0.104190
    63  H    0.103213
    64  H    0.073969
    65  H    0.068342
    66  H    0.099370
    67  H    0.118074
    68  H    0.132993
    69  H    0.102101
    70  H    0.118725
    71  H    0.124566
    72  H    0.090498
    73  H    0.293193
    74  H    0.314402
    75  H    0.090555
    76  H    0.096252
    77  H    0.103879
    78  H    0.116556
    79  H    0.120986
    80  H    0.093430
    81  H    0.131947
    82  H    0.113425
    83  H    0.080158
    84  H    0.063745
    85  H    0.089816
    86  H    0.069810
    87  H    0.071404
    88  H    0.060036
    89  H    0.134817
    90  H    0.100741
    91  H    0.122382
    92  H    0.130753
    93  H    0.108093
    94  H    0.118594
    95  H    0.069813
    96  H    0.078494
    97  H    0.089935
    98  H    0.078012
 Sum of Mulliken charges =  -0.00000

 Dipole moment (field-independent basis, Debye):
    X=             -0.4205    Y=             -1.1386    Z=              2.4989  Tot=              2.7781
 Quadrupole moment (field-independent basis, Debye-Ang):
   XX=           -309.5675   YY=           -244.4119   ZZ=           -260.5353
   XY=              3.3059   XZ=              0.5922   YZ=             -0.2793

 Normal termination of Gaussian 16 at Mon Jul 15 10:34:20 2019.
