 Gaussian 16, Revision A.03,
 Gaussian 16:  ES64L-G16RevA.03 25-Dec-2016

 -------------------------------------
 # td=(NStates=1) CAM-B3LYP/6-31G(d,p)
 -------------------------------------

 --
 TD
 --
 Symbolic Z-matrix:
 Charge =  0 Multiplicity = 1

                         Standard orientation:
 ---------------------------------------------------------------------
 Center     Atomic      Atomic             Coordinates (Angstroms)
 Number     Number       Type             X           Y           Z
 ---------------------------------------------------------------------
      1          8           0       14.757880   -2.359595   -0.381713
      2          8           0      -14.879570    1.725517    1.084782
      3          6           0       11.278552   -1.459037    0.932493
      4          6           0      -12.348496   -1.041503    0.468547
      5          6           0       12.853348   -1.767317    1.081713
      6          6           0      -13.725455   -0.412640    0.497080
      7          6           0       13.363289   -1.924913   -0.303208
      8          6           0      -13.601749    1.118173    0.892412
      9          6           0       11.018316   -0.261705   -0.036024
     10          6           0      -11.342198   -0.239688   -0.360750
     11          6           0       13.221705   -0.611664   -1.049347
     12          6           0      -12.910028    1.713533   -0.333398
     13          6           0       11.886546    0.085964   -1.126880
     14          6           0      -11.600960    1.039952   -0.647160
     15          6           0       10.685687   -1.212330    2.353379
     16          6           0       10.427446   -2.595727    0.430531
     17          6           0      -11.907848   -1.421190    1.963747
     18          6           0      -12.601677   -2.567546   -0.279706
     19          6           0        9.684143    0.307741    0.229338
     20          6           0      -10.032073   -0.906925   -0.492970
     21          6           0       11.596898    1.171930   -2.035112
     22          6           0      -10.769375    1.857769   -1.581899
     23          6           0        9.436266    1.622016    0.099594
     24          6           0       -8.819916   -0.366974   -0.428893
     25          6           0        8.204035    2.312824    0.146088
     26          6           0       -7.579569   -1.077232   -0.636101
     27          6           0        8.150701    3.761362    0.435286
     28          6           0       -7.619318   -2.561593   -0.799207
     29          6           0        7.055352    1.612022    0.027747
     30          6           0       -6.458066   -0.390117   -0.435135
     31          6           0        5.679924    1.950340    0.328417
     32          6           0       -5.158994   -1.093413   -0.449038
     33          6           0        4.509669    1.259835    0.091829
     34          6           0       -4.023018   -0.274479   -0.270013
     35          6           0        3.192410    1.726592    0.286531
     36          6           0       -2.575403   -0.704699   -0.312053
     37          6           0        2.858388    3.115816    0.856500
     38          6           0       -2.349477   -2.070688   -0.706444
     39          6           0        2.161715    0.799576    0.033935
     40          6           0       -1.630136    0.285374   -0.086071
     41          6           0        0.779900    0.977260    0.155150
     42          6           0       -0.203957    0.088705   -0.075556
     43          1           0       13.157087   -0.959921    1.588539
     44          1           0       12.912720   -2.753264    1.574814
     45          1           0      -14.194536   -1.148705    1.423728
     46          1           0      -14.287766   -0.348047   -0.365219
     47          1           0       12.665064   -2.621403   -1.003941
     48          1           0      -12.883874    1.115638    1.963424
     49          1           0       13.987025    0.139522   -0.679178
     50          1           0       13.695684   -0.821752   -2.057200
     51          1           0      -13.751847    1.853584   -1.142611
     52          1           0      -12.581371    2.874179   -0.163003
     53          1           0       11.037987   -1.888612    2.976703
     54          1           0        9.665942   -1.090618    2.292299
     55          1           0       11.088258   -0.244356    2.655090
     56          1           0       10.772683   -2.703716   -0.500076
     57          1           0       10.367555   -3.535572    0.950754
     58          1           0        9.341956   -2.391540   -0.003453
     59          1           0      -11.671252   -0.422161    2.691194
     60          1           0      -10.856038   -1.863512    1.884510
     61          1           0      -12.626766   -1.989488    2.678749
     62          1           0      -13.318555   -2.962848    0.490625
     63          1           0      -11.877934   -3.293333   -0.359234
     64          1           0      -12.965729   -2.166182   -1.366422
     65          1           0        8.842320   -0.324012    0.476244
     66          1           0      -10.116839   -1.910670   -0.781149
     67          1           0       10.664196    1.174066   -2.113005
     68          1           0       12.024074    2.066535   -2.152714
     69          1           0       11.991112    0.735699   -3.015000
     70          1           0      -11.452979    2.448737   -2.312576
     71          1           0       -9.960203    1.113195   -2.148013
     72          1           0      -10.084132    2.803502   -1.130251
     73          1           0       14.797193   -3.166850    0.102947
     74          1           0      -15.398234    1.308261    1.755804
     75          1           0       10.200171    2.395243   -0.285114
     76          1           0       -8.805480    0.651087   -0.298715
     77          1           0        9.051824    4.268903    0.459718
     78          1           0        7.610058    4.283877   -0.277316
     79          1           0        7.477431    3.970457    1.365109
     80          1           0       -8.038001   -2.923298    0.044909
     81          1           0       -8.131281   -2.934459   -1.790339
     82          1           0       -6.605909   -3.104492   -0.945170
     83          1           0        7.124547    0.426742   -0.253174
     84          1           0       -6.668501    0.708749   -0.288540
     85          1           0        5.485049    3.006945    0.414307
     86          1           0       -4.868940   -2.173436   -0.565294
     87          1           0        4.649362    0.173123   -0.290808
     88          1           0       -4.156838    0.742560   -0.227864
     89          1           0        3.972365    3.429685    1.498039
     90          1           0        1.742110    3.274360    1.513061
     91          1           0        2.899230    3.961692   -0.449389
     92          1           0       -2.926597   -2.828633    0.073902
     93          1           0       -2.872997   -2.247856   -1.655052
     94          1           0       -1.243667   -2.323905   -0.825176
     95          1           0        2.667264   -0.150025   -0.306845
     96          1           0       -1.769814    1.454282    0.144584
     97          1           0        0.398998    1.883612    0.269115
     98          1           0        0.080878   -0.971351   -0.352991
 ---------------------------------------------------------------------

 SCF Done:  E(RCAM-B3LYP) =  -1706.81953862     A.U. after   14 cycles

 Excitation energies and oscillator strengths:

 Excited State   1:      Singlet-A      2.4631 eV  503.36 nm  f=3.4500  <S**2>=0.000
     155 ->158         0.16488
     156 ->157         0.68288
 This state for optimization and/or second-order correction.
 Total Energy, E(TD-HF/TD-DFT) =  -1706.72902097
 Copying the excited state density for this state as the 1-particle RhoCI density.

 The electronic state is 1-A.
 Alpha  occ. eigenvalues --  -19.21271 -19.21037 -10.33223 -10.32466 -10.31275
 Alpha  occ. eigenvalues --  -10.28944 -10.28636 -10.28222 -10.28161 -10.28131
 Alpha  occ. eigenvalues --  -10.27855 -10.27820 -10.27818 -10.27702 -10.27527
 Alpha  occ. eigenvalues --  -10.27315 -10.27305 -10.27001 -10.26932 -10.26880
 Alpha  occ. eigenvalues --  -10.26811 -10.26560 -10.26533 -10.26493 -10.26368
 Alpha  occ. eigenvalues --  -10.26283 -10.26231 -10.26169 -10.26054 -10.26052
 Alpha  occ. eigenvalues --  -10.25985 -10.25794 -10.25711 -10.25503 -10.25400
 Alpha  occ. eigenvalues --  -10.25127 -10.25024 -10.24938 -10.24727 -10.23535
 Alpha  occ. eigenvalues --  -10.23001 -10.22082  -1.09307  -1.08753  -0.93668
 Alpha  occ. eigenvalues --   -0.93505  -0.92259  -0.91815  -0.91254  -0.90379
 Alpha  occ. eigenvalues --   -0.87827  -0.87524  -0.85993  -0.85520  -0.85203
 Alpha  occ. eigenvalues --   -0.83058  -0.82128  -0.81323  -0.79572  -0.78049
 Alpha  occ. eigenvalues --   -0.77971  -0.76990  -0.76945  -0.75953  -0.75250
 Alpha  occ. eigenvalues --   -0.74199  -0.74050  -0.73676  -0.73194  -0.70762
 Alpha  occ. eigenvalues --   -0.69248  -0.67421  -0.65684  -0.64902  -0.64150
 Alpha  occ. eigenvalues --   -0.63772  -0.62669  -0.61859  -0.60342  -0.60036
 Alpha  occ. eigenvalues --   -0.58731  -0.58199  -0.58116  -0.57443  -0.56332
 Alpha  occ. eigenvalues --   -0.55968  -0.55481  -0.54744  -0.54550  -0.54256
 Alpha  occ. eigenvalues --   -0.53080  -0.52498  -0.52280  -0.51677  -0.51380
 Alpha  occ. eigenvalues --   -0.50982  -0.50788  -0.50309  -0.49930  -0.49342
 Alpha  occ. eigenvalues --   -0.49156  -0.48705  -0.48320  -0.47831  -0.47747
 Alpha  occ. eigenvalues --   -0.47538  -0.47363  -0.46986  -0.46498  -0.46444
 Alpha  occ. eigenvalues --   -0.46217  -0.45739  -0.45578  -0.45382  -0.44700
 Alpha  occ. eigenvalues --   -0.44636  -0.44347  -0.43774  -0.43759  -0.43104
 Alpha  occ. eigenvalues --   -0.42923  -0.42604  -0.42433  -0.42164  -0.41843
 Alpha  occ. eigenvalues --   -0.41790  -0.41749  -0.40986  -0.40723  -0.40481
 Alpha  occ. eigenvalues --   -0.40109  -0.39874  -0.39696  -0.39464  -0.39154
 Alpha  occ. eigenvalues --   -0.39003  -0.38578  -0.38244  -0.37761  -0.37379
 Alpha  occ. eigenvalues --   -0.37200  -0.36963  -0.36308  -0.36198  -0.35928
 Alpha  occ. eigenvalues --   -0.35035  -0.34492  -0.33936  -0.32319  -0.32045
 Alpha  occ. eigenvalues --   -0.30900  -0.29596  -0.28242  -0.26070  -0.23884
 Alpha  occ. eigenvalues --   -0.20520
 Alpha virt. eigenvalues --   -0.05383  -0.00989   0.01762   0.04841   0.06118
 Alpha virt. eigenvalues --    0.07383   0.08913   0.10033   0.10649   0.11506
 Alpha virt. eigenvalues --    0.11899   0.12909   0.13056   0.13086   0.13407

 Mulliken charges:
               1
     1  O   -0.565258
     2  O   -0.563065
     3  C   -0.058465
     4  C   -0.025989
     5  C   -0.164268
     6  C   -0.159787
     7  C    0.163988
     8  C    0.183286
     9  C    0.016974
    10  C    0.082251
    11  C   -0.234868
    12  C   -0.230739
    13  C    0.073337
    14  C    0.084874
    15  C   -0.285474
    16  C   -0.298523
    17  C   -0.298605
    18  C   -0.302460
    19  C   -0.119915
    20  C   -0.132528
    21  C   -0.346563
    22  C   -0.362002
    23  C   -0.103015
    24  C   -0.093108
    25  C    0.111336
    26  C    0.130414
    27  C   -0.382301
    28  C   -0.372188
    29  C   -0.130654
    30  C   -0.127143
    31  C   -0.118539
    32  C   -0.108986
    33  C   -0.103337
    34  C   -0.100406
    35  C    0.139169
    36  C    0.118440
    37  C   -0.296141
    38  C   -0.385847
    39  C   -0.114618
    40  C   -0.126898
    41  C   -0.079711
    42  C   -0.066378
    43  H    0.119719
    44  H    0.080742
    45  H    0.046734
    46  H    0.107688
    47  H    0.072551
    48  H    0.046879
    49  H    0.108967
    50  H    0.098347
    51  H    0.118460
    52  H    0.091655
    53  H    0.103528
    54  H    0.109707
    55  H    0.092855
    56  H    0.108935
    57  H    0.101319
    58  H    0.083927
    59  H    0.069529
    60  H    0.107915
    61  H    0.105076
    62  H    0.096460
    63  H    0.112060
    64  H    0.091261
    65  H    0.103633
    66  H    0.083127
    67  H    0.134426
    68  H    0.132200
    69  H    0.087358
    70  H    0.108039
    71  H    0.103145
    72  H    0.083581
    73  H    0.303097
    74  H    0.308562
    75  H    0.076071
    76  H    0.083168
    77  H    0.112857
    78  H    0.134407
    79  H    0.114493
    80  H    0.139846
    81  H    0.105419
    82  H    0.097831
    83  H    0.054608
    84  H    0.097118
    85  H    0.077151
    86  H    0.096107
    87  H    0.081467
    88  H    0.079859
    89  H    0.092533
    90  H    0.113416
    91  H    0.029435
    92  H    0.104324
    93  H    0.138288
    94  H    0.113349
    95  H    0.078393
    96  H    0.080331
    97  H    0.068908
    98  H    0.062851
 Sum of Mulliken charges =  -0.00000

 Dipole moment (field-independent basis, Debye):
    X=             -1.1279    Y=             -1.8905    Z=              0.5673  Tot=              2.2733
 Quadrupole moment (field-independent basis, Debye-Ang):
   XX=           -291.4654   YY=           -245.1418   ZZ=           -262.6643
   XY=             14.4852   XZ=             -1.9601   YZ=             -3.2465

 Normal termination of Gaussian 16 at Thu Jul 11 13:55:51 2019.
