 Gaussian 16, Revision A.03,
 Gaussian 16:  ES64L-G16RevA.03 25-Dec-2016

 -------------------------------------
 # td=(NStates=1) CAM-B3LYP/6-31G(d,p)
 -------------------------------------

 --
 TD
 --
 Symbolic Z-matrix:
 Charge =  0 Multiplicity = 1

                         Standard orientation:
 ---------------------------------------------------------------------
 Center     Atomic      Atomic             Coordinates (Angstroms)
 Number     Number       Type             X           Y           Z
 ---------------------------------------------------------------------
      1          8           0       14.604432   -2.385931   -0.445018
      2          8           0      -14.734569    1.858836    0.950107
      3          6           0       11.134013   -1.439937    1.065703
      4          6           0      -12.189313   -1.040020    0.635903
      5          6           0       12.652315   -1.832709    0.976276
      6          6           0      -13.669448   -0.328525    0.673588
      7          6           0       13.211582   -2.056568   -0.416433
      8          6           0      -13.522916    1.148965    0.918571
      9          6           0       10.915279   -0.255401    0.149955
     10          6           0      -11.301016   -0.330293   -0.226990
     11          6           0       13.046401   -0.778269   -1.145278
     12          6           0      -12.801702    1.643982   -0.387357
     13          6           0       11.794866   -0.006877   -0.929814
     14          6           0      -11.565121    0.999039   -0.701897
     15          6           0       10.864012   -1.016043    2.488253
     16          6           0       10.142520   -2.611737    0.703594
     17          6           0      -11.764740   -1.280063    2.030907
     18          6           0      -12.488172   -2.447008   -0.094217
     19          6           0        9.589021    0.420879    0.250172
     20          6           0       -9.932549   -1.001825   -0.381163
     21          6           0       11.473483    1.019743   -2.024198
     22          6           0      -10.580337    1.824114   -1.560700
     23          6           0        9.303840    1.907684    0.011183
     24          6           0       -8.735427   -0.389974   -0.250377
     25          6           0        8.083167    2.304784    0.252982
     26          6           0       -7.502697   -1.159965   -0.523104
     27          6           0        8.018295    3.855082    0.399105
     28          6           0       -7.555670   -2.759508   -0.657239
     29          6           0        6.881093    1.671468    0.178823
     30          6           0       -6.271278   -0.593316   -0.375952
     31          6           0        5.626833    2.184483    0.335905
     32          6           0       -4.950391   -1.060860   -0.553899
     33          6           0        4.497419    1.318298    0.062900
     34          6           0       -3.889864   -0.213114   -0.548515
     35          6           0        3.179119    1.760043    0.237125
     36          6           0       -2.521478   -0.782248   -0.553116
     37          6           0        2.700979    3.199112    0.623636
     38          6           0       -2.230858   -2.105252   -0.950899
     39          6           0        2.184038    0.826860   -0.151486
     40          6           0       -1.570246    0.168830   -0.299480
     41          6           0        0.794605    0.956579   -0.027453
     42          6           0       -0.181162   -0.024418   -0.329898
     43          1           0       13.191262   -1.207087    1.486526
     44          1           0       12.650989   -2.670744    1.834531
     45          1           0      -14.217106   -0.874172    1.422311
     46          1           0      -13.933659   -0.647693   -0.359696
     47          1           0       12.654171   -2.933169   -0.867403
     48          1           0      -12.885487    1.191925    1.721236
     49          1           0       14.062138   -0.279297   -0.914771
     50          1           0       13.146149   -1.023517   -2.278936
     51          1           0      -13.462593    1.668775   -1.234870
     52          1           0      -12.624902    2.819316   -0.369447
     53          1           0       10.990840   -1.819772    3.205700
     54          1           0        9.723882   -0.683003    2.468364
     55          1           0       11.433067   -0.198103    2.862467
     56          1           0       10.377617   -2.893404   -0.364622
     57          1           0       10.086197   -3.457270    1.439921
     58          1           0        9.141804   -2.075782    0.630011
     59          1           0      -11.921688   -0.311757    2.573430
     60          1           0      -10.710492   -1.677451    2.194933
     61          1           0      -12.403254   -2.009809    2.663841
     62          1           0      -13.378707   -2.793046    0.195277
     63          1           0      -11.728488   -3.224445   -0.068583
     64          1           0      -12.520441   -2.101278   -1.224875
     65          1           0        8.736801   -0.165371    0.535599
     66          1           0      -10.005680   -2.156543   -0.693517
     67          1           0       10.279930    1.294622   -2.044596
     68          1           0       11.851086    2.019488   -1.683579
     69          1           0       12.073888    0.562847   -2.960092
     70          1           0      -11.101734    2.362388   -2.337663
     71          1           0       -9.897432    1.290958   -2.138939
     72          1           0       -9.959069    2.365271   -0.982704
     73          1           0       14.699421   -3.389140   -0.181794
     74          1           0      -15.312506    1.552280    1.557278
     75          1           0       10.203063    2.546427    0.109990
     76          1           0       -8.636648    0.686018    0.012674
     77          1           0        9.077625    4.139631    0.715592
     78          1           0        7.708899    4.414844   -0.537506
     79          1           0        7.261395    4.289051    1.262201
     80          1           0       -8.103678   -3.175124    0.189339
     81          1           0       -8.159302   -3.069615   -1.502901
     82          1           0       -6.626588   -3.255293   -0.779389
     83          1           0        6.968006    0.688331   -0.260658
     84          1           0       -6.337570    0.435261    0.073794
     85          1           0        5.350715    3.148794    0.360236
     86          1           0       -4.780045   -2.052818   -0.587412
     87          1           0        4.465076    0.457529   -0.240174
     88          1           0       -4.167601    0.680744   -0.338688
     89          1           0        2.804224    3.538081    1.698319
     90          1           0        1.734029    3.388387    0.464076
     91          1           0        3.292221    3.740271   -0.099462
     92          1           0       -2.660943   -2.605064   -0.214829
     93          1           0       -2.799669   -2.458126   -1.890899
     94          1           0       -1.125331   -2.079187   -1.243355
     95          1           0        2.430998   -0.079624   -0.593375
     96          1           0       -1.830219    1.092173    0.108982
     97          1           0        0.472490    2.007650    0.223837
     98          1           0        0.252964   -0.973678   -0.487136
 ---------------------------------------------------------------------

 SCF Done:  E(RCAM-B3LYP) =  -1706.93183029     A.U. after   17 cycles

 Excitation energies and oscillator strengths:

 Excited State   1:      Singlet-A      1.8707 eV  662.75 nm  f=3.1831  <S**2>=0.000
     155 ->158        -0.13447
     156 ->157         0.70014
     156 <-157        -0.12262
 This state for optimization and/or second-order correction.
 Total Energy, E(TD-HF/TD-DFT) =  -1706.86308181
 Copying the excited state density for this state as the 1-particle RhoCI density.

 The electronic state is 1-A.
 Alpha  occ. eigenvalues --  -19.22058 -19.20813 -10.30909 -10.30252 -10.28067
 Alpha  occ. eigenvalues --  -10.28012 -10.27542 -10.27476 -10.27360 -10.27170
 Alpha  occ. eigenvalues --  -10.27116 -10.27009 -10.26962 -10.26833 -10.26767
 Alpha  occ. eigenvalues --  -10.26765 -10.26742 -10.26560 -10.26537 -10.26261
 Alpha  occ. eigenvalues --  -10.26077 -10.26031 -10.25867 -10.25684 -10.25601
 Alpha  occ. eigenvalues --  -10.25466 -10.25389 -10.25315 -10.25311 -10.25273
 Alpha  occ. eigenvalues --  -10.25226 -10.25221 -10.24862 -10.24854 -10.24709
 Alpha  occ. eigenvalues --  -10.24703 -10.24645 -10.24634 -10.24532 -10.24429
 Alpha  occ. eigenvalues --  -10.24228 -10.23497  -1.11243  -1.08381  -0.93651
 Alpha  occ. eigenvalues --   -0.93443  -0.92820  -0.92210  -0.90735  -0.89663
 Alpha  occ. eigenvalues --   -0.87046  -0.86871  -0.86854  -0.85577  -0.84263
 Alpha  occ. eigenvalues --   -0.83249  -0.82608  -0.79835  -0.79305  -0.78645
 Alpha  occ. eigenvalues --   -0.77424  -0.76878  -0.76357  -0.76259  -0.76007
 Alpha  occ. eigenvalues --   -0.75176  -0.74613  -0.74492  -0.73279  -0.70644
 Alpha  occ. eigenvalues --   -0.69533  -0.68537  -0.66521  -0.64913  -0.64259
 Alpha  occ. eigenvalues --   -0.63268  -0.63113  -0.62891  -0.61771  -0.61174
 Alpha  occ. eigenvalues --   -0.60022  -0.59475  -0.59271  -0.58132  -0.56474
 Alpha  occ. eigenvalues --   -0.55580  -0.55221  -0.54966  -0.54104  -0.53686
 Alpha  occ. eigenvalues --   -0.53425  -0.52981  -0.52126  -0.51372  -0.50974
 Alpha  occ. eigenvalues --   -0.50646  -0.50442  -0.50176  -0.49767  -0.49608
 Alpha  occ. eigenvalues --   -0.49085  -0.48741  -0.48426  -0.48230  -0.47783
 Alpha  occ. eigenvalues --   -0.47611  -0.47180  -0.46945  -0.46721  -0.46608
 Alpha  occ. eigenvalues --   -0.46338  -0.46077  -0.45748  -0.45564  -0.45278
 Alpha  occ. eigenvalues --   -0.44762  -0.44718  -0.44077  -0.44019  -0.43438
 Alpha  occ. eigenvalues --   -0.43354  -0.43174  -0.42438  -0.42320  -0.41971
 Alpha  occ. eigenvalues --   -0.41739  -0.41676  -0.41495  -0.41023  -0.40888
 Alpha  occ. eigenvalues --   -0.40528  -0.40301  -0.40091  -0.39603  -0.39505
 Alpha  occ. eigenvalues --   -0.39346  -0.39240  -0.38978  -0.38491  -0.37191
 Alpha  occ. eigenvalues --   -0.37080  -0.37043  -0.36810  -0.36267  -0.35733
 Alpha  occ. eigenvalues --   -0.35152  -0.34867  -0.33952  -0.32501  -0.32091
 Alpha  occ. eigenvalues --   -0.31611  -0.29301  -0.27734  -0.25617  -0.22918
 Alpha  occ. eigenvalues --   -0.18027
 Alpha virt. eigenvalues --   -0.06460  -0.01369   0.01905   0.05451   0.07285
 Alpha virt. eigenvalues --    0.08363   0.10805   0.10978   0.12014   0.12750
 Alpha virt. eigenvalues --    0.12902   0.13459   0.13714   0.14090   0.14186

 Mulliken charges:
               1
     1  O   -0.571647
     2  O   -0.546949
     3  C   -0.041567
     4  C   -0.026427
     5  C   -0.170896
     6  C   -0.215718
     7  C    0.171827
     8  C    0.202225
     9  C    0.076355
    10  C    0.042068
    11  C   -0.235054
    12  C   -0.249380
    13  C    0.063366
    14  C    0.062133
    15  C   -0.292026
    16  C   -0.291485
    17  C   -0.292013
    18  C   -0.316246
    19  C   -0.147231
    20  C   -0.124608
    21  C   -0.348259
    22  C   -0.369658
    23  C   -0.162626
    24  C   -0.088935
    25  C    0.134706
    26  C    0.092668
    27  C   -0.364569
    28  C   -0.378069
    29  C   -0.105385
    30  C   -0.153884
    31  C   -0.082729
    32  C   -0.064957
    33  C   -0.049746
    34  C   -0.054408
    35  C    0.073913
    36  C    0.083170
    37  C   -0.362047
    38  C   -0.365403
    39  C   -0.134496
    40  C   -0.101006
    41  C   -0.090008
    42  C   -0.109796
    43  H    0.109047
    44  H    0.050312
    45  H    0.081722
    46  H    0.103763
    47  H    0.074095
    48  H    0.091527
    49  H    0.133727
    50  H    0.099846
    51  H    0.131161
    52  H    0.089352
    53  H    0.096705
    54  H    0.082739
    55  H    0.111377
    56  H    0.101867
    57  H    0.106428
    58  H    0.093395
    59  H    0.089745
    60  H    0.104153
    61  H    0.087183
    62  H    0.110792
    63  H    0.103007
    64  H    0.089403
    65  H    0.104329
    66  H    0.084484
    67  H    0.116919
    68  H    0.121391
    69  H    0.090572
    70  H    0.105934
    71  H    0.127000
    72  H    0.130271
    73  H    0.312658
    74  H    0.291717
    75  H    0.108719
    76  H    0.093325
    77  H    0.092244
    78  H    0.120049
    79  H    0.087946
    80  H    0.123523
    81  H    0.114735
    82  H    0.111974
    83  H    0.077902
    84  H    0.066317
    85  H    0.086379
    86  H    0.062089
    87  H    0.040479
    88  H    0.061395
    89  H    0.115550
    90  H    0.121155
    91  H    0.123816
    92  H    0.142446
    93  H    0.113146
    94  H    0.116943
    95  H    0.073461
    96  H    0.080767
    97  H    0.064914
    98  H    0.078901
 Sum of Mulliken charges =  -0.00000

 Dipole moment (field-independent basis, Debye):
    X=             -0.5657    Y=             -2.1695    Z=              1.1416  Tot=              2.5159
 Quadrupole moment (field-independent basis, Debye-Ang):
   XX=           -260.0198   YY=           -242.7227   ZZ=           -261.7532
   XY=              1.8368   XZ=            -10.5290   YZ=              0.7872

 Normal termination of Gaussian 16 at Fri Jul 12 12:10:33 2019.
