 Gaussian 16, Revision A.03,
 Gaussian 16:  ES64L-G16RevA.03 25-Dec-2016

 -------------------------------------
 # td=(NStates=1) CAM-B3LYP/6-31G(d,p)
 -------------------------------------

 --
 TD
 --
 Symbolic Z-matrix:
 Charge =  0 Multiplicity = 1

                         Standard orientation:
 ---------------------------------------------------------------------
 Center     Atomic      Atomic             Coordinates (Angstroms)
 Number     Number       Type             X           Y           Z
 ---------------------------------------------------------------------
      1          8           0       14.659235   -2.277818   -0.235746
      2          8           0      -14.755940    2.006878    0.781460
      3          6           0       11.232659   -1.393601    1.049898
      4          6           0      -12.391309   -1.010056    0.543699
      5          6           0       12.664359   -1.735008    0.936691
      6          6           0      -13.677674   -0.260966    0.514588
      7          6           0       13.263827   -1.813440   -0.333731
      8          6           0      -13.443624    1.253288    0.747827
      9          6           0       10.951611   -0.333516    0.003359
     10          6           0      -11.249055   -0.294002   -0.134630
     11          6           0       13.229489   -0.566474   -1.138396
     12          6           0      -12.709688    1.763287   -0.322963
     13          6           0       11.814790    0.107661   -1.031022
     14          6           0      -11.395415    1.031094   -0.593458
     15          6           0       10.840873   -1.012449    2.526196
     16          6           0       10.469344   -2.737815    0.665066
     17          6           0      -11.884194   -1.283833    1.987006
     18          6           0      -12.690963   -2.305099   -0.132649
     19          6           0        9.612341    0.419061    0.127266
     20          6           0       -9.967345   -0.945339   -0.280836
     21          6           0       11.407124    1.084974   -2.126713
     22          6           0      -10.426179    1.707476   -1.480381
     23          6           0        9.248932    1.705037   -0.051700
     24          6           0       -8.734223   -0.480010   -0.152704
     25          6           0        7.980813    2.260038    0.206178
     26          6           0       -7.561890   -1.257257   -0.448250
     27          6           0        7.989787    3.831912    0.392201
     28          6           0       -7.648638   -2.682902   -0.792296
     29          6           0        6.844114    1.556211    0.196088
     30          6           0       -6.328637   -0.635927   -0.160523
     31          6           0        5.509405    2.103881    0.306057
     32          6           0       -5.009470   -1.171133   -0.374341
     33          6           0        4.381604    1.340539    0.107548
     34          6           0       -3.848127   -0.436866   -0.305627
     35          6           0        3.084729    1.740784    0.314254
     36          6           0       -2.560623   -0.873544   -0.551791
     37          6           0        2.817488    3.189269    0.631509
     38          6           0       -2.254474   -2.272084   -1.020168
     39          6           0        2.217161    0.776271   -0.071028
     40          6           0       -1.527326    0.126051   -0.396484
     41          6           0        0.827830    0.931644   -0.077900
     42          6           0       -0.159747   -0.135452   -0.409254
     43          1           0       13.224858   -1.066302    1.548901
     44          1           0       12.958061   -2.839997    1.318401
     45          1           0      -14.345526   -0.584670    1.371841
     46          1           0      -14.185852   -0.308611   -0.416049
     47          1           0       12.607784   -2.600291   -0.859749
     48          1           0      -13.150639    1.469414    1.710786
     49          1           0       14.029869    0.157817   -0.790244
     50          1           0       13.311822   -0.560156   -2.225653
     51          1           0      -13.315997    1.689056   -1.207804
     52          1           0      -12.374190    2.919449   -0.179870
     53          1           0       11.252789   -1.525446    3.449129
     54          1           0        9.707401   -0.857594    2.771462
     55          1           0       11.408519    0.214056    2.665505
     56          1           0       10.670963   -2.903674   -0.430377
     57          1           0       10.405662   -3.713014    1.322209
     58          1           0        9.485177   -2.544468    0.592177
     59          1           0      -11.874357   -0.179919    2.455947
     60          1           0      -11.063879   -1.942638    2.216411
     61          1           0      -12.939721   -1.674463    2.596966
     62          1           0      -13.562036   -2.768536    0.199531
     63          1           0      -11.857355   -3.106339   -0.185336
     64          1           0      -12.825290   -2.081744   -1.315649
     65          1           0        8.810591   -0.377692    0.561841
     66          1           0      -10.108501   -2.036131   -0.581275
     67          1           0       10.242726    1.418316   -2.235546
     68          1           0       12.056104    2.062050   -2.023683
     69          1           0       11.727884    0.724605   -3.002738
     70          1           0      -10.828794    2.551488   -2.274064
     71          1           0       -9.763520    0.967135   -2.001412
     72          1           0       -9.693258    2.295054   -0.936960
     73          1           0       14.666299   -3.263395   -0.031170
     74          1           0      -15.067761    1.923654    1.719718
     75          1           0       10.088922    2.447545    0.078819
     76          1           0       -8.470659    0.593905   -0.228991
     77          1           0        8.990807    4.107716    0.648043
     78          1           0        7.714971    4.405121   -0.647751
     79          1           0        7.033833    4.253750    1.141612
     80          1           0       -8.028452   -3.423835   -0.016983
     81          1           0       -8.243804   -2.935927   -1.754262
     82          1           0       -6.765540   -3.287800   -1.189529
     83          1           0        6.927119    0.493635   -0.050035
     84          1           0       -6.378777    0.527117    0.099754
     85          1           0        5.293806    3.218604    0.343717
     86          1           0       -4.969526   -2.291008   -0.665785
     87          1           0        4.350746    0.338632    0.054769
     88          1           0       -4.085752    0.485886    0.245268
     89          1           0        3.081076    3.472024    1.695246
     90          1           0        1.689467    3.342080    0.704860
     91          1           0        3.118008    3.877841   -0.103733
     92          1           0       -2.396448   -2.943248   -0.266313
     93          1           0       -3.152942   -2.451274   -1.589503
     94          1           0       -1.185409   -2.736584   -0.994059
     95          1           0        2.405607   -0.290083   -0.206320
     96          1           0       -1.847298    1.010485   -0.024791
     97          1           0        0.417046    1.929552    0.257867
     98          1           0        0.058916   -1.183859   -0.912365
 ---------------------------------------------------------------------

 SCF Done:  E(RCAM-B3LYP) =  -1706.90203134     A.U. after   15 cycles

 Excitation energies and oscillator strengths:

 Excited State   1:      Singlet-A      1.9932 eV  622.02 nm  f=3.7189  <S**2>=0.000
     155 ->158         0.13882
     156 ->157         0.69622
     156 <-157        -0.10215
 This state for optimization and/or second-order correction.
 Total Energy, E(TD-HF/TD-DFT) =  -1706.82878101
 Copying the excited state density for this state as the 1-particle RhoCI density.

 The electronic state is 1-A.
 Alpha  occ. eigenvalues --  -19.21261 -19.20210 -10.30513 -10.29167 -10.29076
 Alpha  occ. eigenvalues --  -10.28722 -10.28506 -10.28102 -10.27938 -10.27866
 Alpha  occ. eigenvalues --  -10.27661 -10.27587 -10.27586 -10.27566 -10.27470
 Alpha  occ. eigenvalues --  -10.27298 -10.27223 -10.27106 -10.26898 -10.26853
 Alpha  occ. eigenvalues --  -10.26575 -10.26477 -10.26421 -10.26337 -10.26220
 Alpha  occ. eigenvalues --  -10.26196 -10.26145 -10.26126 -10.25929 -10.25889
 Alpha  occ. eigenvalues --  -10.25830 -10.25822 -10.25752 -10.25644 -10.25476
 Alpha  occ. eigenvalues --  -10.25437 -10.25406 -10.25139 -10.25113 -10.25071
 Alpha  occ. eigenvalues --  -10.24570 -10.23919  -1.07389  -1.06291  -0.94618
 Alpha  occ. eigenvalues --   -0.94050  -0.92980  -0.91966  -0.90648  -0.90446
 Alpha  occ. eigenvalues --   -0.87533  -0.86830  -0.86611  -0.85699  -0.84808
 Alpha  occ. eigenvalues --   -0.83379  -0.82070  -0.80103  -0.79895  -0.79093
 Alpha  occ. eigenvalues --   -0.77140  -0.76642  -0.76493  -0.76198  -0.75699
 Alpha  occ. eigenvalues --   -0.75519  -0.74854  -0.74752  -0.73066  -0.70994
 Alpha  occ. eigenvalues --   -0.68344  -0.67477  -0.65573  -0.64884  -0.63859
 Alpha  occ. eigenvalues --   -0.63603  -0.62403  -0.61400  -0.60502  -0.60487
 Alpha  occ. eigenvalues --   -0.59572  -0.59267  -0.59055  -0.58169  -0.56195
 Alpha  occ. eigenvalues --   -0.55395  -0.55049  -0.54599  -0.54243  -0.53721
 Alpha  occ. eigenvalues --   -0.53346  -0.52661  -0.51662  -0.51165  -0.51033
 Alpha  occ. eigenvalues --   -0.50484  -0.50133  -0.50053  -0.49605  -0.49161
 Alpha  occ. eigenvalues --   -0.48778  -0.48625  -0.48318  -0.47829  -0.47534
 Alpha  occ. eigenvalues --   -0.47515  -0.46962  -0.46654  -0.46425  -0.45754
 Alpha  occ. eigenvalues --   -0.45421  -0.45035  -0.44726  -0.44442  -0.44257
 Alpha  occ. eigenvalues --   -0.43927  -0.43754  -0.43654  -0.43475  -0.43420
 Alpha  occ. eigenvalues --   -0.43005  -0.42913  -0.42713  -0.42297  -0.42048
 Alpha  occ. eigenvalues --   -0.41702  -0.41347  -0.41095  -0.40759  -0.40600
 Alpha  occ. eigenvalues --   -0.40428  -0.40019  -0.39523  -0.39470  -0.39309
 Alpha  occ. eigenvalues --   -0.38693  -0.38547  -0.37998  -0.37833  -0.37662
 Alpha  occ. eigenvalues --   -0.37274  -0.37182  -0.37000  -0.36508  -0.36113
 Alpha  occ. eigenvalues --   -0.35592  -0.35140  -0.34398  -0.32747  -0.32363
 Alpha  occ. eigenvalues --   -0.31653  -0.29603  -0.28081  -0.25715  -0.23262
 Alpha  occ. eigenvalues --   -0.18512
 Alpha virt. eigenvalues --   -0.06349  -0.00882   0.01876   0.05222   0.07175
 Alpha virt. eigenvalues --    0.09089   0.10724   0.11044   0.11243   0.11293
 Alpha virt. eigenvalues --    0.12028   0.12136   0.12306   0.12955   0.13514

 Mulliken charges:
               1
     1  O   -0.575493
     2  O   -0.586509
     3  C    0.006601
     4  C    0.008780
     5  C   -0.136054
     6  C   -0.189233
     7  C    0.156586
     8  C    0.146000
     9  C    0.035699
    10  C    0.067693
    11  C   -0.204906
    12  C   -0.200560
    13  C    0.036733
    14  C    0.063833
    15  C   -0.290181
    16  C   -0.314167
    17  C   -0.276341
    18  C   -0.297573
    19  C   -0.098191
    20  C   -0.144299
    21  C   -0.354708
    22  C   -0.387136
    23  C   -0.135361
    24  C   -0.086231
    25  C    0.106781
    26  C    0.127761
    27  C   -0.342719
    28  C   -0.392643
    29  C   -0.117011
    30  C   -0.135472
    31  C   -0.112083
    32  C   -0.102086
    33  C   -0.074728
    34  C   -0.112426
    35  C    0.116446
    36  C    0.098440
    37  C   -0.385719
    38  C   -0.389970
    39  C   -0.111059
    40  C   -0.087952
    41  C   -0.121126
    42  C   -0.109923
    43  H    0.102218
    44  H    0.056926
    45  H    0.084185
    46  H    0.117474
    47  H    0.072368
    48  H    0.088858
    49  H    0.118923
    50  H    0.106684
    51  H    0.130407
    52  H    0.087411
    53  H    0.117941
    54  H    0.105770
    55  H    0.045598
    56  H    0.099198
    57  H    0.098937
    58  H    0.109218
    59  H    0.087832
    60  H    0.128862
    61  H    0.046481
    62  H    0.114996
    63  H    0.088044
    64  H    0.078490
    65  H    0.068040
    66  H    0.082628
    67  H    0.125489
    68  H    0.102430
    69  H    0.121083
    70  H    0.090907
    71  H    0.126558
    72  H    0.123586
    73  H    0.308585
    74  H    0.299321
    75  H    0.092336
    76  H    0.083997
    77  H    0.114249
    78  H    0.100190
    79  H    0.088433
    80  H    0.122372
    81  H    0.106923
    82  H    0.104777
    83  H    0.082201
    84  H    0.070625
    85  H    0.082152
    86  H    0.073205
    87  H    0.069496
    88  H    0.091457
    89  H    0.126875
    90  H    0.096140
    91  H    0.141462
    92  H    0.141644
    93  H    0.128529
    94  H    0.117930
    95  H    0.094478
    96  H    0.073760
    97  H    0.082014
    98  H    0.079806
 Sum of Mulliken charges =  -0.00000

 Dipole moment (field-independent basis, Debye):
    X=              0.1995    Y=             -2.0551    Z=              1.1605  Tot=              2.3685
 Quadrupole moment (field-independent basis, Debye-Ang):
   XX=           -306.3940   YY=           -239.6316   ZZ=           -261.7609
   XY=              7.4104   XZ=            -15.1355   YZ=              1.9905

 Normal termination of Gaussian 16 at Fri Jul 19 14:20:37 2019.
