 Gaussian 16, Revision A.03,
 Gaussian 16:  ES64L-G16RevA.03 25-Dec-2016

 -------------------------------------
 # td=(NStates=1) CAM-B3LYP/6-31G(d,p)
 -------------------------------------

 --
 TD
 --
 Symbolic Z-matrix:
 Charge =  0 Multiplicity = 1

                         Standard orientation:
 ---------------------------------------------------------------------
 Center     Atomic      Atomic             Coordinates (Angstroms)
 Number     Number       Type             X           Y           Z
 ---------------------------------------------------------------------
      1          8           0       14.695493   -2.178886   -0.302667
      2          8           0      -14.713654    1.874466    1.087727
      3          6           0       11.267521   -1.392082    1.002239
      4          6           0      -12.381501   -1.026115    0.543364
      5          6           0       12.696563   -1.763535    1.046104
      6          6           0      -13.699683   -0.272770    0.645379
      7          6           0       13.394579   -1.813440   -0.304712
      8          6           0      -13.555958    1.198565    0.988409
      9          6           0       11.028932   -0.166981    0.171016
     10          6           0      -11.259779   -0.153361   -0.191986
     11          6           0       13.275480   -0.436148   -0.941814
     12          6           0      -12.762690    1.842389   -0.008850
     13          6           0       11.835237    0.239836   -0.745702
     14          6           0      -11.528087    1.156131   -0.456215
     15          6           0       10.931088   -0.911330    2.465794
     16          6           0       10.347789   -2.566545    0.600640
     17          6           0      -11.870114   -1.426885    1.983722
     18          6           0      -12.721108   -2.285800   -0.279234
     19          6           0        9.661267    0.412514    0.355414
     20          6           0      -10.016340   -0.830620   -0.434381
     21          6           0       11.742082    1.222198   -1.835627
     22          6           0      -10.631216    1.999832   -1.318167
     23          6           0        9.377380    1.726747    0.274223
     24          6           0       -8.720932   -0.339566   -0.362272
     25          6           0        8.060120    2.237497    0.086979
     26          6           0       -7.601930   -1.151010   -0.690815
     27          6           0        7.957902    3.814096    0.202977
     28          6           0       -7.750585   -2.568154   -1.001841
     29          6           0        6.908575    1.391618    0.071498
     30          6           0       -6.373809   -0.557754   -0.469945
     31          6           0        5.583548    1.910428    0.124831
     32          6           0       -5.156093   -1.124847   -0.589923
     33          6           0        4.489213    1.037513   -0.132369
     34          6           0       -3.973511   -0.452631   -0.364442
     35          6           0        3.107585    1.413305   -0.010642
     36          6           0       -2.635932   -0.860912   -0.582540
     37          6           0        2.835128    2.970013    0.341707
     38          6           0       -2.244604   -2.255972   -0.960870
     39          6           0        2.059507    0.543998   -0.052879
     40          6           0       -1.615936   -0.008812   -0.219463
     41          6           0        0.719124    0.819342   -0.075849
     42          6           0       -0.273394   -0.185535   -0.305892
     43          1           0       13.209119   -1.158863    1.643501
     44          1           0       12.736912   -2.876876    1.499464
     45          1           0      -14.373901   -0.818746    1.263529
     46          1           0      -14.169336   -0.225319   -0.445777
     47          1           0       12.851209   -2.487318   -1.054863
     48          1           0      -12.879821    1.112335    2.039284
     49          1           0       14.112050    0.311888   -0.766175
     50          1           0       13.595571   -0.553334   -1.997799
     51          1           0      -13.349767    2.010121   -0.812551
     52          1           0      -12.547564    2.705708    0.492621
     53          1           0       11.369132   -1.718372    3.048705
     54          1           0        9.977283   -0.796103    2.603697
     55          1           0       11.572151   -0.016833    2.703539
     56          1           0       10.447318   -2.525143   -0.519814
     57          1           0       10.810465   -3.542847    0.909751
     58          1           0        9.186729   -2.437527    0.834184
     59          1           0      -11.648622   -0.442878    2.734648
     60          1           0      -11.067968   -2.079090    1.733838
     61          1           0      -12.391082   -1.999097    2.409172
     62          1           0      -13.699979   -2.787251    0.303175
     63          1           0      -11.947548   -3.109636   -0.372421
     64          1           0      -12.969496   -2.132858   -1.307565
     65          1           0        8.644270   -0.245025    0.136655
     66          1           0      -10.146110   -1.817657   -0.940552
     67          1           0       10.608852    1.385784   -1.899719
     68          1           0       12.214769    2.200381   -1.427734
     69          1           0       12.153936    0.907070   -2.734356
     70          1           0      -11.302441    2.817075   -1.723886
     71          1           0       -9.853111    1.477405   -1.695619
     72          1           0      -10.060354    2.601535   -0.532979
     73          1           0       14.809235   -3.046934    0.081312
     74          1           0      -15.385486    1.455857    1.701182
     75          1           0       10.209427    2.474990    0.205959
     76          1           0       -8.534599    0.710007   -0.008165
     77          1           0        8.957773    4.144243    0.309459
     78          1           0        7.174272    4.141638   -0.504196
     79          1           0        7.338438    3.947829    1.200192
     80          1           0       -8.434651   -3.148646   -0.223899
     81          1           0       -8.041051   -2.957002   -2.155847
     82          1           0       -6.707299   -3.256407   -0.729090
     83          1           0        7.287255    0.394616   -0.035097
     84          1           0       -6.385988    0.651794   -0.256319
     85          1           0        5.238554    2.813138    0.279457
     86          1           0       -4.968408   -2.130822   -0.904753
     87          1           0        4.662256   -0.006184   -0.271644
     88          1           0       -4.234840    0.538788    0.153552
     89          1           0        3.430225    3.252988    1.277160
     90          1           0        1.851880    3.116878    0.473520
     91          1           0        3.129937    3.667230   -0.429834
     92          1           0       -2.532463   -2.820614   -0.124394
     93          1           0       -2.774485   -2.650165   -1.903959
     94          1           0       -1.223149   -2.332398   -0.933541
     95          1           0        2.524396   -0.341532   -0.560935
     96          1           0       -1.996745    1.090767    0.135620
     97          1           0        0.321060    1.661851    0.076177
     98          1           0        0.314596   -1.006379   -0.663527
 ---------------------------------------------------------------------

 SCF Done:  E(RCAM-B3LYP) =  -1706.89299765     A.U. after   15 cycles

 Excitation energies and oscillator strengths:

 Excited State   1:      Singlet-A      1.9738 eV  628.16 nm  f=3.8509  <S**2>=0.000
     155 ->158        -0.15200
     156 ->157         0.69217
 This state for optimization and/or second-order correction.
 Total Energy, E(TD-HF/TD-DFT) =  -1706.82046294
 Copying the excited state density for this state as the 1-particle RhoCI density.

 The electronic state is 1-A.
 Alpha  occ. eigenvalues --  -19.22252 -19.21256 -10.30208 -10.30148 -10.29089
 Alpha  occ. eigenvalues --  -10.27680 -10.27531 -10.27412 -10.27314 -10.27221
 Alpha  occ. eigenvalues --  -10.27062 -10.26881 -10.26819 -10.26510 -10.26479
 Alpha  occ. eigenvalues --  -10.26408 -10.26356 -10.26275 -10.26254 -10.26249
 Alpha  occ. eigenvalues --  -10.26236 -10.26230 -10.26192 -10.26017 -10.25985
 Alpha  occ. eigenvalues --  -10.25978 -10.25868 -10.25708 -10.25388 -10.25244
 Alpha  occ. eigenvalues --  -10.25235 -10.25212 -10.25150 -10.25126 -10.25026
 Alpha  occ. eigenvalues --  -10.24895 -10.24628 -10.24429 -10.24370 -10.23206
 Alpha  occ. eigenvalues --  -10.22905 -10.22419  -1.11915  -1.11859  -0.94488
 Alpha  occ. eigenvalues --   -0.93281  -0.92616  -0.91725  -0.90977  -0.90148
 Alpha  occ. eigenvalues --   -0.87702  -0.87361  -0.87138  -0.85986  -0.84514
 Alpha  occ. eigenvalues --   -0.83634  -0.82329  -0.79986  -0.79709  -0.78386
 Alpha  occ. eigenvalues --   -0.77152  -0.76821  -0.76539  -0.76255  -0.75979
 Alpha  occ. eigenvalues --   -0.75682  -0.75390  -0.75075  -0.73744  -0.71214
 Alpha  occ. eigenvalues --   -0.68982  -0.67909  -0.66161  -0.65505  -0.64496
 Alpha  occ. eigenvalues --   -0.63883  -0.63643  -0.62398  -0.60722  -0.60102
 Alpha  occ. eigenvalues --   -0.59351  -0.59109  -0.58985  -0.57312  -0.56860
 Alpha  occ. eigenvalues --   -0.56249  -0.55823  -0.55458  -0.54390  -0.54093
 Alpha  occ. eigenvalues --   -0.53558  -0.53100  -0.52387  -0.51845  -0.51059
 Alpha  occ. eigenvalues --   -0.50590  -0.50196  -0.49867  -0.49696  -0.49463
 Alpha  occ. eigenvalues --   -0.49006  -0.48865  -0.48786  -0.48614  -0.47801
 Alpha  occ. eigenvalues --   -0.47538  -0.47247  -0.47158  -0.46895  -0.46634
 Alpha  occ. eigenvalues --   -0.46563  -0.46259  -0.45540  -0.45398  -0.45083
 Alpha  occ. eigenvalues --   -0.44990  -0.44798  -0.44436  -0.44209  -0.43643
 Alpha  occ. eigenvalues --   -0.43260  -0.42927  -0.42678  -0.42479  -0.42062
 Alpha  occ. eigenvalues --   -0.41787  -0.41216  -0.40893  -0.40716  -0.40304
 Alpha  occ. eigenvalues --   -0.40243  -0.39990  -0.39971  -0.39705  -0.39342
 Alpha  occ. eigenvalues --   -0.39033  -0.38670  -0.38313  -0.37872  -0.37798
 Alpha  occ. eigenvalues --   -0.37640  -0.37419  -0.36589  -0.36301  -0.35850
 Alpha  occ. eigenvalues --   -0.35428  -0.34303  -0.33440  -0.32524  -0.31727
 Alpha  occ. eigenvalues --   -0.30825  -0.29723  -0.28665  -0.26216  -0.23023
 Alpha  occ. eigenvalues --   -0.18733
 Alpha virt. eigenvalues --   -0.06607  -0.01635   0.02435   0.06358   0.08114
 Alpha virt. eigenvalues --    0.09300   0.11266   0.11517   0.11744   0.11963
 Alpha virt. eigenvalues --    0.12145   0.12723   0.13267   0.13510   0.13634

 Mulliken charges:
               1
     1  O   -0.542672
     2  O   -0.550123
     3  C   -0.015641
     4  C   -0.017936
     5  C   -0.186358
     6  C   -0.181064
     7  C    0.191075
     8  C    0.194304
     9  C    0.067740
    10  C    0.056257
    11  C   -0.242746
    12  C   -0.200578
    13  C    0.051627
    14  C    0.037562
    15  C   -0.289283
    16  C   -0.302553
    17  C   -0.258978
    18  C   -0.303777
    19  C   -0.124273
    20  C   -0.152191
    21  C   -0.353413
    22  C   -0.354131
    23  C   -0.093952
    24  C   -0.101706
    25  C    0.049419
    26  C    0.157621
    27  C   -0.359831
    28  C   -0.376729
    29  C   -0.082069
    30  C   -0.128757
    31  C   -0.065482
    32  C   -0.066790
    33  C   -0.115018
    34  C   -0.124480
    35  C    0.084681
    36  C    0.103031
    37  C   -0.376519
    38  C   -0.368666
    39  C   -0.133521
    40  C   -0.124889
    41  C   -0.052320
    42  C   -0.087413
    43  H    0.110373
    44  H    0.048609
    45  H    0.075893
    46  H    0.067120
    47  H    0.055263
    48  H    0.013761
    49  H    0.104885
    50  H    0.100266
    51  H    0.125583
    52  H    0.122204
    53  H    0.089543
    54  H    0.111263
    55  H    0.095860
    56  H    0.106639
    57  H    0.101453
    58  H    0.096539
    59  H    0.080777
    60  H    0.100686
    61  H    0.098701
    62  H    0.067699
    63  H    0.089782
    64  H    0.119253
    65  H    0.076729
    66  H    0.089191
    67  H    0.108311
    68  H    0.108563
    69  H    0.125025
    70  H    0.112770
    71  H    0.126741
    72  H    0.102787
    73  H    0.302824
    74  H    0.315317
    75  H    0.087525
    76  H    0.087554
    77  H    0.116096
    78  H    0.130653
    79  H    0.113727
    80  H    0.115978
    81  H    0.105283
    82  H    0.080487
    83  H    0.068401
    84  H    0.073029
    85  H    0.072668
    86  H    0.079809
    87  H    0.075171
    88  H    0.072347
    89  H    0.109520
    90  H    0.114634
    91  H    0.121424
    92  H    0.134948
    93  H    0.111846
    94  H    0.121235
    95  H    0.078455
    96  H    0.073218
    97  H    0.060682
    98  H    0.085444
 Sum of Mulliken charges =  -0.00000

 Dipole moment (field-independent basis, Debye):
    X=             -0.0676    Y=             -1.4714    Z=              0.5597  Tot=              1.5757
 Quadrupole moment (field-independent basis, Debye-Ang):
   XX=           -248.3229   YY=           -243.3769   ZZ=           -264.5388
   XY=              5.5033   XZ=             -8.6703   YZ=              1.6158

 Normal termination of Gaussian 16 at Tue Jul 16 19:34:03 2019.
