 Gaussian 16, Revision A.03,
 Gaussian 16:  ES64L-G16RevA.03 25-Dec-2016

 -------------------------------------
 # td=(NStates=1) CAM-B3LYP/6-31G(d,p)
 -------------------------------------

 --
 TD
 --
 Symbolic Z-matrix:
 Charge =  0 Multiplicity = 1

                         Standard orientation:
 ---------------------------------------------------------------------
 Center     Atomic      Atomic             Coordinates (Angstroms)
 Number     Number       Type             X           Y           Z
 ---------------------------------------------------------------------
      1          8           0       14.559124   -2.432341   -0.446386
      2          8           0      -14.881532    1.843071    0.677877
      3          6           0       11.203610   -1.436094    1.008353
      4          6           0      -12.394727   -1.107356    0.517279
      5          6           0       12.628510   -1.966897    0.911578
      6          6           0      -13.704894   -0.224454    0.467102
      7          6           0       13.195001   -1.997977   -0.513561
      8          6           0      -13.611305    1.268958    0.751192
      9          6           0       10.945039   -0.342547   -0.022207
     10          6           0      -11.272360   -0.227335   -0.134411
     11          6           0       13.262323   -0.528586   -1.122551
     12          6           0      -12.678692    1.871617   -0.334354
     13          6           0       11.776063    0.106175   -0.982634
     14          6           0      -11.468438    1.049013   -0.561818
     15          6           0       10.881620   -0.780981    2.403894
     16          6           0       10.275833   -2.645282    0.751395
     17          6           0      -12.021749   -1.472050    1.936389
     18          6           0      -12.622288   -2.377576   -0.180102
     19          6           0        9.651918    0.307512    0.260049
     20          6           0       -9.975529   -0.947952   -0.224646
     21          6           0       11.589630    1.219600   -2.019893
     22          6           0      -10.552452    1.814672   -1.412009
     23          6           0        9.311962    1.594429   -0.117689
     24          6           0       -8.663627   -0.370109   -0.265332
     25          6           0        8.147696    2.344247    0.252614
     26          6           0       -7.585409   -1.212797   -0.506622
     27          6           0        8.151700    3.907535    0.216481
     28          6           0       -7.662555   -2.717603   -0.821068
     29          6           0        6.946310    1.629452    0.070993
     30          6           0       -6.378729   -0.623647   -0.337916
     31          6           0        5.565309    2.153310    0.183188
     32          6           0       -5.038934   -1.079225   -0.422105
     33          6           0        4.430567    1.307156    0.137089
     34          6           0       -3.904533   -0.307517   -0.418885
     35          6           0        3.098432    1.557118    0.370500
     36          6           0       -2.496594   -0.720797   -0.505580
     37          6           0        2.817041    3.003084    0.944395
     38          6           0       -2.193804   -2.025655   -0.991429
     39          6           0        2.193681    0.624866    0.082004
     40          6           0       -1.548163    0.193037   -0.076311
     41          6           0        0.917199    0.846753    0.205219
     42          6           0       -0.157331   -0.051818   -0.173378
     43          1           0       13.133364   -1.241626    1.544053
     44          1           0       12.729262   -2.969220    1.396056
     45          1           0      -14.628600   -0.610437    0.982953
     46          1           0      -14.161610   -0.402295   -0.535255
     47          1           0       12.405175   -2.672288   -1.117799
     48          1           0      -13.253471    1.247068    1.756943
     49          1           0       13.895049    0.103713   -0.556528
     50          1           0       13.546198   -0.529134   -2.227073
     51          1           0      -13.250387    2.052110   -1.296929
     52          1           0      -12.404172    2.940412    0.033760
     53          1           0       11.026164   -1.401848    3.135949
     54          1           0        9.704066   -0.731090    2.438771
     55          1           0       11.618907    0.093809    2.634899
     56          1           0       10.463964   -2.890250   -0.197771
     57          1           0       10.578922   -3.529282    1.411568
     58          1           0        9.360248   -2.532840    0.868906
     59          1           0      -12.127614   -0.386974    2.640629
     60          1           0      -11.177991   -1.988182    2.074356
     61          1           0      -12.822761   -2.105322    2.285853
     62          1           0      -13.186310   -2.995363    0.276287
     63          1           0      -11.435518   -2.911682   -0.335951
     64          1           0      -13.199809   -2.459402   -1.115831
     65          1           0        8.900081   -0.301464    0.757172
     66          1           0      -10.259777   -2.042136   -0.263240
     67          1           0       10.600363    1.357816   -2.162110
     68          1           0       12.101129    2.019393   -1.670471
     69          1           0       12.242715    0.938265   -2.840101
     70          1           0      -11.164056    2.269802   -2.213056
     71          1           0       -9.784011    1.213714   -1.823292
     72          1           0       -9.855195    2.665732   -0.994306
     73          1           0       14.739927   -3.136204   -0.018606
     74          1           0      -15.520296    1.168193    1.152651
     75          1           0       10.218307    2.229334   -0.349198
     76          1           0       -8.375526    0.588189    0.004498
     77          1           0        9.176947    4.257799    0.194589
     78          1           0        7.534753    4.379018   -0.525651
     79          1           0        7.573852    4.248883    1.161302
     80          1           0       -8.227741   -3.174148   -0.018079
     81          1           0       -8.310846   -2.864027   -1.604856
     82          1           0       -6.585836   -2.917976   -1.137374
     83          1           0        7.008062    0.657339   -0.160687
     84          1           0       -6.498393    0.482200   -0.323183
     85          1           0        5.286681    3.239827    0.231229
     86          1           0       -5.200450   -2.108708   -0.644355
     87          1           0        4.599132    0.220609   -0.180131
     88          1           0       -4.067024    0.821671   -0.051040
     89          1           0        3.187318    3.178919    1.909162
     90          1           0        1.728598    3.228122    0.983453
     91          1           0        3.219967    3.845512    0.223456
     92          1           0       -2.555400   -2.811599   -0.453017
     93          1           0       -2.589128   -2.132080   -1.904391
     94          1           0       -1.167113   -2.360948   -1.023582
     95          1           0        2.519732   -0.432370   -0.505486
     96          1           0       -1.880071    1.203697    0.594909
     97          1           0        0.582057    1.918005    0.374500
     98          1           0        0.243444   -1.021771   -0.621743
 ---------------------------------------------------------------------

 SCF Done:  E(RCAM-B3LYP) =  -1706.89705277     A.U. after   15 cycles

 Excitation energies and oscillator strengths:

 Excited State   1:      Singlet-A      2.0298 eV  610.81 nm  f=3.8215  <S**2>=0.000
     155 ->158        -0.15514
     156 ->157         0.68967
 This state for optimization and/or second-order correction.
 Total Energy, E(TD-HF/TD-DFT) =  -1706.82245827
 Copying the excited state density for this state as the 1-particle RhoCI density.

 The electronic state is 1-A.
 Alpha  occ. eigenvalues --  -19.21706 -19.19679 -10.32187 -10.29921 -10.28013
 Alpha  occ. eigenvalues --  -10.27917 -10.27847 -10.27753 -10.27337 -10.27226
 Alpha  occ. eigenvalues --  -10.27119 -10.27010 -10.26952 -10.26908 -10.26602
 Alpha  occ. eigenvalues --  -10.26558 -10.26489 -10.26448 -10.26433 -10.26259
 Alpha  occ. eigenvalues --  -10.26255 -10.26236 -10.26222 -10.26095 -10.26066
 Alpha  occ. eigenvalues --  -10.25996 -10.25974 -10.25741 -10.25645 -10.25591
 Alpha  occ. eigenvalues --  -10.25471 -10.25457 -10.25437 -10.25396 -10.25308
 Alpha  occ. eigenvalues --  -10.25281 -10.24680 -10.24636 -10.24585 -10.23439
 Alpha  occ. eigenvalues --  -10.23307 -10.22309  -1.10903  -1.09187  -0.93791
 Alpha  occ. eigenvalues --   -0.93233  -0.92845  -0.92300  -0.91094  -0.89480
 Alpha  occ. eigenvalues --   -0.88379  -0.86755  -0.86269  -0.85143  -0.83980
 Alpha  occ. eigenvalues --   -0.82926  -0.81603  -0.80129  -0.80040  -0.78917
 Alpha  occ. eigenvalues --   -0.78074  -0.77608  -0.76899  -0.76660  -0.76438
 Alpha  occ. eigenvalues --   -0.75832  -0.75405  -0.75197  -0.73416  -0.71283
 Alpha  occ. eigenvalues --   -0.69233  -0.67826  -0.66234  -0.65776  -0.65295
 Alpha  occ. eigenvalues --   -0.64279  -0.62984  -0.60954  -0.60101  -0.59553
 Alpha  occ. eigenvalues --   -0.59280  -0.58647  -0.58426  -0.57517  -0.55969
 Alpha  occ. eigenvalues --   -0.55905  -0.55501  -0.54533  -0.54429  -0.54147
 Alpha  occ. eigenvalues --   -0.53314  -0.52713  -0.52072  -0.51336  -0.51274
 Alpha  occ. eigenvalues --   -0.50813  -0.50617  -0.50561  -0.50360  -0.49898
 Alpha  occ. eigenvalues --   -0.49636  -0.49132  -0.49015  -0.48669  -0.48483
 Alpha  occ. eigenvalues --   -0.48181  -0.48005  -0.47463  -0.46474  -0.46225
 Alpha  occ. eigenvalues --   -0.45999  -0.45694  -0.45317  -0.45233  -0.44794
 Alpha  occ. eigenvalues --   -0.44736  -0.44389  -0.43965  -0.43800  -0.43388
 Alpha  occ. eigenvalues --   -0.43021  -0.42805  -0.42503  -0.42318  -0.41936
 Alpha  occ. eigenvalues --   -0.41787  -0.41567  -0.41257  -0.41162  -0.41052
 Alpha  occ. eigenvalues --   -0.40644  -0.40527  -0.39910  -0.39647  -0.39402
 Alpha  occ. eigenvalues --   -0.39303  -0.38851  -0.38488  -0.38350  -0.37739
 Alpha  occ. eigenvalues --   -0.37556  -0.36992  -0.36327  -0.35918  -0.35686
 Alpha  occ. eigenvalues --   -0.35298  -0.34537  -0.34370  -0.32640  -0.32276
 Alpha  occ. eigenvalues --   -0.31843  -0.30200  -0.28743  -0.25321  -0.22681
 Alpha  occ. eigenvalues --   -0.18779
 Alpha virt. eigenvalues --   -0.06217  -0.01453   0.02007   0.05718   0.08308
 Alpha virt. eigenvalues --    0.10237   0.10355   0.10820   0.11106   0.12238
 Alpha virt. eigenvalues --    0.12328   0.12659   0.13167   0.13362   0.13978

 Mulliken charges:
               1
     1  O   -0.538652
     2  O   -0.562876
     3  C   -0.054460
     4  C   -0.022460
     5  C   -0.193836
     6  C   -0.235301
     7  C    0.184563
     8  C    0.202743
     9  C    0.121514
    10  C    0.094776
    11  C   -0.206410
    12  C   -0.231784
    13  C   -0.035936
    14  C    0.059114
    15  C   -0.287079
    16  C   -0.280119
    17  C   -0.260123
    18  C   -0.275398
    19  C   -0.107986
    20  C   -0.139513
    21  C   -0.347947
    22  C   -0.366361
    23  C   -0.142891
    24  C   -0.103909
    25  C    0.052949
    26  C    0.127983
    27  C   -0.360994
    28  C   -0.355294
    29  C   -0.089294
    30  C   -0.155658
    31  C   -0.108882
    32  C   -0.056731
    33  C   -0.125026
    34  C   -0.143964
    35  C    0.126427
    36  C    0.128133
    37  C   -0.372773
    38  C   -0.380444
    39  C   -0.092905
    40  C   -0.126373
    41  C   -0.095767
    42  C   -0.109610
    43  H    0.094473
    44  H    0.077745
    45  H    0.053454
    46  H    0.095504
    47  H    0.066891
    48  H    0.082586
    49  H    0.126897
    50  H    0.100432
    51  H    0.120674
    52  H    0.107071
    53  H    0.107768
    54  H    0.092395
    55  H    0.098097
    56  H    0.111636
    57  H    0.082082
    58  H    0.099610
    59  H    0.062589
    60  H    0.115338
    61  H    0.099963
    62  H    0.115869
    63  H    0.053903
    64  H    0.103367
    65  H    0.085221
    66  H    0.057944
    67  H    0.135366
    68  H    0.130234
    69  H    0.099562
    70  H    0.105509
    71  H    0.119673
    72  H    0.096227
    73  H    0.276733
    74  H    0.305741
    75  H    0.084821
    76  H    0.100945
    77  H    0.112954
    78  H    0.131688
    79  H    0.109234
    80  H    0.127504
    81  H    0.132362
    82  H    0.104862
    83  H    0.082824
    84  H    0.060454
    85  H    0.077930
    86  H    0.061920
    87  H    0.067371
    88  H    0.080409
    89  H    0.140836
    90  H    0.103704
    91  H    0.108083
    92  H    0.134259
    93  H    0.134045
    94  H    0.110594
    95  H    0.078219
    96  H    0.081477
    97  H    0.082582
    98  H    0.078922
 Sum of Mulliken charges =  -0.00000

 Dipole moment (field-independent basis, Debye):
    X=             -1.1751    Y=             -2.2748    Z=              0.8271  Tot=              2.6907
 Quadrupole moment (field-independent basis, Debye-Ang):
   XX=           -261.8526   YY=           -242.3131   ZZ=           -263.9554
   XY=             24.4272   XZ=              4.3291   YZ=             -0.9633

 Normal termination of Gaussian 16 at Fri Jul 12 15:33:54 2019.
