 Gaussian 16, Revision A.03,
 Gaussian 16:  ES64L-G16RevA.03 25-Dec-2016

 -------------------------------------
 # td=(NStates=1) CAM-B3LYP/6-31G(d,p)
 -------------------------------------

 --
 TD
 --
 Symbolic Z-matrix:
 Charge =  0 Multiplicity = 1

                         Standard orientation:
 ---------------------------------------------------------------------
 Center     Atomic      Atomic             Coordinates (Angstroms)
 Number     Number       Type             X           Y           Z
 ---------------------------------------------------------------------
      1          8           0       14.812147   -2.040326   -0.304760
      2          8           0      -14.716117    2.087637    1.015994
      3          6           0       11.319678   -1.397430    0.955513
      4          6           0      -12.404186   -0.990506    0.390721
      5          6           0       12.803534   -1.640769    0.945306
      6          6           0      -13.687402   -0.176934    0.528562
      7          6           0       13.356156   -1.770041   -0.450245
      8          6           0      -13.561690    1.342748    0.830442
      9          6           0       11.034467   -0.174073    0.079914
     10          6           0      -11.249872   -0.193033   -0.348125
     11          6           0       13.217745   -0.453556   -1.194143
     12          6           0      -12.670601    1.928489   -0.204649
     13          6           0       11.834660    0.176528   -0.983766
     14          6           0      -11.444033    1.109214   -0.666961
     15          6           0       10.785100   -1.149429    2.369229
     16          6           0       10.490914   -2.605947    0.338945
     17          6           0      -11.982894   -1.333669    1.898188
     18          6           0      -12.748707   -2.326871   -0.260877
     19          6           0        9.653533    0.435231    0.240911
     20          6           0      -10.093496   -1.012035   -0.547521
     21          6           0       11.625165    1.311424   -1.890337
     22          6           0      -10.483868    1.899593   -1.527585
     23          6           0        9.409883    1.682726   -0.043753
     24          6           0       -8.858236   -0.469827   -0.416048
     25          6           0        8.074388    2.250613    0.022578
     26          6           0       -7.657787   -1.164209   -0.498135
     27          6           0        7.893662    3.722186    0.334909
     28          6           0       -7.709009   -2.608350   -1.109948
     29          6           0        6.927861    1.475585    0.079841
     30          6           0       -6.352080   -0.657227   -0.332128
     31          6           0        5.604058    1.951282    0.198110
     32          6           0       -5.081502   -1.238062   -0.420157
     33          6           0        4.437253    1.080125    0.116896
     34          6           0       -4.031177   -0.455160   -0.210625
     35          6           0        3.160101    1.452065    0.308762
     36          6           0       -2.699840   -0.918349   -0.234144
     37          6           0        2.914769    2.930678    0.562944
     38          6           0       -2.437578   -2.335730   -0.495660
     39          6           0        2.064110    0.512299    0.120672
     40          6           0       -1.661703   -0.004084   -0.069618
     41          6           0        0.725650    0.799407    0.248954
     42          6           0       -0.258312   -0.182908   -0.145687
     43          1           0       13.439065   -0.820463    1.432197
     44          1           0       13.155052   -2.655127    1.628555
     45          1           0      -14.324940   -0.589786    1.300638
     46          1           0      -14.226664   -0.277296   -0.435643
     47          1           0       12.837124   -2.451923   -1.023914
     48          1           0      -12.851827    1.178673    1.836695
     49          1           0       14.062455    0.240197   -0.726781
     50          1           0       13.526418   -0.498849   -2.314810
     51          1           0      -13.371131    2.119864   -0.976777
     52          1           0      -12.388108    2.933670    0.048568
     53          1           0       11.371231   -1.842352    3.024838
     54          1           0        9.681549   -1.388037    2.339824
     55          1           0       11.043434    0.064963    2.647048
     56          1           0       10.834670   -2.898196   -0.693127
     57          1           0       10.618584   -3.565547    0.898100
     58          1           0        9.500019   -2.263008    0.405179
     59          1           0      -12.019474   -0.299298    2.455286
     60          1           0      -11.094612   -2.101416    2.014943
     61          1           0      -13.039823   -1.855788    2.374533
     62          1           0      -13.590865   -2.803894    0.298968
     63          1           0      -12.011379   -2.912116   -0.403542
     64          1           0      -12.901465   -1.924049   -1.338192
     65          1           0        9.049963   -0.347104    0.771584
     66          1           0      -10.321511   -2.129639   -0.646388
     67          1           0       10.478378    1.307455   -2.198365
     68          1           0       11.840817    2.425037   -1.319445
     69          1           0       12.336297    1.030598   -2.703284
     70          1           0      -11.045989    2.715435   -2.081382
     71          1           0       -9.708978    1.398417   -2.100058
     72          1           0       -9.711964    2.378985   -0.800851
     73          1           0       14.899471   -2.665141    0.714656
     74          1           0      -15.127087    1.719677    1.729772
     75          1           0       10.256643    2.381209   -0.407792
     76          1           0       -8.529501    0.562461   -0.086051
     77          1           0        8.832274    4.350039    0.246740
     78          1           0        7.221250    4.042691   -0.400100
     79          1           0        7.333209    3.678466    1.286102
     80          1           0       -7.988483   -3.327591   -0.430685
     81          1           0       -8.316652   -2.820690   -2.003496
     82          1           0       -6.800215   -3.059003   -1.296044
     83          1           0        6.936416    0.432996   -0.260382
     84          1           0       -6.296181    0.687003   -0.277816
     85          1           0        5.563784    3.107048    0.453059
     86          1           0       -4.967681   -2.248510   -0.349273
     87          1           0        4.678095   -0.037290    0.043888
     88          1           0       -4.163722    0.652449   -0.037658
     89          1           0        4.027364    3.276743    1.195884
     90          1           0        1.759953    3.208860    1.087640
     91          1           0        3.156986    3.687850   -0.409576
     92          1           0       -3.137898   -2.919978    0.200855
     93          1           0       -2.658577   -2.695385   -1.657710
     94          1           0       -1.323776   -2.696199   -0.141537
     95          1           0        2.403341   -0.392011   -0.158411
     96          1           0       -1.820506    1.110970    0.281092
     97          1           0        0.421397    1.766843    0.765935
     98          1           0        0.153234   -1.163368   -0.621088
 ---------------------------------------------------------------------

 SCF Done:  E(RCAM-B3LYP) =  -1706.86848920     A.U. after   16 cycles

 Excitation energies and oscillator strengths:

 Excited State   1:      Singlet-A      1.8324 eV  676.64 nm  f=3.7061  <S**2>=0.000
     155 ->158        -0.13222
     156 ->157         0.69993
     156 <-157        -0.11653
 This state for optimization and/or second-order correction.
 Total Energy, E(TD-HF/TD-DFT) =  -1706.80115134
 Copying the excited state density for this state as the 1-particle RhoCI density.

 The electronic state is 1-A.
 Alpha  occ. eigenvalues --  -19.22486 -19.22188 -10.31440 -10.30306 -10.29918
 Alpha  occ. eigenvalues --  -10.28605 -10.28394 -10.28120 -10.28078 -10.27995
 Alpha  occ. eigenvalues --  -10.27982 -10.27808 -10.27793 -10.27685 -10.27608
 Alpha  occ. eigenvalues --  -10.27573 -10.27502 -10.27379 -10.27348 -10.27304
 Alpha  occ. eigenvalues --  -10.27267 -10.27198 -10.27127 -10.27096 -10.27025
 Alpha  occ. eigenvalues --  -10.26715 -10.26675 -10.26566 -10.26451 -10.26338
 Alpha  occ. eigenvalues --  -10.26264 -10.26128 -10.25833 -10.25782 -10.25719
 Alpha  occ. eigenvalues --  -10.25646 -10.25530 -10.25352 -10.24646 -10.24451
 Alpha  occ. eigenvalues --  -10.24039 -10.23749  -1.13019  -1.04554  -0.94185
 Alpha  occ. eigenvalues --   -0.93296  -0.92778  -0.92035  -0.90864  -0.90013
 Alpha  occ. eigenvalues --   -0.87804  -0.87461  -0.86679  -0.86046  -0.85168
 Alpha  occ. eigenvalues --   -0.83673  -0.81713  -0.80561  -0.79858  -0.78172
 Alpha  occ. eigenvalues --   -0.76816  -0.76578  -0.76430  -0.76005  -0.75152
 Alpha  occ. eigenvalues --   -0.75013  -0.73826  -0.73583  -0.72915  -0.71006
 Alpha  occ. eigenvalues --   -0.69173  -0.67379  -0.65821  -0.65021  -0.64193
 Alpha  occ. eigenvalues --   -0.63386  -0.62891  -0.61760  -0.60503  -0.59772
 Alpha  occ. eigenvalues --   -0.59152  -0.58913  -0.58100  -0.57644  -0.56723
 Alpha  occ. eigenvalues --   -0.55725  -0.55322  -0.53941  -0.53699  -0.53249
 Alpha  occ. eigenvalues --   -0.52936  -0.52206  -0.51823  -0.51610  -0.50329
 Alpha  occ. eigenvalues --   -0.49884  -0.49797  -0.49473  -0.49347  -0.49076
 Alpha  occ. eigenvalues --   -0.48875  -0.48473  -0.48230  -0.48160  -0.48073
 Alpha  occ. eigenvalues --   -0.47576  -0.47224  -0.46928  -0.46485  -0.46140
 Alpha  occ. eigenvalues --   -0.45904  -0.45613  -0.45409  -0.45322  -0.45260
 Alpha  occ. eigenvalues --   -0.45159  -0.44891  -0.44459  -0.43496  -0.43278
 Alpha  occ. eigenvalues --   -0.43103  -0.42792  -0.42514  -0.42428  -0.41888
 Alpha  occ. eigenvalues --   -0.41714  -0.41469  -0.41179  -0.41010  -0.40674
 Alpha  occ. eigenvalues --   -0.40451  -0.40305  -0.39960  -0.39653  -0.39448
 Alpha  occ. eigenvalues --   -0.38946  -0.38742  -0.38377  -0.37932  -0.37700
 Alpha  occ. eigenvalues --   -0.37666  -0.37264  -0.36551  -0.36494  -0.35920
 Alpha  occ. eigenvalues --   -0.35500  -0.35041  -0.34716  -0.32833  -0.32260
 Alpha  occ. eigenvalues --   -0.31157  -0.30018  -0.28450  -0.26405  -0.23086
 Alpha  occ. eigenvalues --   -0.18660
 Alpha virt. eigenvalues --   -0.07495  -0.01690   0.01745   0.04775   0.07009
 Alpha virt. eigenvalues --    0.07464   0.09106   0.10224   0.10742   0.11088
 Alpha virt. eigenvalues --    0.11337   0.11454   0.12370   0.12520   0.12848

 Mulliken charges:
               1
     1  O   -0.577823
     2  O   -0.520961
     3  C   -0.030090
     4  C   -0.035305
     5  C   -0.198542
     6  C   -0.188719
     7  C    0.201862
     8  C    0.169179
     9  C    0.055808
    10  C    0.082407
    11  C   -0.227972
    12  C   -0.223052
    13  C    0.058915
    14  C    0.050172
    15  C   -0.285675
    16  C   -0.295107
    17  C   -0.273266
    18  C   -0.280201
    19  C   -0.068328
    20  C   -0.134174
    21  C   -0.348921
    22  C   -0.368559
    23  C   -0.114975
    24  C   -0.087101
    25  C    0.056711
    26  C    0.086406
    27  C   -0.381538
    28  C   -0.382935
    29  C   -0.109686
    30  C   -0.131002
    31  C   -0.106457
    32  C   -0.060148
    33  C   -0.139215
    34  C   -0.077893
    35  C    0.140241
    36  C    0.119277
    37  C   -0.338938
    38  C   -0.370800
    39  C   -0.089135
    40  C   -0.126196
    41  C   -0.082134
    42  C   -0.100042
    43  H    0.108819
    44  H    0.035657
    45  H    0.074983
    46  H    0.087638
    47  H    0.097918
    48  H    0.024476
    49  H    0.113856
    50  H    0.100673
    51  H    0.121721
    52  H    0.115097
    53  H    0.104358
    54  H    0.098813
    55  H    0.088945
    56  H    0.106133
    57  H    0.100034
    58  H    0.104041
    59  H    0.098016
    60  H    0.100108
    61  H    0.049475
    62  H    0.104338
    63  H    0.106869
    64  H    0.091019
    65  H    0.086984
    66  H    0.098294
    67  H    0.122270
    68  H    0.096818
    69  H    0.100297
    70  H    0.105700
    71  H    0.130596
    72  H    0.103585
    73  H    0.287541
    74  H    0.306300
    75  H    0.089836
    76  H    0.086059
    77  H    0.104858
    78  H    0.138926
    79  H    0.138687
    80  H    0.115379
    81  H    0.117618
    82  H    0.103260
    83  H    0.078352
    84  H    0.032742
    85  H    0.079840
    86  H    0.090984
    87  H    0.084899
    88  H    0.087970
    89  H    0.074867
    90  H    0.083999
    91  H    0.106207
    92  H    0.116389
    93  H    0.108609
    94  H    0.097397
    95  H    0.076062
    96  H    0.077116
    97  H    0.088888
    98  H    0.083595
 Sum of Mulliken charges =  -0.00000

 Dipole moment (field-independent basis, Debye):
    X=              0.6841    Y=             -1.6503    Z=              1.3735  Tot=              2.2534
 Quadrupole moment (field-independent basis, Debye-Ang):
   XX=           -289.2807   YY=           -247.8261   ZZ=           -265.9082
   XY=             15.8328   XZ=              3.2397   YZ=             -1.8860

 Normal termination of Gaussian 16 at Fri Jul 12 01:48:05 2019.
