 Gaussian 16, Revision A.03,
 Gaussian 16:  ES64L-G16RevA.03 25-Dec-2016

 -------------------------------------
 # td=(NStates=1) CAM-B3LYP/6-31G(d,p)
 -------------------------------------

 --
 TD
 --
 Symbolic Z-matrix:
 Charge =  0 Multiplicity = 1

                         Standard orientation:
 ---------------------------------------------------------------------
 Center     Atomic      Atomic             Coordinates (Angstroms)
 Number     Number       Type             X           Y           Z
 ---------------------------------------------------------------------
      1          8           0       14.715061   -2.332332   -0.321091
      2          8           0      -14.815244    1.895799    0.746710
      3          6           0       11.137480   -1.456549    0.932183
      4          6           0      -12.492224   -0.986905    0.524180
      5          6           0       12.554311   -1.840141    0.962674
      6          6           0      -13.755316   -0.188279    0.541234
      7          6           0       13.326087   -1.828541   -0.380722
      8          6           0      -13.588048    1.252296    0.839513
      9          6           0       11.048196   -0.203282   -0.112897
     10          6           0      -11.346163   -0.269675   -0.343135
     11          6           0       13.403088   -0.411846   -0.954626
     12          6           0      -12.690226    1.870267   -0.228831
     13          6           0       12.008913    0.140973   -0.845464
     14          6           0      -11.482943    1.013760   -0.669922
     15          6           0       10.693745   -1.141898    2.342525
     16          6           0       10.275843   -2.625692    0.402479
     17          6           0      -11.899454   -1.373297    1.819581
     18          6           0      -12.855871   -2.257050   -0.288104
     19          6           0        9.715334    0.385125   -0.027729
     20          6           0      -10.027524   -0.942540   -0.518216
     21          6           0       11.833857    1.272325   -1.924958
     22          6           0      -10.438874    1.772662   -1.528086
     23          6           0        9.396754    1.716330   -0.095322
     24          6           0       -8.753885   -0.405169   -0.311665
     25          6           0        8.046974    2.300927    0.123504
     26          6           0       -7.545420   -1.229331   -0.473879
     27          6           0        7.948269    3.724408    0.457486
     28          6           0       -7.664814   -2.594100   -0.798133
     29          6           0        6.840632    1.646266    0.051098
     30          6           0       -6.311761   -0.604624   -0.369892
     31          6           0        5.581365    2.065031    0.215382
     32          6           0       -5.059938   -1.140908   -0.456334
     33          6           0        4.544642    1.204357    0.127981
     34          6           0       -3.840865   -0.430950   -0.246749
     35          6           0        3.077851    1.588890    0.231679
     36          6           0       -2.554968   -0.885513   -0.273728
     37          6           0        2.764133    3.085605    0.662346
     38          6           0       -2.281726   -2.336021   -0.567119
     39          6           0        2.092971    0.708781   -0.036015
     40          6           0       -1.484656    0.045417    0.012680
     41          6           0        0.704046    0.935663    0.123279
     42          6           0       -0.202706   -0.113761   -0.060523
     43          1           0       13.071553   -1.157419    1.519376
     44          1           0       12.821689   -2.947834    1.420888
     45          1           0      -14.412508   -0.457181    1.454677
     46          1           0      -14.419171   -0.217863   -0.284204
     47          1           0       12.789479   -2.648750   -1.102067
     48          1           0      -13.110153    1.297464    1.742791
     49          1           0       14.123227    0.193138   -0.302130
     50          1           0       13.647045   -0.459600   -2.122982
     51          1           0      -13.222788    1.785766   -1.218272
     52          1           0      -12.328685    2.806935    0.191951
     53          1           0       11.045938   -1.967503    3.011405
     54          1           0        9.557341   -1.029605    2.208507
     55          1           0       11.211112   -0.313309    2.862293
     56          1           0       10.597816   -2.887686   -0.528501
     57          1           0       10.578516   -3.372677    1.149409
     58          1           0        9.169568   -2.218106    0.501581
     59          1           0      -11.595610   -0.441633    2.492509
     60          1           0      -11.014256   -1.988887    1.758962
     61          1           0      -12.697442   -1.781010    2.386571
     62          1           0      -13.655183   -2.775066    0.081525
     63          1           0      -11.994580   -3.056127   -0.463268
     64          1           0      -13.187327   -2.083792   -1.152967
     65          1           0        8.770296   -0.399311   -0.085848
     66          1           0      -10.068624   -1.832694   -0.605752
     67          1           0       10.763778    1.641394   -2.220625
     68          1           0       12.130293    2.190926   -1.448811
     69          1           0       12.305666    0.915490   -2.988567
     70          1           0      -10.942789    2.414281   -2.157580
     71          1           0       -9.865327    1.136038   -1.981838
     72          1           0       -9.851097    2.288426   -0.759164
     73          1           0       14.704200   -3.189802    0.017620
     74          1           0      -15.118948    1.792419    1.791378
     75          1           0       10.259823    2.383024   -0.087147
     76          1           0       -8.654781    0.615719    0.038943
     77          1           0        8.886038    4.282958    0.928234
     78          1           0        7.342105    4.350635   -0.177326
     79          1           0        7.379791    3.930529    1.611352
     80          1           0       -8.114415   -3.181385    0.018952
     81          1           0       -8.459367   -2.649845   -1.576085
     82          1           0       -6.799125   -3.194931   -1.350180
     83          1           0        6.942348    0.640870   -0.270849
     84          1           0       -6.379949    0.439370   -0.017027
     85          1           0        5.398035    3.244125    0.187818
     86          1           0       -5.084909   -2.157233   -0.646181
     87          1           0        4.752761    0.094414   -0.144624
     88          1           0       -4.019879    0.541036   -0.088605
     89          1           0        3.381687    3.309422    1.547708
     90          1           0        1.733842    3.341052    0.873331
     91          1           0        3.356163    3.778384   -0.063678
     92          1           0       -2.915456   -3.216772    0.101842
     93          1           0       -2.172948   -2.435931   -1.843337
     94          1           0       -1.180852   -2.390240   -0.391673
     95          1           0        2.415311   -0.244086   -0.356152
     96          1           0       -1.808766    1.079120    0.150401
     97          1           0        0.138356    2.025356    0.242588
     98          1           0        0.299955   -1.107820   -0.408662
 ---------------------------------------------------------------------

 SCF Done:  E(RCAM-B3LYP) =  -1706.88602172     A.U. after   16 cycles

 Excitation energies and oscillator strengths:

 Excited State   1:      Singlet-A      1.9985 eV  620.39 nm  f=3.7456  <S**2>=0.000
     155 ->158        -0.13657
     156 ->157         0.69773
     156 <-157        -0.11229
 This state for optimization and/or second-order correction.
 Total Energy, E(TD-HF/TD-DFT) =  -1706.81257805
 Copying the excited state density for this state as the 1-particle RhoCI density.

 The electronic state is 1-A.
 Alpha  occ. eigenvalues --  -19.22849 -19.20263 -10.31823 -10.28777 -10.28760
 Alpha  occ. eigenvalues --  -10.28137 -10.28019 -10.27814 -10.27600 -10.27505
 Alpha  occ. eigenvalues --  -10.27418 -10.27340 -10.27308 -10.27230 -10.27130
 Alpha  occ. eigenvalues --  -10.27056 -10.26856 -10.26531 -10.26484 -10.26462
 Alpha  occ. eigenvalues --  -10.26356 -10.26332 -10.26130 -10.25987 -10.25879
 Alpha  occ. eigenvalues --  -10.25705 -10.25644 -10.25590 -10.25395 -10.25365
 Alpha  occ. eigenvalues --  -10.25362 -10.25262 -10.25035 -10.24924 -10.24923
 Alpha  occ. eigenvalues --  -10.24796 -10.24766 -10.24585 -10.24407 -10.24341
 Alpha  occ. eigenvalues --  -10.22828 -10.22785  -1.09944  -1.08211  -0.94427
 Alpha  occ. eigenvalues --   -0.93455  -0.92581  -0.92034  -0.91475  -0.89701
 Alpha  occ. eigenvalues --   -0.88217  -0.87608  -0.87054  -0.85923  -0.84870
 Alpha  occ. eigenvalues --   -0.83665  -0.82414  -0.80224  -0.79696  -0.78225
 Alpha  occ. eigenvalues --   -0.77728  -0.76752  -0.76385  -0.76125  -0.76101
 Alpha  occ. eigenvalues --   -0.75281  -0.75099  -0.74788  -0.73041  -0.71343
 Alpha  occ. eigenvalues --   -0.68850  -0.67215  -0.65852  -0.65163  -0.64329
 Alpha  occ. eigenvalues --   -0.63582  -0.62413  -0.61644  -0.60769  -0.60370
 Alpha  occ. eigenvalues --   -0.60203  -0.59483  -0.57779  -0.57654  -0.55990
 Alpha  occ. eigenvalues --   -0.55874  -0.55096  -0.54654  -0.54474  -0.54015
 Alpha  occ. eigenvalues --   -0.53409  -0.52960  -0.52373  -0.51854  -0.51262
 Alpha  occ. eigenvalues --   -0.50440  -0.50361  -0.49859  -0.49602  -0.49437
 Alpha  occ. eigenvalues --   -0.49280  -0.49081  -0.48487  -0.48345  -0.47716
 Alpha  occ. eigenvalues --   -0.47473  -0.47067  -0.46827  -0.46513  -0.46135
 Alpha  occ. eigenvalues --   -0.45996  -0.45684  -0.45657  -0.45240  -0.45080
 Alpha  occ. eigenvalues --   -0.44687  -0.44666  -0.44140  -0.43880  -0.43496
 Alpha  occ. eigenvalues --   -0.42997  -0.42814  -0.42418  -0.42317  -0.42262
 Alpha  occ. eigenvalues --   -0.41771  -0.41598  -0.41185  -0.41018  -0.40885
 Alpha  occ. eigenvalues --   -0.40723  -0.40621  -0.40211  -0.39894  -0.39575
 Alpha  occ. eigenvalues --   -0.39157  -0.38797  -0.38689  -0.38165  -0.38111
 Alpha  occ. eigenvalues --   -0.38075  -0.37296  -0.37085  -0.36801  -0.35383
 Alpha  occ. eigenvalues --   -0.35045  -0.34547  -0.33497  -0.32802  -0.31809
 Alpha  occ. eigenvalues --   -0.31489  -0.30532  -0.29051  -0.26128  -0.23564
 Alpha  occ. eigenvalues --   -0.18578
 Alpha virt. eigenvalues --   -0.06657  -0.01381   0.02718   0.06252   0.08464
 Alpha virt. eigenvalues --    0.08763   0.09863   0.10885   0.11123   0.11760
 Alpha virt. eigenvalues --    0.11816   0.12178   0.12705   0.13027   0.13201

 Mulliken charges:
               1
     1  O   -0.566571
     2  O   -0.537574
     3  C   -0.027772
     4  C    0.001030
     5  C   -0.187612
     6  C   -0.174758
     7  C    0.164146
     8  C    0.135447
     9  C    0.097443
    10  C    0.072532
    11  C   -0.204069
    12  C   -0.205748
    13  C    0.019041
    14  C   -0.035665
    15  C   -0.285287
    16  C   -0.269462
    17  C   -0.288255
    18  C   -0.295756
    19  C   -0.105129
    20  C   -0.093779
    21  C   -0.360780
    22  C   -0.331283
    23  C   -0.114262
    24  C   -0.091599
    25  C    0.103182
    26  C    0.133680
    27  C   -0.388921
    28  C   -0.409038
    29  C   -0.105005
    30  C   -0.121785
    31  C   -0.045468
    32  C   -0.074057
    33  C   -0.132719
    34  C   -0.101784
    35  C    0.097506
    36  C    0.115455
    37  C   -0.369944
    38  C   -0.355871
    39  C   -0.124762
    40  C   -0.122134
    41  C   -0.101540
    42  C   -0.054268
    43  H    0.108765
    44  H    0.047681
    45  H    0.054569
    46  H    0.113166
    47  H    0.055307
    48  H    0.084501
    49  H    0.127843
    50  H    0.108906
    51  H    0.119596
    52  H    0.105109
    53  H    0.097773
    54  H    0.099085
    55  H    0.105977
    56  H    0.114377
    57  H    0.101481
    58  H    0.084743
    59  H    0.075363
    60  H    0.115162
    61  H    0.102063
    62  H    0.099902
    63  H    0.071130
    64  H    0.115987
    65  H    0.075355
    66  H    0.030752
    67  H    0.108291
    68  H    0.125027
    69  H    0.088031
    70  H    0.106899
    71  H    0.130149
    72  H    0.108529
    73  H    0.295069
    74  H    0.305045
    75  H    0.088228
    76  H    0.086886
    77  H    0.101071
    78  H    0.133574
    79  H    0.070099
    80  H    0.127505
    81  H    0.122310
    82  H    0.109891
    83  H    0.066599
    84  H    0.065832
    85  H    0.080057
    86  H    0.067472
    87  H    0.085536
    88  H    0.064590
    89  H    0.124288
    90  H    0.116184
    91  H    0.108430
    92  H    0.109075
    93  H    0.095310
    94  H    0.108725
    95  H    0.083235
    96  H    0.078793
    97  H    0.083211
    98  H    0.084662
 Sum of Mulliken charges =  -0.00000

 Dipole moment (field-independent basis, Debye):
    X=             -1.4124    Y=             -0.8626    Z=              1.8278  Tot=              2.4658
 Quadrupole moment (field-independent basis, Debye-Ang):
   XX=           -282.2341   YY=           -244.8531   ZZ=           -260.6736
   XY=              6.3367   XZ=            -12.6984   YZ=              4.6596

 Normal termination of Gaussian 16 at Thu Jul 18 08:03:08 2019.
