 Gaussian 16, Revision A.03,
 Gaussian 16:  ES64L-G16RevA.03 25-Dec-2016

 -------------------------------------
 # td=(NStates=1) CAM-B3LYP/6-31G(d,p)
 -------------------------------------

 --
 TD
 --
 Symbolic Z-matrix:
 Charge =  0 Multiplicity = 1

                         Standard orientation:
 ---------------------------------------------------------------------
 Center     Atomic      Atomic             Coordinates (Angstroms)
 Number     Number       Type             X           Y           Z
 ---------------------------------------------------------------------
      1          8           0       14.444569   -2.366157   -0.215046
      2          8           0      -14.774749    1.659839    1.063107
      3          6           0       10.940598   -1.505357    0.979702
      4          6           0      -12.225584   -1.153338    0.628690
      5          6           0       12.515036   -1.931302    1.033595
      6          6           0      -13.686058   -0.447938    0.740193
      7          6           0       13.111847   -2.051202   -0.331660
      8          6           0      -13.471780    1.115954    1.038744
      9          6           0       10.865305   -0.274898    0.036217
     10          6           0      -11.275305   -0.287628   -0.237220
     11          6           0       13.151570   -0.717812   -0.935857
     12          6           0      -12.740503    1.755094   -0.203309
     13          6           0       11.833768   -0.038315   -0.956953
     14          6           0      -11.513728    0.950220   -0.688028
     15          6           0       10.652604   -1.031165    2.382054
     16          6           0       10.202180   -2.816208    0.611941
     17          6           0      -11.550544   -1.283015    2.047483
     18          6           0      -12.522838   -2.557168    0.093369
     19          6           0        9.589331    0.426282    0.242969
     20          6           0       -9.987375   -0.959689   -0.561262
     21          6           0       11.626669    1.138086   -1.914678
     22          6           0      -10.685193    1.744452   -1.562905
     23          6           0        9.340382    1.745900    0.025729
     24          6           0       -8.750615   -0.474283   -0.342926
     25          6           0        8.122750    2.355487    0.164424
     26          6           0       -7.512329   -1.123321   -0.587477
     27          6           0        8.081999    3.773614    0.386320
     28          6           0       -7.484161   -2.533935   -1.151695
     29          6           0        6.895213    1.570515    0.123667
     30          6           0       -6.323198   -0.409392   -0.447679
     31          6           0        5.639940    2.170637    0.225290
     32          6           0       -5.026277   -0.835152   -0.628140
     33          6           0        4.555282    1.348740    0.038853
     34          6           0       -3.888964   -0.077422   -0.300749
     35          6           0        3.187840    1.722983    0.258459
     36          6           0       -2.539107   -0.487712   -0.553703
     37          6           0        2.708526    3.192070    0.636839
     38          6           0       -2.298318   -1.968274   -1.043911
     39          6           0        2.257788    0.745996   -0.042954
     40          6           0       -1.522853    0.357796   -0.328155
     41          6           0        0.854939    0.915951   -0.046565
     42          6           0       -0.186759    0.002967   -0.404178
     43          1           0       13.213060   -1.330304    1.523394
     44          1           0       12.542020   -2.845072    1.591572
     45          1           0      -14.223174   -0.907662    1.633829
     46          1           0      -14.157742   -0.567762   -0.123636
     47          1           0       12.661220   -2.753175   -0.939489
     48          1           0      -13.021435    1.313905    1.822714
     49          1           0       13.985200   -0.173782   -0.475212
     50          1           0       13.464839   -0.890940   -2.056362
     51          1           0      -13.635133    1.835222   -0.884495
     52          1           0      -12.570650    2.733417   -0.153620
     53          1           0       10.886709   -1.632304    3.101867
     54          1           0        9.553900   -0.886554    2.451439
     55          1           0       11.251002    0.042817    2.471077
     56          1           0       10.400508   -2.950719   -0.529458
     57          1           0       10.431044   -3.710604    1.412195
     58          1           0        8.995997   -2.695143    0.559694
     59          1           0      -11.705524   -0.287025    2.469584
     60          1           0      -10.712147   -1.980890    2.123426
     61          1           0      -12.500222   -1.777339    2.659330
     62          1           0      -13.521076   -2.954300    0.655345
     63          1           0      -11.647429   -3.142645    0.146988
     64          1           0      -12.602592   -2.835958   -0.869015
     65          1           0        8.843250   -0.454671    0.817404
     66          1           0      -10.052420   -1.897872   -0.904933
     67          1           0       10.568637    1.298819   -2.203153
     68          1           0       11.877107    1.962573   -1.539965
     69          1           0       12.215462    1.089681   -2.869829
     70          1           0      -11.376541    2.115590   -2.288550
     71          1           0       -9.863894    0.967515   -2.057185
     72          1           0      -10.164279    2.442492   -1.092218
     73          1           0       14.612936   -3.201571    0.136866
     74          1           0      -15.265231    1.475996    1.731652
     75          1           0       10.400127    2.409358   -0.281948
     76          1           0       -8.542098    0.413882    0.188198
     77          1           0        9.150358    4.138897    0.502899
     78          1           0        7.467669    4.272292   -0.238614
     79          1           0        7.665242    3.819915    1.460529
     80          1           0       -8.119141   -3.340334   -0.411979
     81          1           0       -8.229662   -2.766110   -2.160763
     82          1           0       -6.546224   -2.797379   -1.480096
     83          1           0        7.103479    0.604757   -0.301856
     84          1           0       -6.432317    0.542970    0.226889
     85          1           0        5.632449    3.317701    0.567078
     86          1           0       -4.771401   -1.865847   -0.937065
     87          1           0        4.822312    0.324272   -0.069887
     88          1           0       -4.006855    1.048341   -0.222031
     89          1           0        3.087565    3.458279    1.662021
     90          1           0        1.613942    3.259849    0.499162
     91          1           0        3.251479    3.933229    0.061257
     92          1           0       -2.734171   -2.679118   -0.527190
     93          1           0       -2.617422   -2.011703   -2.213255
     94          1           0       -1.300711   -2.238927   -0.817910
     95          1           0        2.756415   -0.313499   -0.238140
     96          1           0       -1.910433    1.407610   -0.168148
     97          1           0        0.530189    1.880720    0.115941
     98          1           0        0.234767   -0.979675   -0.868034
 ---------------------------------------------------------------------

 SCF Done:  E(RCAM-B3LYP) =  -1706.85866661     A.U. after   15 cycles

 Excitation energies and oscillator strengths:

 Excited State   1:      Singlet-A      2.0159 eV  615.04 nm  f=3.7223  <S**2>=0.000
     155 ->158         0.16515
     156 ->157         0.68729
 This state for optimization and/or second-order correction.
 Total Energy, E(TD-HF/TD-DFT) =  -1706.78458460
 Copying the excited state density for this state as the 1-particle RhoCI density.

 The electronic state is 1-A.
 Alpha  occ. eigenvalues --  -19.20108 -19.19093 -10.29132 -10.28355 -10.28336
 Alpha  occ. eigenvalues --  -10.27908 -10.27854 -10.27606 -10.27567 -10.27536
 Alpha  occ. eigenvalues --  -10.27469 -10.27307 -10.27259 -10.27168 -10.27093
 Alpha  occ. eigenvalues --  -10.26905 -10.26814 -10.26706 -10.26690 -10.26687
 Alpha  occ. eigenvalues --  -10.26507 -10.26450 -10.26391 -10.26070 -10.26036
 Alpha  occ. eigenvalues --  -10.25949 -10.25722 -10.25452 -10.25399 -10.25253
 Alpha  occ. eigenvalues --  -10.25131 -10.25117 -10.25106 -10.24998 -10.24746
 Alpha  occ. eigenvalues --  -10.24645 -10.24047 -10.24010 -10.23983 -10.23792
 Alpha  occ. eigenvalues --  -10.23535 -10.23401  -1.11548  -1.11105  -0.93238
 Alpha  occ. eigenvalues --   -0.92644  -0.92026  -0.91711  -0.90608  -0.89945
 Alpha  occ. eigenvalues --   -0.86915  -0.86880  -0.86680  -0.85649  -0.84695
 Alpha  occ. eigenvalues --   -0.83397  -0.81925  -0.80773  -0.79818  -0.78092
 Alpha  occ. eigenvalues --   -0.77023  -0.76572  -0.76359  -0.75910  -0.75688
 Alpha  occ. eigenvalues --   -0.75612  -0.74976  -0.74910  -0.73232  -0.71125
 Alpha  occ. eigenvalues --   -0.69986  -0.68759  -0.66807  -0.65261  -0.63948
 Alpha  occ. eigenvalues --   -0.63635  -0.62143  -0.61191  -0.60826  -0.60691
 Alpha  occ. eigenvalues --   -0.60242  -0.59414  -0.58745  -0.57527  -0.56376
 Alpha  occ. eigenvalues --   -0.55973  -0.55323  -0.54935  -0.54185  -0.53471
 Alpha  occ. eigenvalues --   -0.53131  -0.52726  -0.51814  -0.51256  -0.51060
 Alpha  occ. eigenvalues --   -0.50867  -0.50227  -0.50083  -0.50016  -0.49740
 Alpha  occ. eigenvalues --   -0.48889  -0.48767  -0.48635  -0.48502  -0.48174
 Alpha  occ. eigenvalues --   -0.47274  -0.46948  -0.46531  -0.46317  -0.46219
 Alpha  occ. eigenvalues --   -0.45842  -0.45643  -0.45432  -0.45060  -0.44749
 Alpha  occ. eigenvalues --   -0.44350  -0.44049  -0.43746  -0.43550  -0.43249
 Alpha  occ. eigenvalues --   -0.43166  -0.43035  -0.42572  -0.42239  -0.41882
 Alpha  occ. eigenvalues --   -0.41262  -0.41194  -0.40895  -0.40657  -0.40278
 Alpha  occ. eigenvalues --   -0.40189  -0.39952  -0.39747  -0.39491  -0.39079
 Alpha  occ. eigenvalues --   -0.38899  -0.38672  -0.38217  -0.38077  -0.37473
 Alpha  occ. eigenvalues --   -0.37244  -0.36989  -0.36498  -0.36382  -0.36180
 Alpha  occ. eigenvalues --   -0.35642  -0.35329  -0.34077  -0.32558  -0.31389
 Alpha  occ. eigenvalues --   -0.31004  -0.29282  -0.28023  -0.26129  -0.22644
 Alpha  occ. eigenvalues --   -0.18728
 Alpha virt. eigenvalues --   -0.06077  -0.01916   0.02324   0.06261   0.07910
 Alpha virt. eigenvalues --    0.09602   0.10183   0.11656   0.11829   0.12503
 Alpha virt. eigenvalues --    0.12561   0.12666   0.13466   0.13590   0.13761

 Mulliken charges:
               1
     1  O   -0.554100
     2  O   -0.548316
     3  C   -0.042070
     4  C   -0.038765
     5  C   -0.184941
     6  C   -0.181457
     7  C    0.175323
     8  C    0.180726
     9  C    0.062033
    10  C    0.065889
    11  C   -0.211089
    12  C   -0.237377
    13  C    0.042828
    14  C    0.067925
    15  C   -0.264088
    16  C   -0.290194
    17  C   -0.280935
    18  C   -0.295780
    19  C   -0.089481
    20  C   -0.155869
    21  C   -0.375766
    22  C   -0.356391
    23  C   -0.145535
    24  C   -0.060620
    25  C    0.089000
    26  C    0.128923
    27  C   -0.378524
    28  C   -0.348798
    29  C   -0.112362
    30  C   -0.140294
    31  C   -0.082475
    32  C   -0.090348
    33  C   -0.126379
    34  C   -0.131931
    35  C    0.106871
    36  C    0.100964
    37  C   -0.367235
    38  C   -0.357297
    39  C   -0.119767
    40  C   -0.107193
    41  C   -0.093422
    42  C   -0.109066
    43  H    0.101338
    44  H    0.066800
    45  H    0.072146
    46  H    0.117489
    47  H    0.080186
    48  H    0.079025
    49  H    0.129814
    50  H    0.088265
    51  H    0.114183
    52  H    0.106776
    53  H    0.101887
    54  H    0.086818
    55  H    0.086394
    56  H    0.109511
    57  H    0.099105
    58  H    0.077736
    59  H    0.109341
    60  H    0.124932
    61  H    0.056800
    62  H    0.084338
    63  H    0.088961
    64  H    0.109522
    65  H    0.078675
    66  H    0.071349
    67  H    0.124903
    68  H    0.137520
    69  H    0.092647
    70  H    0.112874
    71  H    0.093311
    72  H    0.128252
    73  H    0.292005
    74  H    0.276851
    75  H    0.079040
    76  H    0.075720
    77  H    0.105701
    78  H    0.135774
    79  H    0.121529
    80  H    0.092095
    81  H    0.079472
    82  H    0.118868
    83  H    0.092346
    84  H    0.080269
    85  H    0.085152
    86  H    0.090290
    87  H    0.092322
    88  H    0.077716
    89  H    0.121191
    90  H    0.118583
    91  H    0.123818
    92  H    0.128909
    93  H    0.106862
    94  H    0.106790
    95  H    0.071898
    96  H    0.086493
    97  H    0.070406
    98  H    0.096386
 Sum of Mulliken charges =  -0.00000

 Dipole moment (field-independent basis, Debye):
    X=              1.5030    Y=             -1.0942    Z=              1.3509  Tot=              2.2981
 Quadrupole moment (field-independent basis, Debye-Ang):
   XX=           -266.7378   YY=           -239.0363   ZZ=           -262.1305
   XY=              1.3989   XZ=             -8.4422   YZ=              2.7573

 Normal termination of Gaussian 16 at Fri Jul 12 01:35:12 2019.
