 Gaussian 16, Revision A.03,
 Gaussian 16:  ES64L-G16RevA.03 25-Dec-2016

 -------------------------------------
 # td=(NStates=1) CAM-B3LYP/6-31G(d,p)
 -------------------------------------

 --
 TD
 --
 Symbolic Z-matrix:
 Charge =  0 Multiplicity = 1

                         Standard orientation:
 ---------------------------------------------------------------------
 Center     Atomic      Atomic             Coordinates (Angstroms)
 Number     Number       Type             X           Y           Z
 ---------------------------------------------------------------------
      1          8           0       14.620848   -2.328899   -0.300263
      2          8           0      -14.631471    2.047122    1.100628
      3          6           0       11.248667   -1.349832    1.068938
      4          6           0      -12.365282   -1.033288    0.653112
      5          6           0       12.714597   -1.737237    1.164920
      6          6           0      -13.727425   -0.320353    0.682342
      7          6           0       13.308824   -1.868393   -0.285200
      8          6           0      -13.526476    1.215551    1.051079
      9          6           0       10.972749   -0.194647    0.164187
     10          6           0      -11.300096   -0.255836   -0.203424
     11          6           0       13.271242   -0.544047   -0.918323
     12          6           0      -12.720193    1.841189   -0.181019
     13          6           0       11.893913    0.073059   -0.783289
     14          6           0      -11.502030    1.072248   -0.515532
     15          6           0       10.788080   -1.073813    2.506642
     16          6           0       10.398225   -2.612237    0.525543
     17          6           0      -11.859084   -1.282964    2.021756
     18          6           0      -12.681747   -2.400575    0.013622
     19          6           0        9.707376    0.521796    0.236745
     20          6           0      -10.088513   -0.944420   -0.397685
     21          6           0       11.718428    1.162868   -1.886147
     22          6           0      -10.649150    1.834399   -1.464918
     23          6           0        9.411378    1.775663    0.102607
     24          6           0       -8.867017   -0.366961   -0.438398
     25          6           0        8.019222    2.368351    0.157725
     26          6           0       -7.654228   -1.112236   -0.658595
     27          6           0        7.872139    3.760478    0.356333
     28          6           0       -7.744302   -2.624274   -1.077070
     29          6           0        6.956013    1.486664    0.133016
     30          6           0       -6.362717   -0.553236   -0.428596
     31          6           0        5.629121    1.956607    0.069586
     32          6           0       -5.095033   -1.098244   -0.594996
     33          6           0        4.474590    1.199334   -0.080560
     34          6           0       -3.948132   -0.409748   -0.407831
     35          6           0        3.156569    1.611538    0.136844
     36          6           0       -2.599201   -0.833816   -0.600159
     37          6           0        2.879794    3.002843    0.414514
     38          6           0       -2.397532   -2.366417   -1.067370
     39          6           0        2.144611    0.689531   -0.122307
     40          6           0       -1.604221    0.085895   -0.291827
     41          6           0        0.806531    0.823894   -0.162462
     42          6           0       -0.142319   -0.128898   -0.381068
     43          1           0       13.234314   -0.905489    1.677908
     44          1           0       12.968130   -2.707275    1.644952
     45          1           0      -14.278289   -0.586483    1.427448
     46          1           0      -14.263523   -0.354741   -0.268293
     47          1           0       12.646711   -2.325532   -1.031979
     48          1           0      -12.962893    1.405586    1.885774
     49          1           0       13.965631    0.328083   -0.456484
     50          1           0       13.549012   -0.713015   -2.176805
     51          1           0      -13.380134    1.832489   -1.107973
     52          1           0      -12.285688    2.852419    0.141299
     53          1           0       10.732274   -2.058655    3.110815
     54          1           0        9.761639   -0.738170    2.577470
     55          1           0       11.281706   -0.328187    3.091857
     56          1           0       10.654942   -2.924166   -0.426429
     57          1           0       10.566242   -3.325067    1.241424
     58          1           0        9.309589   -2.509015    0.475387
     59          1           0      -11.860367   -0.267782    2.593216
     60          1           0      -10.792054   -1.917584    2.171494
     61          1           0      -12.406739   -2.031663    2.609227
     62          1           0      -13.437125   -2.849004    0.487584
     63          1           0      -11.846518   -3.223759    0.043879
     64          1           0      -12.808427   -2.246810   -1.142303
     65          1           0        8.840585   -0.291866    0.376676
     66          1           0      -10.344643   -2.030781   -0.401052
     67          1           0       10.538682    1.392723   -2.015633
     68          1           0       12.153433    2.184272   -1.576659
     69          1           0       12.189481    0.985281   -2.889022
     70          1           0      -11.217693    2.315874   -2.108150
     71          1           0       -9.981181    1.282802   -2.137447
     72          1           0      -10.115113    2.385752   -0.773341
     73          1           0       14.672626   -3.186628    0.245835
     74          1           0      -15.152178    1.749621    2.044761
     75          1           0       10.166817    2.604881   -0.200796
     76          1           0       -8.798966    0.617089   -0.072958
     77          1           0        9.043877    4.283601    0.325037
     78          1           0        7.208074    4.437109   -0.541636
     79          1           0        7.446748    3.991073    1.231194
     80          1           0       -8.532577   -3.122480   -0.401538
     81          1           0       -8.162341   -2.867586   -2.072818
     82          1           0       -6.573380   -3.013272   -1.242476
     83          1           0        7.117908    0.255821   -0.023740
     84          1           0       -6.336110    0.355116    0.099678
     85          1           0        5.642698    3.067219    0.363585
     86          1           0       -4.841827   -2.177067   -1.106917
     87          1           0        4.441785    0.232956   -0.388999
     88          1           0       -4.144015    0.665631   -0.103392
     89          1           0        3.754196    3.258196    1.078168
     90          1           0        1.847693    3.233942    0.967696
     91          1           0        3.008875    3.770199   -0.382987
     92          1           0       -2.539109   -3.142545   -0.173642
     93          1           0       -2.917262   -2.697159   -1.917389
     94          1           0       -1.306985   -2.447410   -1.282689
     95          1           0        2.509283   -0.263508   -0.646712
     96          1           0       -1.812567    1.130908   -0.004651
     97          1           0        0.308537    1.815281    0.211541
     98          1           0        0.396964   -1.149640   -0.528313
 ---------------------------------------------------------------------

 SCF Done:  E(RCAM-B3LYP) =  -1706.94241945     A.U. after   15 cycles

 Excitation energies and oscillator strengths:

 Excited State   1:      Singlet-A      2.1953 eV  564.77 nm  f=3.8191  <S**2>=0.000
     155 ->158         0.16707
     156 ->157         0.68475
 This state for optimization and/or second-order correction.
 Total Energy, E(TD-HF/TD-DFT) =  -1706.86174397
 Copying the excited state density for this state as the 1-particle RhoCI density.

 The electronic state is 1-A.
 Alpha  occ. eigenvalues --  -19.23000 -19.21677 -10.30020 -10.29683 -10.28554
 Alpha  occ. eigenvalues --  -10.27981 -10.27912 -10.27776 -10.27626 -10.27453
 Alpha  occ. eigenvalues --  -10.27288 -10.27270 -10.27187 -10.27073 -10.27070
 Alpha  occ. eigenvalues --  -10.26878 -10.26732 -10.26700 -10.26632 -10.26534
 Alpha  occ. eigenvalues --  -10.26534 -10.26530 -10.26306 -10.26200 -10.26122
 Alpha  occ. eigenvalues --  -10.26092 -10.26041 -10.25955 -10.25951 -10.25876
 Alpha  occ. eigenvalues --  -10.25746 -10.25690 -10.25523 -10.25467 -10.25392
 Alpha  occ. eigenvalues --  -10.25346 -10.25255 -10.25068 -10.24450 -10.24366
 Alpha  occ. eigenvalues --  -10.23698 -10.22852  -1.09498  -1.09237  -0.93998
 Alpha  occ. eigenvalues --   -0.93825  -0.92634  -0.91211  -0.90777  -0.89246
 Alpha  occ. eigenvalues --   -0.88242  -0.87329  -0.86297  -0.85699  -0.84907
 Alpha  occ. eigenvalues --   -0.82580  -0.81652  -0.80026  -0.79848  -0.77935
 Alpha  occ. eigenvalues --   -0.76922  -0.76647  -0.76232  -0.75893  -0.75812
 Alpha  occ. eigenvalues --   -0.75305  -0.74812  -0.74695  -0.73194  -0.70214
 Alpha  occ. eigenvalues --   -0.68894  -0.67290  -0.65942  -0.64792  -0.64285
 Alpha  occ. eigenvalues --   -0.63783  -0.62925  -0.60504  -0.60221  -0.59328
 Alpha  occ. eigenvalues --   -0.58861  -0.58812  -0.58488  -0.57588  -0.56111
 Alpha  occ. eigenvalues --   -0.55788  -0.54928  -0.54676  -0.54627  -0.53628
 Alpha  occ. eigenvalues --   -0.52619  -0.52484  -0.52050  -0.51720  -0.51321
 Alpha  occ. eigenvalues --   -0.50822  -0.50594  -0.49740  -0.49410  -0.49052
 Alpha  occ. eigenvalues --   -0.48731  -0.48536  -0.47881  -0.47688  -0.47479
 Alpha  occ. eigenvalues --   -0.47306  -0.47158  -0.46916  -0.46741  -0.46600
 Alpha  occ. eigenvalues --   -0.46060  -0.45673  -0.45150  -0.45048  -0.44671
 Alpha  occ. eigenvalues --   -0.44296  -0.44167  -0.44057  -0.43772  -0.43396
 Alpha  occ. eigenvalues --   -0.43203  -0.42813  -0.42322  -0.42184  -0.42014
 Alpha  occ. eigenvalues --   -0.41621  -0.41495  -0.41426  -0.40764  -0.40585
 Alpha  occ. eigenvalues --   -0.40251  -0.40022  -0.39653  -0.39186  -0.38891
 Alpha  occ. eigenvalues --   -0.38857  -0.38557  -0.38490  -0.38376  -0.37983
 Alpha  occ. eigenvalues --   -0.37420  -0.37136  -0.36665  -0.36012  -0.35888
 Alpha  occ. eigenvalues --   -0.35320  -0.34780  -0.33862  -0.32791  -0.31956
 Alpha  occ. eigenvalues --   -0.31727  -0.29755  -0.28101  -0.26316  -0.22752
 Alpha  occ. eigenvalues --   -0.19278
 Alpha virt. eigenvalues --   -0.05721  -0.01373   0.02538   0.05741   0.07672
 Alpha virt. eigenvalues --    0.08594   0.10041   0.10348   0.11349   0.11486
 Alpha virt. eigenvalues --    0.12182   0.12326   0.12695   0.12880   0.13501

 Mulliken charges:
               1
     1  O   -0.564691
     2  O   -0.548551
     3  C   -0.030177
     4  C   -0.010756
     5  C   -0.192766
     6  C   -0.167838
     7  C    0.199175
     8  C    0.159466
     9  C    0.095100
    10  C    0.076712
    11  C   -0.199135
    12  C   -0.222475
    13  C    0.031092
    14  C   -0.015264
    15  C   -0.315374
    16  C   -0.312060
    17  C   -0.289033
    18  C   -0.305951
    19  C   -0.093757
    20  C   -0.083395
    21  C   -0.359615
    22  C   -0.338944
    23  C   -0.106718
    24  C   -0.107327
    25  C    0.108030
    26  C    0.098175
    27  C   -0.378160
    28  C   -0.357467
    29  C   -0.084823
    30  C   -0.146012
    31  C   -0.120391
    32  C   -0.058190
    33  C   -0.089663
    34  C   -0.109916
    35  C    0.148314
    36  C    0.099927
    37  C   -0.377204
    38  C   -0.370918
    39  C   -0.151059
    40  C   -0.141143
    41  C   -0.065159
    42  C   -0.088432
    43  H    0.110866
    44  H    0.076367
    45  H    0.082812
    46  H    0.108667
    47  H    0.083989
    48  H    0.083591
    49  H    0.098909
    50  H    0.068689
    51  H    0.119883
    52  H    0.099377
    53  H    0.082205
    54  H    0.106009
    55  H    0.109958
    56  H    0.114164
    57  H    0.106565
    58  H    0.098368
    59  H    0.088898
    60  H    0.083264
    61  H    0.100034
    62  H    0.112681
    63  H    0.080659
    64  H    0.097080
    65  H    0.078926
    66  H    0.071505
    67  H    0.101121
    68  H    0.102612
    69  H    0.104737
    70  H    0.114049
    71  H    0.119407
    72  H    0.125606
    73  H    0.304757
    74  H    0.293451
    75  H    0.088483
    76  H    0.087838
    77  H    0.078229
    78  H    0.086852
    79  H    0.154244
    80  H    0.113136
    81  H    0.116890
    82  H    0.090006
    83  H    0.071374
    84  H    0.079568
    85  H    0.079953
    86  H    0.065047
    87  H    0.072484
    88  H    0.070561
    89  H    0.104177
    90  H    0.098598
    91  H    0.129427
    92  H    0.114504
    93  H    0.135388
    94  H    0.112827
    95  H    0.073138
    96  H    0.095420
    97  H    0.063114
    98  H    0.075908
 Sum of Mulliken charges =  -0.00000

 Dipole moment (field-independent basis, Debye):
    X=             -2.4928    Y=             -1.3941    Z=              2.1088  Tot=              3.5503
 Quadrupole moment (field-independent basis, Debye-Ang):
   XX=           -253.1251   YY=           -244.5098   ZZ=           -259.6976
   XY=              5.7656   XZ=             -5.4663   YZ=              1.8924

 Normal termination of Gaussian 16 at Mon Jul 15 03:56:49 2019.
