 Gaussian 16, Revision A.03,
 Gaussian 16:  ES64L-G16RevA.03 25-Dec-2016

 -------------------------------------
 # td=(NStates=1) CAM-B3LYP/6-31G(d,p)
 -------------------------------------

 --
 TD
 --
 Symbolic Z-matrix:
 Charge =  0 Multiplicity = 1

                         Standard orientation:
 ---------------------------------------------------------------------
 Center     Atomic      Atomic             Coordinates (Angstroms)
 Number     Number       Type             X           Y           Z
 ---------------------------------------------------------------------
      1          8           0       14.482491   -2.533373   -0.513133
      2          8           0      -14.734068    1.945503    0.760954
      3          6           0       11.093527   -1.397790    0.956191
      4          6           0      -12.385790   -1.030118    0.549635
      5          6           0       12.608157   -1.976344    0.945792
      6          6           0      -13.721046   -0.269766    0.634024
      7          6           0       13.101220   -2.003630   -0.361475
      8          6           0      -13.455915    1.255297    0.906177
      9          6           0       10.999608   -0.227554    0.071210
     10          6           0      -11.265943   -0.319965   -0.242371
     11          6           0       13.196113   -0.551440   -0.956430
     12          6           0      -12.576841    1.889542   -0.200806
     13          6           0       11.847865    0.146784   -0.814861
     14          6           0      -11.380290    1.103451   -0.607933
     15          6           0       10.787962   -1.092664    2.389971
     16          6           0       10.173938   -2.583720    0.612936
     17          6           0      -11.909258   -1.190191    1.948149
     18          6           0      -12.680079   -2.276481   -0.182527
     19          6           0        9.580914    0.447467    0.265109
     20          6           0       -9.938548   -1.061693   -0.460870
     21          6           0       11.669185    1.353918   -1.716484
     22          6           0      -10.252742    1.813557   -1.351881
     23          6           0        9.405003    1.763771    0.167886
     24          6           0       -8.746154   -0.567893   -0.314645
     25          6           0        8.052999    2.381090    0.324743
     26          6           0       -7.504880   -1.432224   -0.533840
     27          6           0        7.983920    3.841352    0.480684
     28          6           0       -7.582599   -2.787106   -0.996219
     29          6           0        6.905320    1.524847    0.049298
     30          6           0       -6.333948   -0.703243   -0.308549
     31          6           0        5.537872    2.092122    0.087180
     32          6           0       -5.039189   -1.218162   -0.373284
     33          6           0        4.472993    1.337206   -0.131495
     34          6           0       -3.903831   -0.354429   -0.272062
     35          6           0        3.148946    1.696750    0.014072
     36          6           0       -2.641302   -0.703359   -0.429658
     37          6           0        2.791284    3.129602    0.308265
     38          6           0       -2.337581   -2.144842   -0.731778
     39          6           0        2.160652    0.805063   -0.187603
     40          6           0       -1.599952    0.181375   -0.150707
     41          6           0        0.739517    1.009249   -0.018163
     42          6           0       -0.147532   -0.072167   -0.251233
     43          1           0       13.342710   -1.347919    1.614685
     44          1           0       12.523800   -3.179484    1.300250
     45          1           0      -14.457443   -0.517853    1.394019
     46          1           0      -14.321607   -0.411926   -0.360781
     47          1           0       12.478890   -2.786810   -1.163615
     48          1           0      -13.073568    1.337610    2.084631
     49          1           0       14.043820   -0.019906   -0.389297
     50          1           0       13.520756   -0.636508   -1.934044
     51          1           0      -13.112350    1.925680   -1.108710
     52          1           0      -12.222638    2.944198    0.124045
     53          1           0       11.120126   -1.933829    3.125304
     54          1           0        9.790000   -0.819341    2.712645
     55          1           0       11.317985   -0.199746    2.848618
     56          1           0       10.410336   -3.024224   -0.391080
     57          1           0       10.169945   -3.466320    1.149270
     58          1           0        9.131858   -2.318161    0.524602
     59          1           0      -11.566795   -0.174417    2.426840
     60          1           0      -11.142194   -2.134011    2.150511
     61          1           0      -12.815568   -1.695841    2.632971
     62          1           0      -13.670232   -2.763276    0.270086
     63          1           0      -11.819178   -3.083941   -0.153746
     64          1           0      -13.011549   -2.030731   -1.130364
     65          1           0        8.697963   -0.012733    0.341517
     66          1           0      -10.194992   -2.033682   -0.735206
     67          1           0       10.669676    1.701676   -1.877254
     68          1           0       12.273431    2.217264   -1.472226
     69          1           0       12.033918    1.095831   -2.780374
     70          1           0      -10.731439    2.368966   -2.218416
     71          1           0       -9.396452    1.229615   -1.822832
     72          1           0       -9.886346    2.455238   -0.743111
     73          1           0       14.262756   -3.567318   -0.232046
     74          1           0      -15.391902    1.512308    1.348539
     75          1           0       10.083036    2.444225    0.075484
     76          1           0       -8.559857    0.531381    0.169347
     77          1           0        9.058360    4.270550    0.686589
     78          1           0        7.464772    4.134255   -0.479084
     79          1           0        7.252637    4.176764    1.311355
     80          1           0       -8.514974   -3.376124   -0.270169
     81          1           0       -7.621979   -2.779260   -2.147599
     82          1           0       -6.586833   -3.331030   -1.117461
     83          1           0        7.051373    0.443060   -0.391184
     84          1           0       -6.186366    0.350939    0.056841
     85          1           0        5.555016    3.151514    0.628431
     86          1           0       -4.758319   -2.401126   -0.521732
     87          1           0        4.777203    0.139201   -0.241116
     88          1           0       -4.188763    0.674837   -0.106100
     89          1           0        3.143555    3.248533    1.372734
     90          1           0        1.732462    3.522600   -0.105221
     91          1           0        3.413368    3.749663   -0.198949
     92          1           0       -2.001872   -2.845841    0.502248
     93          1           0       -3.428427   -2.626756   -1.342716
     94          1           0       -1.140083   -2.214225   -1.581921
     95          1           0        2.606039   -0.242977   -0.570561
     96          1           0       -1.786037    1.202897    0.098375
     97          1           0        0.301635    1.942116    0.333039
     98          1           0        0.251507   -0.938613   -0.377324
 ---------------------------------------------------------------------

 SCF Done:  E(RCAM-B3LYP) =  -1706.77015485     A.U. after   15 cycles

 Excitation energies and oscillator strengths:

 Excited State   1:      Singlet-A      2.2165 eV  559.38 nm  f=3.4782  <S**2>=0.000
     155 ->158        -0.15180
     156 ->157         0.68948
 This state for optimization and/or second-order correction.
 Total Energy, E(TD-HF/TD-DFT) =  -1706.68870175
 Copying the excited state density for this state as the 1-particle RhoCI density.

 The electronic state is 1-A.
 Alpha  occ. eigenvalues --  -19.21603 -19.21083 -10.32657 -10.32550 -10.31414
 Alpha  occ. eigenvalues --  -10.28673 -10.28212 -10.28120 -10.27943 -10.27915
 Alpha  occ. eigenvalues --  -10.27476 -10.27441 -10.27355 -10.27290 -10.27270
 Alpha  occ. eigenvalues --  -10.27164 -10.27140 -10.27114 -10.26796 -10.26782
 Alpha  occ. eigenvalues --  -10.26729 -10.26563 -10.26536 -10.26524 -10.26477
 Alpha  occ. eigenvalues --  -10.26461 -10.26226 -10.26187 -10.26136 -10.26025
 Alpha  occ. eigenvalues --  -10.26009 -10.25880 -10.25549 -10.25539 -10.25520
 Alpha  occ. eigenvalues --  -10.25283 -10.25158 -10.24997 -10.24995 -10.24604
 Alpha  occ. eigenvalues --  -10.24298 -10.24284  -1.07958  -1.05817  -0.94408
 Alpha  occ. eigenvalues --   -0.93160  -0.92549  -0.92126  -0.90423  -0.90158
 Alpha  occ. eigenvalues --   -0.87377  -0.87208  -0.86964  -0.85224  -0.84583
 Alpha  occ. eigenvalues --   -0.83106  -0.81611  -0.80928  -0.79866  -0.77626
 Alpha  occ. eigenvalues --   -0.77145  -0.76491  -0.76313  -0.75847  -0.75736
 Alpha  occ. eigenvalues --   -0.75475  -0.74113  -0.72999  -0.72490  -0.69840
 Alpha  occ. eigenvalues --   -0.68652  -0.67249  -0.66002  -0.65648  -0.63228
 Alpha  occ. eigenvalues --   -0.62984  -0.62490  -0.62266  -0.59959  -0.58820
 Alpha  occ. eigenvalues --   -0.58325  -0.57694  -0.57289  -0.56595  -0.55422
 Alpha  occ. eigenvalues --   -0.55260  -0.54532  -0.54329  -0.53952  -0.52889
 Alpha  occ. eigenvalues --   -0.52626  -0.52426  -0.51993  -0.51363  -0.50768
 Alpha  occ. eigenvalues --   -0.50218  -0.49952  -0.49830  -0.49573  -0.49427
 Alpha  occ. eigenvalues --   -0.48936  -0.48664  -0.48595  -0.48473  -0.48128
 Alpha  occ. eigenvalues --   -0.47659  -0.47191  -0.46257  -0.46056  -0.45932
 Alpha  occ. eigenvalues --   -0.45618  -0.45212  -0.45108  -0.45004  -0.44737
 Alpha  occ. eigenvalues --   -0.44058  -0.43806  -0.43601  -0.43362  -0.42927
 Alpha  occ. eigenvalues --   -0.42723  -0.42590  -0.42469  -0.42229  -0.42076
 Alpha  occ. eigenvalues --   -0.41563  -0.41331  -0.41252  -0.40843  -0.40383
 Alpha  occ. eigenvalues --   -0.40226  -0.40117  -0.39962  -0.39646  -0.39039
 Alpha  occ. eigenvalues --   -0.39032  -0.38605  -0.38527  -0.37676  -0.37242
 Alpha  occ. eigenvalues --   -0.37098  -0.36582  -0.35841  -0.35693  -0.35559
 Alpha  occ. eigenvalues --   -0.35328  -0.34663  -0.34508  -0.32155  -0.31922
 Alpha  occ. eigenvalues --   -0.31419  -0.30266  -0.28313  -0.25725  -0.23284
 Alpha  occ. eigenvalues --   -0.19286
 Alpha virt. eigenvalues --   -0.05692  -0.00943   0.02953   0.05569   0.07447
 Alpha virt. eigenvalues --    0.07496   0.08733   0.09280   0.10018   0.10912
 Alpha virt. eigenvalues --    0.11270   0.11352   0.11574   0.11975   0.12605

 Mulliken charges:
               1
     1  O   -0.565736
     2  O   -0.564825
     3  C   -0.011139
     4  C    0.016977
     5  C   -0.156280
     6  C   -0.189008
     7  C    0.153366
     8  C    0.160182
     9  C    0.080471
    10  C    0.009474
    11  C   -0.218416
    12  C   -0.200621
    13  C    0.060867
    14  C    0.017042
    15  C   -0.304609
    16  C   -0.314918
    17  C   -0.270603
    18  C   -0.301651
    19  C   -0.088021
    20  C   -0.104173
    21  C   -0.375956
    22  C   -0.355883
    23  C   -0.062374
    24  C   -0.082554
    25  C    0.051342
    26  C    0.105582
    27  C   -0.381598
    28  C   -0.365984
    29  C   -0.137915
    30  C   -0.122204
    31  C   -0.097431
    32  C   -0.102115
    33  C   -0.113636
    34  C   -0.112076
    35  C    0.136226
    36  C    0.152306
    37  C   -0.372584
    38  C   -0.286184
    39  C   -0.144007
    40  C   -0.136007
    41  C   -0.098753
    42  C   -0.045943
    43  H    0.106839
    44  H    0.050147
    45  H    0.088981
    46  H    0.089329
    47  H    0.050526
    48  H    0.065084
    49  H    0.112412
    50  H    0.120165
    51  H    0.140473
    52  H    0.104082
    53  H    0.089686
    54  H    0.110164
    55  H    0.091250
    56  H    0.090927
    57  H    0.117395
    58  H    0.105593
    59  H    0.107530
    60  H    0.081275
    61  H    0.061862
    62  H    0.075406
    63  H    0.087913
    64  H    0.124347
    65  H    0.078440
    66  H    0.081306
    67  H    0.127596
    68  H    0.120280
    69  H    0.091822
    70  H    0.092217
    71  H    0.126746
    72  H    0.129024
    73  H    0.294362
    74  H    0.302398
    75  H    0.065788
    76  H    0.093743
    77  H    0.108203
    78  H    0.143909
    79  H    0.120946
    80  H    0.098794
    81  H    0.129741
    82  H    0.112221
    83  H    0.091562
    84  H    0.086087
    85  H    0.078631
    86  H    0.078078
    87  H    0.073121
    88  H    0.078260
    89  H    0.120688
    90  H    0.104787
    91  H    0.130399
    92  H    0.063907
    93  H    0.079969
    94  H    0.048224
    95  H    0.072482
    96  H    0.076534
    97  H    0.095375
    98  H    0.072343
 Sum of Mulliken charges =  -0.00000

 Dipole moment (field-independent basis, Debye):
    X=             -0.7752    Y=             -0.0732    Z=              1.1058  Tot=              1.3524
 Quadrupole moment (field-independent basis, Debye-Ang):
   XX=           -285.1898   YY=           -244.5895   ZZ=           -264.4829
   XY=             20.5442   XZ=             -3.5517   YZ=              2.3852

 Normal termination of Gaussian 16 at Mon Jul 15 19:23:27 2019.
