 Gaussian 16, Revision A.03,
 Gaussian 16:  ES64L-G16RevA.03 25-Dec-2016

 -------------------------------------
 # td=(NStates=1) CAM-B3LYP/6-31G(d,p)
 -------------------------------------

 --
 TD
 --
 Symbolic Z-matrix:
 Charge =  0 Multiplicity = 1

                         Standard orientation:
 ---------------------------------------------------------------------
 Center     Atomic      Atomic             Coordinates (Angstroms)
 Number     Number       Type             X           Y           Z
 ---------------------------------------------------------------------
      1          8           0       14.710566   -2.363242   -0.249522
      2          8           0      -14.682681    1.770578    1.190948
      3          6           0       11.190096   -1.472210    1.020894
      4          6           0      -12.301585   -1.053917    0.545500
      5          6           0       12.643155   -1.911610    1.129240
      6          6           0      -13.628657   -0.421666    0.534088
      7          6           0       13.312436   -1.952530   -0.323926
      8          6           0      -13.464551    1.139439    0.990963
      9          6           0       10.944289   -0.279362   -0.042612
     10          6           0      -11.273048   -0.195007   -0.310827
     11          6           0       13.234330   -0.610339   -0.908705
     12          6           0      -12.703731    1.810916   -0.094502
     13          6           0       11.953309    0.106795   -0.907729
     14          6           0      -11.406648    1.133032   -0.563975
     15          6           0       10.582726   -1.138600    2.383927
     16          6           0       10.304524   -2.722639    0.432951
     17          6           0      -11.702424   -1.537630    1.887281
     18          6           0      -12.612961   -2.382209   -0.279369
     19          6           0        9.578820    0.349635    0.117746
     20          6           0       -9.979204   -0.877057   -0.635978
     21          6           0       11.654711    1.169146   -1.904895
     22          6           0      -10.508168    2.008738   -1.314191
     23          6           0        9.284664    1.622779    0.042693
     24          6           0       -8.756738   -0.511790   -0.387908
     25          6           0        8.012920    2.324764    0.219778
     26          6           0       -7.545856   -1.290429   -0.427303
     27          6           0        8.021602    3.797220    0.429107
     28          6           0       -7.687112   -2.734504   -0.731021
     29          6           0        6.821026    1.622536    0.102718
     30          6           0       -6.314544   -0.628160   -0.470486
     31          6           0        5.570889    2.155214    0.281661
     32          6           0       -5.048731   -1.060216   -0.518658
     33          6           0        4.424482    1.379956    0.059037
     34          6           0       -3.933302   -0.287288   -0.383498
     35          6           0        3.060764    1.789796    0.046830
     36          6           0       -2.565105   -0.734540   -0.488364
     37          6           0        2.979852    3.274174    0.426128
     38          6           0       -2.424299   -2.079904   -1.068653
     39          6           0        2.069163    0.854248    0.043288
     40          6           0       -1.552450    0.246274   -0.274080
     41          6           0        0.672668    0.934898   -0.026434
     42          6           0       -0.250566    0.023896   -0.316017
     43          1           0       13.164282   -1.238650    1.744110
     44          1           0       12.642471   -3.012752    1.468331
     45          1           0      -14.363966   -1.000827    1.141471
     46          1           0      -14.066341   -0.392653   -0.493867
     47          1           0       12.705015   -2.755008   -0.837040
     48          1           0      -13.004935    1.012682    2.004407
     49          1           0       14.117076   -0.117738   -0.518584
     50          1           0       13.504431   -0.917895   -1.965211
     51          1           0      -13.411397    1.925832   -1.041119
     52          1           0      -12.502255    2.840508    0.053812
     53          1           0       10.645132   -2.089224    3.100305
     54          1           0        9.519370   -0.963977    2.457837
     55          1           0       11.089183   -0.185593    2.683607
     56          1           0       10.956721   -3.180131   -0.470101
     57          1           0       10.498123   -3.596498    0.943709
     58          1           0        9.345514   -2.334224    0.214909
     59          1           0      -11.771831   -0.769339    2.700563
     60          1           0      -10.813203   -2.150439    1.793690
     61          1           0      -12.485580   -2.187689    2.424340
     62          1           0      -13.469747   -2.812873    0.002959
     63          1           0      -11.648611   -2.973572   -0.141560
     64          1           0      -12.884681   -2.242065   -1.347221
     65          1           0        8.858471   -0.449548    0.308203
     66          1           0      -10.010866   -1.919923   -0.807130
     67          1           0       10.602684    1.186930   -2.497647
     68          1           0       11.776230    2.208546   -1.367685
     69          1           0       12.318762    1.037892   -2.687055
     70          1           0      -11.084010    2.632254   -2.017894
     71          1           0       -9.701423    1.399410   -1.728200
     72          1           0      -10.015972    2.734012   -0.784581
     73          1           0       14.704996   -2.972697    0.491636
     74          1           0      -15.253158    1.480583    1.882268
     75          1           0       10.082774    2.299363   -0.184640
     76          1           0       -8.706428    0.550258    0.090793
     77          1           0        9.122051    4.258660    0.492572
     78          1           0        7.465439    4.368411   -0.180989
     79          1           0        7.472866    4.095847    1.377293
     80          1           0       -8.359062   -3.081625    0.171164
     81          1           0       -8.192121   -2.924773   -1.703988
     82          1           0       -6.756165   -3.301331   -0.878517
     83          1           0        6.799752    0.358927   -0.027342
     84          1           0       -6.285840    0.469634   -0.315468
     85          1           0        5.389108    3.186171    0.685050
     86          1           0       -4.956801   -2.191685   -0.725107
     87          1           0        4.644054    0.261002    0.023903
     88          1           0       -4.153146    0.752636   -0.034242
     89          1           0        3.179960    3.611874    1.439888
     90          1           0        1.882048    3.993412    0.115630
     91          1           0        3.789438    3.790804   -0.145417
     92          1           0       -3.081987   -2.886507   -0.505914
     93          1           0       -2.983093   -2.033391   -2.106062
     94          1           0       -1.497934   -2.168497   -1.288132
     95          1           0        2.252916   -0.146309   -0.498635
     96          1           0       -1.760970    1.216154    0.152432
     97          1           0        0.279716    1.733801    0.475466
     98          1           0        0.249378   -0.837955   -0.560591
 ---------------------------------------------------------------------

 SCF Done:  E(RCAM-B3LYP) =  -1706.97466675     A.U. after   15 cycles

 Excitation energies and oscillator strengths:

 Excited State   1:      Singlet-A      2.1573 eV  574.72 nm  f=3.7615  <S**2>=0.000
     155 ->158         0.15243
     156 ->157         0.69091
 This state for optimization and/or second-order correction.
 Total Energy, E(TD-HF/TD-DFT) =  -1706.89538796
 Copying the excited state density for this state as the 1-particle RhoCI density.

 The electronic state is 1-A.
 Alpha  occ. eigenvalues --  -19.21270 -19.20234 -10.30773 -10.30670 -10.28338
 Alpha  occ. eigenvalues --  -10.28285 -10.27960 -10.27941 -10.27699 -10.27695
 Alpha  occ. eigenvalues --  -10.27555 -10.27072 -10.26849 -10.26843 -10.26740
 Alpha  occ. eigenvalues --  -10.26589 -10.26489 -10.26468 -10.26453 -10.26336
 Alpha  occ. eigenvalues --  -10.26299 -10.26196 -10.26094 -10.26088 -10.26081
 Alpha  occ. eigenvalues --  -10.25899 -10.25838 -10.25789 -10.25695 -10.25612
 Alpha  occ. eigenvalues --  -10.25607 -10.25482 -10.25366 -10.25346 -10.25024
 Alpha  occ. eigenvalues --  -10.24879 -10.24858 -10.24800 -10.24618 -10.24589
 Alpha  occ. eigenvalues --  -10.23968 -10.23910  -1.09837  -1.08847  -0.93491
 Alpha  occ. eigenvalues --   -0.93133  -0.92817  -0.92026  -0.91398  -0.90211
 Alpha  occ. eigenvalues --   -0.88821  -0.87416  -0.86825  -0.86256  -0.85406
 Alpha  occ. eigenvalues --   -0.83332  -0.82646  -0.80732  -0.80429  -0.79500
 Alpha  occ. eigenvalues --   -0.76625  -0.76439  -0.76104  -0.76063  -0.75702
 Alpha  occ. eigenvalues --   -0.75336  -0.74848  -0.74826  -0.73711  -0.71198
 Alpha  occ. eigenvalues --   -0.69435  -0.67895  -0.66503  -0.65014  -0.64227
 Alpha  occ. eigenvalues --   -0.63922  -0.63287  -0.62439  -0.60506  -0.60057
 Alpha  occ. eigenvalues --   -0.59186  -0.58771  -0.58535  -0.58327  -0.56711
 Alpha  occ. eigenvalues --   -0.56147  -0.55677  -0.54595  -0.54305  -0.54104
 Alpha  occ. eigenvalues --   -0.53519  -0.52773  -0.52007  -0.51858  -0.51100
 Alpha  occ. eigenvalues --   -0.50808  -0.50610  -0.50182  -0.49845  -0.49756
 Alpha  occ. eigenvalues --   -0.49066  -0.48821  -0.48416  -0.48376  -0.47982
 Alpha  occ. eigenvalues --   -0.47771  -0.47618  -0.46980  -0.46934  -0.46798
 Alpha  occ. eigenvalues --   -0.46655  -0.46079  -0.45570  -0.45310  -0.45059
 Alpha  occ. eigenvalues --   -0.44981  -0.44213  -0.44109  -0.43963  -0.43733
 Alpha  occ. eigenvalues --   -0.43350  -0.42848  -0.42534  -0.42298  -0.42136
 Alpha  occ. eigenvalues --   -0.41860  -0.41726  -0.41326  -0.41160  -0.40929
 Alpha  occ. eigenvalues --   -0.40572  -0.40461  -0.40025  -0.39562  -0.39382
 Alpha  occ. eigenvalues --   -0.38706  -0.38615  -0.38141  -0.37809  -0.37760
 Alpha  occ. eigenvalues --   -0.37716  -0.36701  -0.36497  -0.36295  -0.36030
 Alpha  occ. eigenvalues --   -0.35608  -0.35021  -0.34505  -0.33046  -0.31850
 Alpha  occ. eigenvalues --   -0.29925  -0.29231  -0.27893  -0.26474  -0.23514
 Alpha  occ. eigenvalues --   -0.19701
 Alpha virt. eigenvalues --   -0.06484  -0.01340   0.02658   0.05633   0.07523
 Alpha virt. eigenvalues --    0.09282   0.11214   0.11259   0.11441   0.12442
 Alpha virt. eigenvalues --    0.12719   0.13010   0.13174   0.13343   0.13475

 Mulliken charges:
               1
     1  O   -0.565560
     2  O   -0.567804
     3  C   -0.008827
     4  C    0.004678
     5  C   -0.217923
     6  C   -0.217995
     7  C    0.160149
     8  C    0.196801
     9  C    0.043115
    10  C    0.064687
    11  C   -0.224824
    12  C   -0.221754
    13  C    0.054451
    14  C    0.073366
    15  C   -0.290674
    16  C   -0.303768
    17  C   -0.303584
    18  C   -0.294142
    19  C   -0.089611
    20  C   -0.156291
    21  C   -0.354290
    22  C   -0.379089
    23  C   -0.090582
    24  C   -0.068017
    25  C    0.087220
    26  C    0.080330
    27  C   -0.384020
    28  C   -0.372996
    29  C   -0.110255
    30  C   -0.115247
    31  C   -0.074449
    32  C   -0.050731
    33  C   -0.120422
    34  C   -0.124632
    35  C    0.133741
    36  C    0.093053
    37  C   -0.367039
    38  C   -0.348823
    39  C   -0.149090
    40  C   -0.126700
    41  C   -0.100201
    42  C   -0.013484
    43  H    0.105505
    44  H    0.071684
    45  H    0.074162
    46  H    0.101035
    47  H    0.082401
    48  H    0.066747
    49  H    0.129470
    50  H    0.107830
    51  H    0.102067
    52  H    0.107095
    53  H    0.080468
    54  H    0.110026
    55  H    0.102067
    56  H    0.068198
    57  H    0.110043
    58  H    0.111162
    59  H    0.103533
    60  H    0.117599
    61  H    0.086875
    62  H    0.107183
    63  H    0.081858
    64  H    0.098483
    65  H    0.078542
    66  H    0.065724
    67  H    0.112037
    68  H    0.107109
    69  H    0.110006
    70  H    0.106601
    71  H    0.122627
    72  H    0.127746
    73  H    0.308535
    74  H    0.304528
    75  H    0.071842
    76  H    0.077705
    77  H    0.098787
    78  H    0.140460
    79  H    0.114773
    80  H    0.108466
    81  H    0.131184
    82  H    0.109738
    83  H    0.069191
    84  H    0.068320
    85  H    0.087632
    86  H    0.058717
    87  H    0.079460
    88  H    0.080323
    89  H    0.135615
    90  H    0.056918
    91  H    0.122236
    92  H    0.122324
    93  H    0.117697
    94  H    0.110370
    95  H    0.066214
    96  H    0.089723
    97  H    0.065844
    98  H    0.068746
 Sum of Mulliken charges =  -0.00000

 Dipole moment (field-independent basis, Debye):
    X=             -1.8836    Y=             -1.0005    Z=              2.0224  Tot=              2.9393
 Quadrupole moment (field-independent basis, Debye-Ang):
   XX=           -279.4771   YY=           -244.1907   ZZ=           -261.3404
   XY=             17.0466   XZ=             -1.9323   YZ=              0.2637

 Normal termination of Gaussian 16 at Tue Jul  9 13:42:27 2019.
