 Gaussian 16, Revision A.03,
 Gaussian 16:  ES64L-G16RevA.03 25-Dec-2016

 -------------------------------------
 # td=(NStates=1) CAM-B3LYP/6-31G(d,p)
 -------------------------------------

 --
 TD
 --
 Symbolic Z-matrix:
 Charge =  0 Multiplicity = 1

                         Standard orientation:
 ---------------------------------------------------------------------
 Center     Atomic      Atomic             Coordinates (Angstroms)
 Number     Number       Type             X           Y           Z
 ---------------------------------------------------------------------
      1          8           0       14.649546   -2.365078   -0.466976
      2          8           0      -14.783634    1.792041    0.897033
      3          6           0       11.218377   -1.449731    1.005550
      4          6           0      -12.425722   -1.166068    0.494999
      5          6           0       12.709280   -1.937709    0.937689
      6          6           0      -13.773633   -0.300351    0.542805
      7          6           0       13.239387   -1.983488   -0.454047
      8          6           0      -13.595465    1.139463    0.937306
      9          6           0       10.878063   -0.278204    0.058110
     10          6           0      -11.263935   -0.323749   -0.216285
     11          6           0       13.162248   -0.603143   -1.021522
     12          6           0      -12.734573    1.801767   -0.150466
     13          6           0       11.837759    0.047621   -0.863630
     14          6           0      -11.505795    0.977549   -0.647115
     15          6           0       10.893839   -1.056461    2.536581
     16          6           0       10.301751   -2.601424    0.549624
     17          6           0      -11.907310   -1.409589    1.897489
     18          6           0      -12.636213   -2.438413   -0.343146
     19          6           0        9.636155    0.335030    0.124435
     20          6           0      -10.010306   -1.026163   -0.406871
     21          6           0       11.617110    1.104375   -2.018157
     22          6           0      -10.604203    1.768030   -1.449768
     23          6           0        9.383437    1.670906    0.070637
     24          6           0       -8.775976   -0.448842   -0.312477
     25          6           0        8.130154    2.305623    0.247622
     26          6           0       -7.539156   -1.140513   -0.420538
     27          6           0        8.129759    3.792582    0.389946
     28          6           0       -7.603654   -2.644205   -0.836439
     29          6           0        6.994405    1.587144    0.224557
     30          6           0       -6.370934   -0.409849   -0.388669
     31          6           0        5.593327    2.010504    0.325438
     32          6           0       -5.065048   -0.918677   -0.548391
     33          6           0        4.529332    1.138969    0.044947
     34          6           0       -3.967791   -0.122075   -0.363541
     35          6           0        3.222581    1.674325    0.139734
     36          6           0       -2.634154   -0.568854   -0.415046
     37          6           0        2.967047    3.115168    0.508039
     38          6           0       -2.317367   -2.041879   -0.701279
     39          6           0        2.147416    0.683232   -0.118460
     40          6           0       -1.632814    0.292391   -0.086706
     41          6           0        0.769081    1.046555   -0.042612
     42          6           0       -0.170605    0.113303   -0.186705
     43          1           0       13.323554   -1.164460    1.655645
     44          1           0       12.835459   -2.924522    1.430685
     45          1           0      -14.410719   -0.991423    1.148233
     46          1           0      -14.066702   -0.449096   -0.452780
     47          1           0       12.737393   -2.775267   -0.998966
     48          1           0      -12.964956    1.233374    1.969244
     49          1           0       14.020247   -0.031341   -0.829853
     50          1           0       13.375529   -0.751042   -2.030663
     51          1           0      -13.475233    1.698494   -1.034591
     52          1           0      -12.348041    2.828223    0.036801
     53          1           0       11.008074   -1.784123    3.160058
     54          1           0        9.713002   -1.007295    2.429192
     55          1           0       11.470297   -0.040973    2.728086
     56          1           0       10.283677   -2.818928   -0.522623
     57          1           0       10.391346   -3.490349    1.063308
     58          1           0        9.294501   -2.312134    0.673633
     59          1           0      -11.753017   -0.533200    2.386187
     60          1           0      -11.085774   -1.884473    1.916326
     61          1           0      -12.831506   -1.849810    2.388162
     62          1           0      -13.631501   -2.793952    0.130865
     63          1           0      -11.753188   -2.998012   -0.529115
     64          1           0      -13.045656   -2.109770   -1.383636
     65          1           0        8.726602   -0.239043    0.561478
     66          1           0       -9.941622   -2.230742   -0.330233
     67          1           0       10.391819    1.279130   -2.352201
     68          1           0       11.811356    2.208678   -1.686720
     69          1           0       11.992454    0.970397   -3.107367
     70          1           0      -11.027570    2.496870   -2.019837
     71          1           0       -9.980848    1.108818   -2.151113
     72          1           0       -9.893170    2.301918   -0.701453
     73          1           0       14.837398   -3.142447    0.229556
     74          1           0      -15.180298    1.403046    1.645526
     75          1           0       10.136486    2.254664    0.133693
     76          1           0       -8.952678    0.678599   -0.028289
     77          1           0        8.910262    4.299507    0.246154
     78          1           0        7.543386    4.367719   -0.349422
     79          1           0        7.755224    4.200601    1.324775
     80          1           0       -7.999376   -3.137416    0.135052
     81          1           0       -8.132014   -2.676411   -1.713362
     82          1           0       -6.761794   -3.280090   -1.050217
     83          1           0        6.837716    0.500320   -0.281742
     84          1           0       -6.340362    0.659642   -0.051767
     85          1           0        5.459515    3.177562    0.552772
     86          1           0       -4.977623   -2.027746   -0.839174
     87          1           0        4.579860    0.009918   -0.114543
     88          1           0       -4.122079    0.924886   -0.262089
     89          1           0        3.492744    3.513336    1.333155
     90          1           0        1.938370    3.320182    0.847271
     91          1           0        3.360596    3.749180   -0.420976
     92          1           0       -2.415818   -2.747280    0.264338
     93          1           0       -2.864229   -2.582918   -1.550836
     94          1           0       -1.219321   -2.188234   -0.870348
     95          1           0        2.341468   -0.357451   -0.518813
     96          1           0       -1.826977    1.236419    0.295182
     97          1           0        0.375660    1.994402    0.432772
     98          1           0        0.175655   -0.922541   -0.637696
 ---------------------------------------------------------------------

 SCF Done:  E(RCAM-B3LYP) =  -1706.95105386     A.U. after   15 cycles

 Excitation energies and oscillator strengths:

 Excited State   1:      Singlet-A      2.2388 eV  553.80 nm  f=3.7737  <S**2>=0.000
     155 ->158        -0.18484
     156 ->157         0.67726
 This state for optimization and/or second-order correction.
 Total Energy, E(TD-HF/TD-DFT) =  -1706.86877940
 Copying the excited state density for this state as the 1-particle RhoCI density.

 The electronic state is 1-A.
 Alpha  occ. eigenvalues --  -19.22052 -19.20634 -10.31741 -10.29542 -10.28336
 Alpha  occ. eigenvalues --  -10.27901 -10.27724 -10.27693 -10.27553 -10.27521
 Alpha  occ. eigenvalues --  -10.27461 -10.27354 -10.27162 -10.27130 -10.27039
 Alpha  occ. eigenvalues --  -10.26717 -10.26598 -10.26580 -10.26319 -10.26288
 Alpha  occ. eigenvalues --  -10.26267 -10.26220 -10.26190 -10.26166 -10.26032
 Alpha  occ. eigenvalues --  -10.25977 -10.25968 -10.25949 -10.25902 -10.25791
 Alpha  occ. eigenvalues --  -10.25634 -10.25629 -10.25601 -10.25462 -10.25290
 Alpha  occ. eigenvalues --  -10.24863 -10.24710 -10.24021 -10.23886 -10.23654
 Alpha  occ. eigenvalues --  -10.23293 -10.22085  -1.13890  -1.06024  -0.93547
 Alpha  occ. eigenvalues --   -0.92765  -0.91839  -0.91311  -0.90463  -0.89742
 Alpha  occ. eigenvalues --   -0.87425  -0.86998  -0.86181  -0.85472  -0.84870
 Alpha  occ. eigenvalues --   -0.82953  -0.81561  -0.80084  -0.79940  -0.77608
 Alpha  occ. eigenvalues --   -0.77557  -0.77127  -0.76538  -0.76448  -0.75955
 Alpha  occ. eigenvalues --   -0.75508  -0.74717  -0.74491  -0.73193  -0.70521
 Alpha  occ. eigenvalues --   -0.68988  -0.67124  -0.65722  -0.65092  -0.63800
 Alpha  occ. eigenvalues --   -0.62846  -0.61937  -0.61043  -0.60458  -0.59785
 Alpha  occ. eigenvalues --   -0.59450  -0.59274  -0.58288  -0.57715  -0.56236
 Alpha  occ. eigenvalues --   -0.55777  -0.55490  -0.55037  -0.53925  -0.53422
 Alpha  occ. eigenvalues --   -0.53029  -0.52321  -0.51955  -0.51466  -0.50865
 Alpha  occ. eigenvalues --   -0.50605  -0.50519  -0.50157  -0.49833  -0.49287
 Alpha  occ. eigenvalues --   -0.49149  -0.48509  -0.48297  -0.48001  -0.47734
 Alpha  occ. eigenvalues --   -0.47605  -0.47324  -0.46951  -0.46872  -0.46710
 Alpha  occ. eigenvalues --   -0.45816  -0.45739  -0.45482  -0.45405  -0.45010
 Alpha  occ. eigenvalues --   -0.44807  -0.44124  -0.43831  -0.43663  -0.43601
 Alpha  occ. eigenvalues --   -0.43489  -0.42702  -0.42279  -0.42101  -0.41869
 Alpha  occ. eigenvalues --   -0.41742  -0.41658  -0.41461  -0.40639  -0.40446
 Alpha  occ. eigenvalues --   -0.40286  -0.40118  -0.39780  -0.39541  -0.39121
 Alpha  occ. eigenvalues --   -0.38811  -0.38386  -0.38313  -0.38100  -0.37823
 Alpha  occ. eigenvalues --   -0.37067  -0.36818  -0.36796  -0.36480  -0.35713
 Alpha  occ. eigenvalues --   -0.34976  -0.34228  -0.33928  -0.32856  -0.32119
 Alpha  occ. eigenvalues --   -0.31595  -0.30162  -0.27767  -0.25478  -0.22362
 Alpha  occ. eigenvalues --   -0.19349
 Alpha virt. eigenvalues --   -0.05325  -0.01622   0.02138   0.05539   0.08534
 Alpha virt. eigenvalues --    0.10071   0.11300   0.11872   0.12134   0.12277
 Alpha virt. eigenvalues --    0.12608   0.12794   0.13153   0.13396   0.13957

 Mulliken charges:
               1
     1  O   -0.595133
     2  O   -0.504893
     3  C   -0.049913
     4  C   -0.046977
     5  C   -0.188025
     6  C   -0.203149
     7  C    0.191644
     8  C    0.159057
     9  C    0.107356
    10  C    0.059519
    11  C   -0.220829
    12  C   -0.221575
    13  C    0.039437
    14  C    0.038714
    15  C   -0.279484
    16  C   -0.315165
    17  C   -0.257634
    18  C   -0.297192
    19  C   -0.116788
    20  C   -0.140590
    21  C   -0.365295
    22  C   -0.371608
    23  C   -0.069463
    24  C   -0.086458
    25  C    0.103771
    26  C    0.057850
    27  C   -0.379065
    28  C   -0.368321
    29  C   -0.145410
    30  C   -0.114503
    31  C   -0.109573
    32  C   -0.072128
    33  C   -0.108779
    34  C   -0.121114
    35  C    0.105571
    36  C    0.139625
    37  C   -0.368521
    38  C   -0.370910
    39  C   -0.147969
    40  C   -0.139019
    41  C   -0.068625
    42  C   -0.084864
    43  H    0.073815
    44  H    0.072719
    45  H    0.079133
    46  H    0.110340
    47  H    0.093286
    48  H    0.056369
    49  H    0.134852
    50  H    0.119210
    51  H    0.114051
    52  H    0.108235
    53  H    0.113779
    54  H    0.080671
    55  H    0.102489
    56  H    0.108239
    57  H    0.102823
    58  H    0.101871
    59  H    0.107418
    60  H    0.105470
    61  H    0.071559
    62  H    0.090273
    63  H    0.117643
    64  H    0.094849
    65  H    0.087288
    66  H    0.068279
    67  H    0.080541
    68  H    0.108823
    69  H    0.107567
    70  H    0.116087
    71  H    0.120608
    72  H    0.102690
    73  H    0.301157
    74  H    0.303054
    75  H    0.063844
    76  H    0.085418
    77  H    0.116771
    78  H    0.111452
    79  H    0.119707
    80  H    0.115972
    81  H    0.141482
    82  H    0.112757
    83  H    0.078496
    84  H    0.078645
    85  H    0.083980
    86  H    0.081713
    87  H    0.099615
    88  H    0.085020
    89  H    0.130755
    90  H    0.109459
    91  H    0.116591
    92  H    0.107331
    93  H    0.110693
    94  H    0.108119
    95  H    0.092873
    96  H    0.073802
    97  H    0.084120
    98  H    0.062628
 Sum of Mulliken charges =  -0.00000

 Dipole moment (field-independent basis, Debye):
    X=             -1.0847    Y=             -0.8779    Z=              1.8358  Tot=              2.3060
 Quadrupole moment (field-independent basis, Debye-Ang):
   XX=           -286.9263   YY=           -239.3895   ZZ=           -261.8166
   XY=             10.5023   XZ=             -0.1400   YZ=              1.5015

 Normal termination of Gaussian 16 at Wed Jul 17 14:54:16 2019.
