 Gaussian 16, Revision A.03,
 Gaussian 16:  ES64L-G16RevA.03 25-Dec-2016

 -------------------------------------
 # td=(NStates=1) CAM-B3LYP/6-31G(d,p)
 -------------------------------------

 --
 TD
 --
 Symbolic Z-matrix:
 Charge =  0 Multiplicity = 1

                         Standard orientation:
 ---------------------------------------------------------------------
 Center     Atomic      Atomic             Coordinates (Angstroms)
 Number     Number       Type             X           Y           Z
 ---------------------------------------------------------------------
      1          8           0       14.710425   -2.189735    0.051530
      2          8           0      -14.771281    1.902645    1.008085
      3          6           0       11.156861   -1.502961    0.975576
      4          6           0      -12.346308   -0.954134    0.577570
      5          6           0       12.687028   -1.756132    1.231342
      6          6           0      -13.650901   -0.263993    0.602724
      7          6           0       13.343116   -1.818394   -0.139860
      8          6           0      -13.495165    1.200402    1.013977
      9          6           0       10.882937   -0.338730   -0.170571
     10          6           0      -11.218990   -0.222177   -0.122270
     11          6           0       13.246071   -0.593798   -0.919570
     12          6           0      -12.617034    1.876885    0.024939
     13          6           0       11.914033    0.031647   -0.928179
     14          6           0      -11.454355    1.091845   -0.466009
     15          6           0       10.606597   -0.920291    2.355138
     16          6           0       10.456791   -2.786534    0.632296
     17          6           0      -11.869677   -1.378409    2.033157
     18          6           0      -12.722252   -2.374820   -0.166573
     19          6           0        9.630804    0.366567   -0.026788
     20          6           0      -10.047741   -0.973388   -0.429644
     21          6           0       11.720841    1.226504   -1.850120
     22          6           0      -10.540421    1.881024   -1.264080
     23          6           0        9.319329    1.709077   -0.020852
     24          6           0       -8.748114   -0.590766   -0.307898
     25          6           0        8.052794    2.230872    0.164060
     26          6           0       -7.546945   -1.295210   -0.815961
     27          6           0        7.941504    3.675793    0.418204
     28          6           0       -7.659907   -2.694361   -1.198471
     29          6           0        6.803268    1.543135   -0.011428
     30          6           0       -6.361748   -0.688001   -0.427400
     31          6           0        5.585002    2.062601    0.102936
     32          6           0       -4.990654   -1.180860   -0.759703
     33          6           0        4.410770    1.379730   -0.115146
     34          6           0       -3.858945   -0.456853   -0.265501
     35          6           0        3.044857    1.780911    0.089112
     36          6           0       -2.499238   -0.789807   -0.556669
     37          6           0        2.665877    3.186417    0.289139
     38          6           0       -2.142708   -2.203074   -1.048980
     39          6           0        2.075194    0.766481   -0.138560
     40          6           0       -1.559936    0.163258   -0.093384
     41          6           0        0.721028    0.947942    0.045136
     42          6           0       -0.185671   -0.012179   -0.186175
     43          1           0       13.041210   -0.824212    1.704275
     44          1           0       12.831622   -2.571103    1.854020
     45          1           0      -14.192112   -0.703845    1.379122
     46          1           0      -14.297304   -0.375598   -0.217246
     47          1           0       13.107657   -2.622098   -0.838068
     48          1           0      -12.982336    1.280173    2.028791
     49          1           0       13.910450    0.264768   -0.572950
     50          1           0       13.642515   -0.716997   -1.972016
     51          1           0      -13.264361    2.076257   -0.848524
     52          1           0      -12.222814    2.881966    0.289375
     53          1           0       10.762533   -1.793979    3.280215
     54          1           0        9.512177   -0.760129    2.263973
     55          1           0       11.028482   -0.039365    2.557725
     56          1           0       10.579139   -3.359324   -0.484038
     57          1           0       10.523818   -3.608335    1.447062
     58          1           0        9.310575   -2.341986    0.581254
     59          1           0      -11.589429   -0.625132    2.770321
     60          1           0      -10.923354   -1.913322    1.965796
     61          1           0      -12.638221   -1.945250    2.622624
     62          1           0      -13.714076   -2.514066    0.310995
     63          1           0      -12.084211   -3.252889    0.070205
     64          1           0      -12.720727   -2.181058   -1.230596
     65          1           0        8.796168   -0.102731    0.311876
     66          1           0      -10.242308   -1.920200   -0.834564
     67          1           0       10.784893    1.197247   -1.850886
     68          1           0       12.253006    2.075395   -1.573388
     69          1           0       12.048212    0.744032   -2.949462
     70          1           0      -11.052492    2.635719   -1.916243
     71          1           0       -9.925143    1.239304   -1.997694
     72          1           0       -9.861434    2.455347   -0.707434
     73          1           0       14.900789   -3.003887    0.555951
     74          1           0      -15.159600    1.572740    1.798110
     75          1           0       10.318938    2.269441    0.003061
     76          1           0       -8.704825    0.406402   -0.060149
     77          1           0        9.052553    4.001599    0.611221
     78          1           0        7.528780    4.264608   -0.453943
     79          1           0        7.141631    3.977429    1.248867
     80          1           0       -8.491733   -3.078958   -0.665389
     81          1           0       -8.101890   -2.731125   -2.356380
     82          1           0       -6.723020   -3.398467   -1.112512
     83          1           0        6.798442    0.470208   -0.367340
     84          1           0       -6.537683    0.361490   -0.129160
     85          1           0        5.548009    3.229615    0.298156
     86          1           0       -4.936738   -2.185748   -1.131975
     87          1           0        4.519089    0.211891   -0.115973
     88          1           0       -4.139280    0.557026    0.142071
     89          1           0        3.104489    3.612147    1.164381
     90          1           0        1.747934    3.348199    0.308513
     91          1           0        2.936819    3.794786   -0.662194
     92          1           0       -2.369737   -2.878094   -0.406801
     93          1           0       -2.948518   -2.672506   -1.916947
     94          1           0       -1.116967   -2.420038   -1.419143
     95          1           0        2.614177   -0.186480   -0.130339
     96          1           0       -2.142629    1.132193    0.415118
     97          1           0        0.414928    1.910818    0.093326
     98          1           0        0.322818   -0.904468   -0.385044
 ---------------------------------------------------------------------

 SCF Done:  E(RCAM-B3LYP) =  -1706.95568573     A.U. after   15 cycles

 Excitation energies and oscillator strengths:

 Excited State   1:      Singlet-A      1.9901 eV  622.99 nm  f=3.6291  <S**2>=0.000
     155 ->158        -0.15376
     156 ->157         0.69168
 This state for optimization and/or second-order correction.
 Total Energy, E(TD-HF/TD-DFT) =  -1706.88254945
 Copying the excited state density for this state as the 1-particle RhoCI density.

 The electronic state is 1-A.
 Alpha  occ. eigenvalues --  -19.21031 -19.19144 -10.30386 -10.29755 -10.28318
 Alpha  occ. eigenvalues --  -10.28314 -10.27973 -10.27707 -10.27557 -10.27444
 Alpha  occ. eigenvalues --  -10.27434 -10.27305 -10.27142 -10.27062 -10.27009
 Alpha  occ. eigenvalues --  -10.26967 -10.26921 -10.26748 -10.26662 -10.26597
 Alpha  occ. eigenvalues --  -10.26428 -10.26423 -10.26397 -10.25971 -10.25936
 Alpha  occ. eigenvalues --  -10.25899 -10.25790 -10.25698 -10.25658 -10.25454
 Alpha  occ. eigenvalues --  -10.25199 -10.25107 -10.25087 -10.24776 -10.24758
 Alpha  occ. eigenvalues --  -10.24702 -10.24692 -10.24486 -10.24455 -10.24268
 Alpha  occ. eigenvalues --  -10.24193 -10.23571  -1.09299  -1.07688  -0.93933
 Alpha  occ. eigenvalues --   -0.93879  -0.92671  -0.91710  -0.90837  -0.90039
 Alpha  occ. eigenvalues --   -0.87923  -0.87433  -0.87263  -0.86213  -0.85358
 Alpha  occ. eigenvalues --   -0.83968  -0.82044  -0.80700  -0.80038  -0.79102
 Alpha  occ. eigenvalues --   -0.77273  -0.76794  -0.76668  -0.76151  -0.75595
 Alpha  occ. eigenvalues --   -0.75510  -0.75069  -0.74808  -0.73271  -0.70664
 Alpha  occ. eigenvalues --   -0.69462  -0.67593  -0.66588  -0.65217  -0.64037
 Alpha  occ. eigenvalues --   -0.63257  -0.62882  -0.61819  -0.60642  -0.59865
 Alpha  occ. eigenvalues --   -0.59282  -0.58911  -0.58135  -0.58041  -0.56157
 Alpha  occ. eigenvalues --   -0.55885  -0.55413  -0.55143  -0.54918  -0.54608
 Alpha  occ. eigenvalues --   -0.53715  -0.52907  -0.52603  -0.51774  -0.51311
 Alpha  occ. eigenvalues --   -0.50815  -0.50402  -0.49874  -0.49612  -0.49547
 Alpha  occ. eigenvalues --   -0.49293  -0.48739  -0.48461  -0.47889  -0.47722
 Alpha  occ. eigenvalues --   -0.47223  -0.47123  -0.46974  -0.46495  -0.46362
 Alpha  occ. eigenvalues --   -0.45939  -0.45622  -0.45442  -0.45043  -0.44944
 Alpha  occ. eigenvalues --   -0.44201  -0.44154  -0.44023  -0.43589  -0.43352
 Alpha  occ. eigenvalues --   -0.43020  -0.42975  -0.42828  -0.42584  -0.42143
 Alpha  occ. eigenvalues --   -0.41863  -0.41743  -0.41639  -0.41365  -0.41164
 Alpha  occ. eigenvalues --   -0.40957  -0.40710  -0.40551  -0.39999  -0.39589
 Alpha  occ. eigenvalues --   -0.39324  -0.38960  -0.38835  -0.38217  -0.38087
 Alpha  occ. eigenvalues --   -0.37849  -0.37492  -0.37146  -0.36722  -0.36560
 Alpha  occ. eigenvalues --   -0.34902  -0.34343  -0.33712  -0.32447  -0.31860
 Alpha  occ. eigenvalues --   -0.30725  -0.29980  -0.28356  -0.25941  -0.22825
 Alpha  occ. eigenvalues --   -0.18846
 Alpha virt. eigenvalues --   -0.06464  -0.01795   0.02290   0.05570   0.07838
 Alpha virt. eigenvalues --    0.09608   0.11365   0.11660   0.12034   0.12186
 Alpha virt. eigenvalues --    0.12423   0.12534   0.13204   0.13405   0.13691

 Mulliken charges:
               1
     1  O   -0.606961
     2  O   -0.552721
     3  C   -0.026652
     4  C   -0.025452
     5  C   -0.177887
     6  C   -0.183013
     7  C    0.206644
     8  C    0.123537
     9  C    0.070346
    10  C    0.072827
    11  C   -0.214601
    12  C   -0.216272
    13  C    0.015255
    14  C    0.065372
    15  C   -0.281285
    16  C   -0.267555
    17  C   -0.316082
    18  C   -0.314678
    19  C   -0.135824
    20  C   -0.143015
    21  C   -0.324618
    22  C   -0.389359
    23  C   -0.111389
    24  C   -0.088645
    25  C    0.095763
    26  C    0.115020
    27  C   -0.379797
    28  C   -0.369470
    29  C   -0.105762
    30  C   -0.122374
    31  C   -0.061896
    32  C   -0.098586
    33  C   -0.143356
    34  C   -0.126026
    35  C    0.094003
    36  C    0.127594
    37  C   -0.352496
    38  C   -0.365746
    39  C   -0.122692
    40  C   -0.130595
    41  C   -0.062060
    42  C   -0.079085
    43  H    0.101702
    44  H    0.091744
    45  H    0.087994
    46  H    0.114483
    47  H    0.087351
    48  H    0.079983
    49  H    0.112010
    50  H    0.110385
    51  H    0.121973
    52  H    0.107053
    53  H    0.059872
    54  H    0.100014
    55  H    0.121211
    56  H    0.084090
    57  H    0.093658
    58  H    0.072568
    59  H    0.098163
    60  H    0.111244
    61  H    0.087770
    62  H    0.100722
    63  H    0.098707
    64  H    0.112387
    65  H    0.081647
    66  H    0.077724
    67  H    0.136857
    68  H    0.123913
    69  H    0.069610
    70  H    0.100363
    71  H    0.113704
    72  H    0.126154
    73  H    0.302641
    74  H    0.302559
    75  H    0.091530
    76  H    0.074813
    77  H    0.095834
    78  H    0.126378
    79  H    0.108687
    80  H    0.134146
    81  H    0.090742
    82  H    0.108645
    83  H    0.079739
    84  H    0.080359
    85  H    0.072477
    86  H    0.081799
    87  H    0.069035
    88  H    0.087545
    89  H    0.122831
    90  H    0.116228
    91  H    0.109983
    92  H    0.152328
    93  H    0.074363
    94  H    0.118452
    95  H    0.077358
    96  H    0.084277
    97  H    0.076476
    98  H    0.085312
 Sum of Mulliken charges =  -0.00000

 Dipole moment (field-independent basis, Debye):
    X=              0.3930    Y=             -1.2190    Z=              1.7665  Tot=              2.1820
 Quadrupole moment (field-independent basis, Debye-Ang):
   XX=           -281.1539   YY=           -243.2052   ZZ=           -261.5799
   XY=              8.4734   XZ=             -5.7137   YZ=              1.8594

 Normal termination of Gaussian 16 at Thu Jul 11 02:00:19 2019.
