 Gaussian 16, Revision A.03,
 Gaussian 16:  ES64L-G16RevA.03 25-Dec-2016

 -------------------------------------
 # td=(NStates=1) CAM-B3LYP/6-31G(d,p)
 -------------------------------------

 --
 TD
 --
 Symbolic Z-matrix:
 Charge =  0 Multiplicity = 1

                         Standard orientation:
 ---------------------------------------------------------------------
 Center     Atomic      Atomic             Coordinates (Angstroms)
 Number     Number       Type             X           Y           Z
 ---------------------------------------------------------------------
      1          8           0       14.640928   -2.268283   -0.238982
      2          8           0      -14.763442    1.815131    1.146886
      3          6           0       11.147408   -1.634373    0.967760
      4          6           0      -12.330901   -1.078517    0.512860
      5          6           0       12.641411   -1.967721    0.944487
      6          6           0      -13.724358   -0.334084    0.679816
      7          6           0       13.314591   -1.835132   -0.358660
      8          6           0      -13.541137    1.106322    0.988812
      9          6           0       10.935757   -0.258783    0.032302
     10          6           0      -11.253808   -0.226074   -0.091268
     11          6           0       13.332309   -0.448991   -0.804408
     12          6           0      -12.699246    1.841598   -0.004868
     13          6           0       11.952399    0.111890   -0.872259
     14          6           0      -11.478992    1.040606   -0.470689
     15          6           0       10.737556   -1.230784    2.415608
     16          6           0       10.278375   -2.718433    0.478251
     17          6           0      -11.820560   -1.533370    1.951595
     18          6           0      -12.729462   -2.446815   -0.245169
     19          6           0        9.682120    0.332447    0.132021
     20          6           0      -10.058756   -0.975675   -0.487662
     21          6           0       11.780581    1.262814   -1.850572
     22          6           0      -10.585906    1.917227   -1.360345
     23          6           0        9.386128    1.589808    0.158498
     24          6           0       -8.752596   -0.433026   -0.450813
     25          6           0        8.047372    2.205795    0.233963
     26          6           0       -7.561657   -1.216273   -0.664803
     27          6           0        8.029003    3.677833    0.616120
     28          6           0       -7.712767   -2.579833   -1.070844
     29          6           0        6.838780    1.522611   -0.059512
     30          6           0       -6.368637   -0.497173   -0.481672
     31          6           0        5.639652    2.070781    0.113141
     32          6           0       -5.095868   -1.003577   -0.635350
     33          6           0        4.448426    1.322996   -0.134730
     34          6           0       -3.908481   -0.273210   -0.486071
     35          6           0        3.187071    1.736329    0.055836
     36          6           0       -2.623509   -0.774718   -0.583512
     37          6           0        2.830533    3.152273    0.371761
     38          6           0       -2.450035   -2.172467   -0.804826
     39          6           0        2.110579    0.825278   -0.013825
     40          6           0       -1.550179    0.190587   -0.326587
     41          6           0        0.725806    1.069213    0.003581
     42          6           0       -0.175220    0.017545   -0.175548
     43          1           0       13.259384   -1.247886    1.730098
     44          1           0       12.609060   -2.912507    1.437745
     45          1           0      -14.222976   -0.909128    1.498049
     46          1           0      -14.484755   -0.276910   -0.214070
     47          1           0       12.735237   -2.534566   -1.052322
     48          1           0      -12.819177    1.266391    2.009364
     49          1           0       14.014246    0.091712   -0.044703
     50          1           0       13.918205   -0.344609   -1.769361
     51          1           0      -13.249703    1.943905   -1.082350
     52          1           0      -12.555609    2.947461    0.399087
     53          1           0       11.038888   -1.907461    3.024490
     54          1           0        9.595228   -1.232457    2.552594
     55          1           0       11.174681   -0.368914    2.697967
     56          1           0       10.629229   -2.913967   -0.631228
     57          1           0       10.400206   -3.493735    1.303501
     58          1           0        9.334165   -2.435053    0.433583
     59          1           0      -11.507168   -0.542520    2.673316
     60          1           0      -10.939631   -2.122433    1.643567
     61          1           0      -12.587421   -2.301141    2.390072
     62          1           0      -13.668087   -2.884850    0.246072
     63          1           0      -11.712160   -3.002086   -0.235005
     64          1           0      -13.181142   -2.162960   -1.271790
     65          1           0        8.746269   -0.386216    0.060024
     66          1           0      -10.088377   -2.063963   -0.514229
     67          1           0       10.787001    1.638781   -2.211609
     68          1           0       12.139281    2.141035   -1.209946
     69          1           0       12.429281    0.963209   -2.862554
     70          1           0      -11.186167    2.722136   -2.068658
     71          1           0       -9.901411    1.313896   -1.962292
     72          1           0      -10.019042    2.517888   -0.656607
     73          1           0       14.712043   -3.139924    0.458953
     74          1           0      -15.126628    1.666390    2.127590
     75          1           0       10.129088    2.275276    0.088675
     76          1           0       -8.701078    0.584202   -0.301871
     77          1           0        9.059997    4.229565    0.556435
     78          1           0        7.416560    4.626039    0.049705
     79          1           0        7.705240    3.710484    1.724591
     80          1           0       -8.091839   -3.427691   -0.312392
     81          1           0       -8.372856   -2.592423   -1.851616
     82          1           0       -6.853338   -2.899705   -1.497603
     83          1           0        7.043877    0.515324   -0.356327
     84          1           0       -6.368583    0.630903   -0.400634
     85          1           0        5.395968    3.039634    0.379722
     86          1           0       -4.968725   -2.041045   -0.946390
     87          1           0        4.684543    0.358640   -0.538401
     88          1           0       -4.106079    0.670575   -0.089322
     89          1           0        3.236770    3.425565    1.433621
     90          1           0        1.776690    3.820075    0.286079
     91          1           0        3.557570    3.819506   -0.138634
     92          1           0       -3.045869   -2.730949   -0.154826
     93          1           0       -2.675541   -2.456531   -1.886134
     94          1           0       -1.188641   -2.228392   -0.823002
     95          1           0        2.545619   -0.175401   -0.102907
     96          1           0       -1.851382    1.251513   -0.354565
     97          1           0        0.269442    2.059946    0.221336
     98          1           0        0.367028   -0.998945   -0.482630
 ---------------------------------------------------------------------

 SCF Done:  E(RCAM-B3LYP) =  -1706.92764622     A.U. after   16 cycles

 Excitation energies and oscillator strengths:

 Excited State   1:      Singlet-A      1.7474 eV  709.55 nm  f=3.9113  <S**2>=0.000
     155 ->158        -0.13472
     156 ->157         0.70117
     156 <-157        -0.12220
 This state for optimization and/or second-order correction.
 Total Energy, E(TD-HF/TD-DFT) =  -1706.86343216
 Copying the excited state density for this state as the 1-particle RhoCI density.

 The electronic state is 1-A.
 Alpha  occ. eigenvalues --  -19.21881 -19.21676 -10.30986 -10.30156 -10.28242
 Alpha  occ. eigenvalues --  -10.28054 -10.27865 -10.27732 -10.27517 -10.27500
 Alpha  occ. eigenvalues --  -10.27343 -10.27333 -10.27278 -10.27222 -10.27122
 Alpha  occ. eigenvalues --  -10.27073 -10.26984 -10.26966 -10.26834 -10.26806
 Alpha  occ. eigenvalues --  -10.26747 -10.26488 -10.26479 -10.26234 -10.26161
 Alpha  occ. eigenvalues --  -10.26069 -10.26016 -10.25945 -10.25793 -10.25767
 Alpha  occ. eigenvalues --  -10.25704 -10.25614 -10.25549 -10.25481 -10.25459
 Alpha  occ. eigenvalues --  -10.25404 -10.25375 -10.25109 -10.24966 -10.24814
 Alpha  occ. eigenvalues --  -10.24724 -10.22755  -1.08226  -1.07786  -0.93584
 Alpha  occ. eigenvalues --   -0.93163  -0.92611  -0.92230  -0.90889  -0.90403
 Alpha  occ. eigenvalues --   -0.88168  -0.87586  -0.86258  -0.85732  -0.84832
 Alpha  occ. eigenvalues --   -0.83248  -0.82477  -0.80290  -0.79490  -0.78457
 Alpha  occ. eigenvalues --   -0.77801  -0.77174  -0.76231  -0.75935  -0.75771
 Alpha  occ. eigenvalues --   -0.75073  -0.74303  -0.73728  -0.73008  -0.70693
 Alpha  occ. eigenvalues --   -0.68446  -0.67040  -0.65132  -0.64447  -0.63098
 Alpha  occ. eigenvalues --   -0.62940  -0.62582  -0.61149  -0.61049  -0.60727
 Alpha  occ. eigenvalues --   -0.60055  -0.58757  -0.58292  -0.57194  -0.56635
 Alpha  occ. eigenvalues --   -0.56252  -0.55517  -0.54769  -0.54495  -0.53732
 Alpha  occ. eigenvalues --   -0.53285  -0.52496  -0.51978  -0.51861  -0.51662
 Alpha  occ. eigenvalues --   -0.50848  -0.50214  -0.49828  -0.49407  -0.49272
 Alpha  occ. eigenvalues --   -0.48721  -0.48488  -0.48212  -0.47884  -0.47721
 Alpha  occ. eigenvalues --   -0.47339  -0.47219  -0.46628  -0.46281  -0.46265
 Alpha  occ. eigenvalues --   -0.46079  -0.45529  -0.45299  -0.45078  -0.44756
 Alpha  occ. eigenvalues --   -0.44683  -0.44605  -0.43914  -0.43555  -0.43261
 Alpha  occ. eigenvalues --   -0.43061  -0.42941  -0.42501  -0.42086  -0.41518
 Alpha  occ. eigenvalues --   -0.41455  -0.41129  -0.41039  -0.40863  -0.40789
 Alpha  occ. eigenvalues --   -0.40380  -0.40213  -0.40085  -0.39920  -0.39279
 Alpha  occ. eigenvalues --   -0.38782  -0.38713  -0.38534  -0.38313  -0.38245
 Alpha  occ. eigenvalues --   -0.37929  -0.37746  -0.36579  -0.36192  -0.35871
 Alpha  occ. eigenvalues --   -0.34951  -0.34713  -0.33759  -0.32370  -0.31820
 Alpha  occ. eigenvalues --   -0.31485  -0.29903  -0.27704  -0.25984  -0.22633
 Alpha  occ. eigenvalues --   -0.17873
 Alpha virt. eigenvalues --   -0.07280  -0.01757   0.02332   0.05065   0.07535
 Alpha virt. eigenvalues --    0.09375   0.09564   0.09953   0.11314   0.11619
 Alpha virt. eigenvalues --    0.11897   0.12164   0.12333   0.12644   0.13098

 Mulliken charges:
               1
     1  O   -0.579850
     2  O   -0.565114
     3  C   -0.021043
     4  C   -0.072380
     5  C   -0.195346
     6  C   -0.163168
     7  C    0.222068
     8  C    0.172904
     9  C    0.016066
    10  C    0.129147
    11  C   -0.208070
    12  C   -0.196466
    13  C    0.044545
    14  C    0.031784
    15  C   -0.295496
    16  C   -0.274865
    17  C   -0.273320
    18  C   -0.285768
    19  C   -0.084252
    20  C   -0.160630
    21  C   -0.352720
    22  C   -0.358431
    23  C   -0.081947
    24  C   -0.085228
    25  C    0.060682
    26  C    0.108117
    27  C   -0.372146
    28  C   -0.377375
    29  C   -0.092817
    30  C   -0.122762
    31  C   -0.056388
    32  C   -0.099530
    33  C   -0.144902
    34  C   -0.102581
    35  C    0.159176
    36  C    0.118687
    37  C   -0.401410
    38  C   -0.371453
    39  C   -0.138892
    40  C   -0.136624
    41  C   -0.077170
    42  C   -0.078527
    43  H    0.069873
    44  H    0.079399
    45  H    0.082745
    46  H    0.090147
    47  H    0.067839
    48  H    0.032352
    49  H    0.114791
    50  H    0.107388
    51  H    0.088594
    52  H    0.105672
    53  H    0.101890
    54  H    0.088024
    55  H    0.116635
    56  H    0.093684
    57  H    0.091089
    58  H    0.117827
    59  H    0.086656
    60  H    0.102040
    61  H    0.087429
    62  H    0.104829
    63  H    0.090335
    64  H    0.105414
    65  H    0.070428
    66  H    0.074470
    67  H    0.124363
    68  H    0.119336
    69  H    0.085748
    70  H    0.089416
    71  H    0.123057
    72  H    0.125183
    73  H    0.306227
    74  H    0.312792
    75  H    0.070432
    76  H    0.078390
    77  H    0.099761
    78  H    0.091856
    79  H    0.123497
    80  H    0.105185
    81  H    0.138700
    82  H    0.115197
    83  H    0.077873
    84  H    0.085387
    85  H    0.079823
    86  H    0.072624
    87  H    0.081013
    88  H    0.074022
    89  H    0.111469
    90  H    0.109918
    91  H    0.114080
    92  H    0.135878
    93  H    0.123779
    94  H    0.082833
    95  H    0.077312
    96  H    0.085621
    97  H    0.092495
    98  H    0.080681
 Sum of Mulliken charges =  -0.00000

 Dipole moment (field-independent basis, Debye):
    X=              0.8562    Y=             -1.0585    Z=              1.6460  Tot=              2.1361
 Quadrupole moment (field-independent basis, Debye-Ang):
   XX=           -281.6911   YY=           -242.9810   ZZ=           -261.4894
   XY=              7.8281   XZ=              0.8151   YZ=              1.1780

 Normal termination of Gaussian 16 at Thu Jul 18 05:57:59 2019.
