 Gaussian 16, Revision A.03,
 Gaussian 16:  ES64L-G16RevA.03 25-Dec-2016

 -------------------------------------
 # td=(NStates=1) CAM-B3LYP/6-31G(d,p)
 -------------------------------------

 --
 TD
 --
 Symbolic Z-matrix:
 Charge =  0 Multiplicity = 1

                         Standard orientation:
 ---------------------------------------------------------------------
 Center     Atomic      Atomic             Coordinates (Angstroms)
 Number     Number       Type             X           Y           Z
 ---------------------------------------------------------------------
      1          8           0       14.943872   -1.805785    0.033357
      2          8           0      -14.575359    2.269441    1.036950
      3          6           0       11.251288   -1.409506    1.041698
      4          6           0      -12.447383   -0.846356    0.773456
      5          6           0       12.774849   -1.622330    1.085922
      6          6           0      -13.619092   -0.066000    0.893752
      7          6           0       13.575428   -1.637005   -0.143828
      8          6           0      -13.384808    1.414542    0.994628
      9          6           0       11.016918   -0.284423    0.009148
     10          6           0      -11.375701   -0.271768   -0.194895
     11          6           0       13.343169   -0.392378   -0.976094
     12          6           0      -12.733762    1.923095   -0.293381
     13          6           0       11.948320    0.176448   -0.830478
     14          6           0      -11.592274    1.007357   -0.591800
     15          6           0       10.752289   -0.963117    2.445773
     16          6           0       10.631828   -2.704261    0.569507
     17          6           0      -11.817957   -1.139861    2.149491
     18          6           0      -12.778612   -2.282870    0.267172
     19          6           0        9.684034    0.371330    0.120602
     20          6           0      -10.213166   -1.100090   -0.434188
     21          6           0       11.691577    1.265719   -1.819486
     22          6           0      -10.570495    1.695697   -1.551653
     23          6           0        9.450580    1.634372    0.053543
     24          6           0       -8.934967   -0.607261   -0.299372
     25          6           0        8.099451    2.232084    0.185975
     26          6           0       -7.684764   -1.343061   -0.493258
     27          6           0        7.931043    3.644625    0.590229
     28          6           0       -7.887306   -2.758632   -0.825555
     29          6           0        6.932998    1.415307    0.073624
     30          6           0       -6.493061   -0.747255   -0.495052
     31          6           0        5.641866    1.872237    0.145823
     32          6           0       -5.145652   -1.182226   -0.677430
     33          6           0        4.441049    1.131600   -0.128886
     34          6           0       -4.044679   -0.319490   -0.646604
     35          6           0        3.059995    1.472431    0.010172
     36          6           0       -2.662735   -0.856570   -0.754794
     37          6           0        2.679062    2.810036    0.506924
     38          6           0       -2.364318   -2.349201   -1.130362
     39          6           0        2.082502    0.502469   -0.370830
     40          6           0       -1.659275    0.010650   -0.446656
     41          6           0        0.684225    0.785488   -0.220703
     42          6           0       -0.303826   -0.244861   -0.509932
     43          1           0       13.286771   -1.033645    1.739815
     44          1           0       12.951263   -2.596723    1.419741
     45          1           0      -14.274715   -0.472209    1.692774
     46          1           0      -14.427557   -0.285242    0.086551
     47          1           0       13.215873   -2.727015   -0.822006
     48          1           0      -12.701331    1.468907    1.888845
     49          1           0       14.085139    0.318642   -0.377825
     50          1           0       13.468835   -0.655751   -2.261805
     51          1           0      -13.435648    1.905185   -1.115090
     52          1           0      -12.242601    2.912504   -0.117004
     53          1           0       10.780949   -1.677233    3.153622
     54          1           0        9.826362   -0.329911    2.637632
     55          1           0       11.586203   -0.374688    2.553731
     56          1           0       11.033840   -3.118380   -0.403860
     57          1           0       10.762324   -3.432762    1.367423
     58          1           0        9.502877   -2.628396    0.283936
     59          1           0      -11.359134   -0.128712    2.385426
     60          1           0      -10.986993   -1.768263    2.058004
     61          1           0      -12.551559   -1.617579    2.696455
     62          1           0      -13.632374   -2.812759    0.821132
     63          1           0      -12.117801   -3.123704    0.404566
     64          1           0      -12.897619   -2.213026   -0.781753
     65          1           0        8.994677   -0.242675    0.444509
     66          1           0      -10.338555   -2.135663   -0.712090
     67          1           0       10.706104    1.109812   -2.412359
     68          1           0       11.706544    2.308544   -1.394833
     69          1           0       12.605652    1.427786   -2.586205
     70          1           0      -11.044756    2.312174   -2.283695
     71          1           0      -10.055179    1.043844   -2.219614
     72          1           0      -10.108530    2.677324   -1.007913
     73          1           0       15.004484   -2.637273    0.480784
     74          1           0      -14.911858    2.365547    1.970374
     75          1           0       10.221727    2.438181   -0.194131
     76          1           0       -8.657451    0.385412   -0.192727
     77          1           0        8.972267    4.269872    0.689152
     78          1           0        7.272725    4.181480   -0.056939
     79          1           0        7.700441    3.803433    1.659819
     80          1           0       -8.586847   -3.102108   -0.174228
     81          1           0       -8.472577   -2.840052   -1.692260
     82          1           0       -7.105784   -3.466281   -0.963787
     83          1           0        7.062481    0.543548   -0.398975
     84          1           0       -6.346854    0.312186   -0.224671
     85          1           0        5.526786    2.855210    0.383140
     86          1           0       -5.014694   -2.240895   -1.119487
     87          1           0        4.481367    0.061238   -0.327367
     88          1           0       -4.178872    0.721909   -0.312998
     89          1           0        3.538934    3.185590    1.348898
     90          1           0        1.664484    3.128920    1.125794
     91          1           0        2.604765    3.627098   -0.561591
     92          1           0       -2.582532   -2.870281   -0.180185
     93          1           0       -3.069955   -2.512432   -1.980291
     94          1           0       -1.175994   -2.517076   -1.459151
     95          1           0        2.293294   -0.498120   -1.046837
     96          1           0       -1.852912    1.088033   -0.317820
     97          1           0        0.431609    1.709057    0.124080
     98          1           0        0.141972   -1.233604   -0.772376
 ---------------------------------------------------------------------

 SCF Done:  E(RCAM-B3LYP) =  -1706.93692696     A.U. after   15 cycles

 Excitation energies and oscillator strengths:

 Excited State   1:      Singlet-A      2.1242 eV  583.67 nm  f=3.5753  <S**2>=0.000
     155 ->158         0.14077
     156 ->157         0.69480
 This state for optimization and/or second-order correction.
 Total Energy, E(TD-HF/TD-DFT) =  -1706.85886396
 Copying the excited state density for this state as the 1-particle RhoCI density.

 The electronic state is 1-A.
 Alpha  occ. eigenvalues --  -19.22118 -19.21351 -10.31957 -10.30764 -10.30330
 Alpha  occ. eigenvalues --  -10.28109 -10.28084 -10.27964 -10.27911 -10.27863
 Alpha  occ. eigenvalues --  -10.27854 -10.27576 -10.27525 -10.27132 -10.26844
 Alpha  occ. eigenvalues --  -10.26568 -10.26403 -10.26364 -10.26313 -10.26300
 Alpha  occ. eigenvalues --  -10.26241 -10.26233 -10.26219 -10.26191 -10.25685
 Alpha  occ. eigenvalues --  -10.25603 -10.25578 -10.25537 -10.25531 -10.25478
 Alpha  occ. eigenvalues --  -10.25464 -10.25375 -10.25253 -10.24957 -10.24530
 Alpha  occ. eigenvalues --  -10.24385 -10.24099 -10.24024 -10.23787 -10.23562
 Alpha  occ. eigenvalues --  -10.23252 -10.23188  -1.12085  -1.07361  -0.94390
 Alpha  occ. eigenvalues --   -0.94289  -0.91816  -0.91311  -0.90710  -0.89672
 Alpha  occ. eigenvalues --   -0.87578  -0.87203  -0.86603  -0.85960  -0.84767
 Alpha  occ. eigenvalues --   -0.83275  -0.81981  -0.80576  -0.79762  -0.77875
 Alpha  occ. eigenvalues --   -0.77425  -0.76962  -0.76059  -0.75898  -0.75814
 Alpha  occ. eigenvalues --   -0.75643  -0.75433  -0.74483  -0.72726  -0.70606
 Alpha  occ. eigenvalues --   -0.68917  -0.67385  -0.65993  -0.64656  -0.64598
 Alpha  occ. eigenvalues --   -0.63912  -0.62957  -0.61923  -0.60258  -0.60120
 Alpha  occ. eigenvalues --   -0.59829  -0.59310  -0.58637  -0.57250  -0.56367
 Alpha  occ. eigenvalues --   -0.56045  -0.55284  -0.54634  -0.54378  -0.53583
 Alpha  occ. eigenvalues --   -0.53109  -0.52598  -0.51745  -0.51694  -0.51169
 Alpha  occ. eigenvalues --   -0.50468  -0.50095  -0.49927  -0.49669  -0.49551
 Alpha  occ. eigenvalues --   -0.49334  -0.49171  -0.48834  -0.48500  -0.48355
 Alpha  occ. eigenvalues --   -0.48047  -0.47599  -0.47174  -0.46603  -0.46008
 Alpha  occ. eigenvalues --   -0.45912  -0.45805  -0.45526  -0.45257  -0.45010
 Alpha  occ. eigenvalues --   -0.44540  -0.44013  -0.43894  -0.43351  -0.43220
 Alpha  occ. eigenvalues --   -0.42946  -0.42751  -0.42471  -0.42034  -0.41902
 Alpha  occ. eigenvalues --   -0.41555  -0.41409  -0.41088  -0.40562  -0.40113
 Alpha  occ. eigenvalues --   -0.40004  -0.39938  -0.39564  -0.39461  -0.39318
 Alpha  occ. eigenvalues --   -0.38933  -0.38728  -0.38604  -0.38295  -0.38082
 Alpha  occ. eigenvalues --   -0.37798  -0.37446  -0.36513  -0.36345  -0.35873
 Alpha  occ. eigenvalues --   -0.34726  -0.34281  -0.33688  -0.32766  -0.31810
 Alpha  occ. eigenvalues --   -0.31738  -0.29533  -0.28194  -0.26204  -0.23537
 Alpha  occ. eigenvalues --   -0.18930
 Alpha virt. eigenvalues --   -0.05922  -0.01004   0.02511   0.05963   0.07638
 Alpha virt. eigenvalues --    0.09484   0.09607   0.11093   0.11525   0.12080
 Alpha virt. eigenvalues --    0.12328   0.12768   0.12878   0.13278   0.13788

 Mulliken charges:
               1
     1  O   -0.527411
     2  O   -0.573515
     3  C   -0.017610
     4  C   -0.014349
     5  C   -0.190120
     6  C   -0.182801
     7  C    0.174878
     8  C    0.150566
     9  C    0.060411
    10  C    0.077538
    11  C   -0.211751
    12  C   -0.184887
    13  C    0.062877
    14  C    0.013966
    15  C   -0.313754
    16  C   -0.302620
    17  C   -0.278195
    18  C   -0.325780
    19  C   -0.091546
    20  C   -0.158599
    21  C   -0.372062
    22  C   -0.369292
    23  C   -0.073705
    24  C   -0.068257
    25  C    0.059347
    26  C    0.127134
    27  C   -0.383823
    28  C   -0.390394
    29  C   -0.087025
    30  C   -0.150756
    31  C   -0.090026
    32  C   -0.087253
    33  C   -0.122853
    34  C   -0.115482
    35  C    0.121622
    36  C    0.071159
    37  C   -0.348907
    38  C   -0.348060
    39  C   -0.133731
    40  C   -0.107070
    41  C   -0.073902
    42  C   -0.090584
    43  H    0.109785
    44  H    0.083306
    45  H    0.082400
    46  H    0.088018
    47  H    0.002476
    48  H    0.083856
    49  H    0.114265
    50  H    0.090031
    51  H    0.136440
    52  H    0.106612
    53  H    0.106761
    54  H    0.113189
    55  H    0.117822
    56  H    0.105174
    57  H    0.101090
    58  H    0.088680
    59  H    0.088355
    60  H    0.110487
    61  H    0.102540
    62  H    0.081804
    63  H    0.100451
    64  H    0.108630
    65  H    0.079213
    66  H    0.095176
    67  H    0.123744
    68  H    0.116702
    69  H    0.084341
    70  H    0.106123
    71  H    0.124821
    72  H    0.087209
    73  H    0.305984
    74  H    0.303195
    75  H    0.081092
    76  H    0.089792
    77  H    0.081491
    78  H    0.134038
    79  H    0.132850
    80  H    0.125287
    81  H    0.126368
    82  H    0.108823
    83  H    0.078972
    84  H    0.066792
    85  H    0.074583
    86  H    0.075095
    87  H    0.078491
    88  H    0.094743
    89  H    0.092216
    90  H    0.109477
    91  H    0.082603
    92  H    0.140353
    93  H    0.126361
    94  H    0.095224
    95  H    0.085673
    96  H    0.082262
    97  H    0.078522
    98  H    0.076834
 Sum of Mulliken charges =  -0.00000

 Dipole moment (field-independent basis, Debye):
    X=             -0.1083    Y=             -1.1936    Z=              1.8925  Tot=              2.2401
 Quadrupole moment (field-independent basis, Debye-Ang):
   XX=           -277.2704   YY=           -242.1151   ZZ=           -258.5696
   XY=              2.7574   XZ=              0.5403   YZ=              3.6924

 Normal termination of Gaussian 16 at Mon Jul 15 14:38:41 2019.
