 Gaussian 16, Revision A.03,
 Gaussian 16:  ES64L-G16RevA.03 25-Dec-2016

 -------------------------------------
 # td=(NStates=1) CAM-B3LYP/6-31G(d,p)
 -------------------------------------

 --
 TD
 --
 Symbolic Z-matrix:
 Charge =  0 Multiplicity = 1

                         Standard orientation:
 ---------------------------------------------------------------------
 Center     Atomic      Atomic             Coordinates (Angstroms)
 Number     Number       Type             X           Y           Z
 ---------------------------------------------------------------------
      1          8           0       14.735036   -2.271861   -0.224219
      2          8           0      -14.718345    1.706067    1.041290
      3          6           0       11.137206   -1.464534    0.915609
      4          6           0      -12.406242   -1.096614    0.501314
      5          6           0       12.600033   -1.880311    0.925011
      6          6           0      -13.666678   -0.277844    0.537377
      7          6           0       13.355615   -1.928495   -0.410611
      8          6           0      -13.490034    1.097040    0.848256
      9          6           0       10.919100   -0.315123   -0.052403
     10          6           0      -11.332643   -0.302417   -0.237719
     11          6           0       13.165685   -0.587555   -1.046533
     12          6           0      -12.800370    1.791334   -0.370111
     13          6           0       11.843035    0.128569   -0.945997
     14          6           0      -11.539607    0.962694   -0.662589
     15          6           0       10.726515   -1.176818    2.396510
     16          6           0       10.362610   -2.811418    0.463573
     17          6           0      -11.853934   -1.405079    2.013842
     18          6           0      -12.695167   -2.416646   -0.217107
     19          6           0        9.631001    0.344407    0.125450
     20          6           0      -10.045241   -0.973388   -0.462267
     21          6           0       11.703487    1.201767   -1.942607
     22          6           0      -10.565746    1.955897   -1.363162
     23          6           0        9.392538    1.624304    0.027494
     24          6           0       -8.837538   -0.435425   -0.332782
     25          6           0        8.125313    2.266054    0.146663
     26          6           0       -7.595152   -1.124235   -0.516001
     27          6           0        8.082468    3.716393    0.427322
     28          6           0       -7.704982   -2.523274   -0.935683
     29          6           0        6.900562    1.571477    0.016210
     30          6           0       -6.379554   -0.467761   -0.391109
     31          6           0        5.545880    2.106434    0.251666
     32          6           0       -5.048542   -1.115877   -0.460190
     33          6           0        4.462826    1.398448    0.033953
     34          6           0       -3.906694   -0.311987   -0.351195
     35          6           0        3.156877    1.757843    0.290295
     36          6           0       -2.585987   -0.715700   -0.434466
     37          6           0        2.925168    3.270580    0.781844
     38          6           0       -2.276670   -2.140339   -0.754005
     39          6           0        2.129169    0.929661   -0.135862
     40          6           0       -1.549461    0.230618   -0.100392
     41          6           0        0.704464    1.038468    0.024091
     42          6           0       -0.191102   -0.017674   -0.180019
     43          1           0       13.280978   -1.147283    1.448314
     44          1           0       12.707635   -2.833613    1.391719
     45          1           0      -14.309061   -0.893917    1.291106
     46          1           0      -13.852478   -0.237299   -0.399978
     47          1           0       12.951746   -2.770748   -0.972139
     48          1           0      -12.727568    1.041109    1.692523
     49          1           0       13.836734    0.225896   -0.520589
     50          1           0       13.379471   -0.657224   -2.120151
     51          1           0      -13.505598    1.724427   -1.342487
     52          1           0      -12.596155    2.808160   -0.309080
     53          1           0       11.209953   -1.906572    3.043835
     54          1           0        9.832582   -1.114286    2.427539
     55          1           0       11.150448   -0.050653    2.747554
     56          1           0       10.365506   -2.989932   -0.811932
     57          1           0       10.804297   -3.773245    0.865689
     58          1           0        9.213269   -2.951340    0.775630
     59          1           0      -11.672866   -0.418795    2.573417
     60          1           0      -10.851515   -1.793962    2.044549
     61          1           0      -12.735351   -2.072695    2.491472
     62          1           0      -13.655803   -2.975120   -0.024199
     63          1           0      -11.826257   -3.200934   -0.347212
     64          1           0      -12.824505   -2.098170   -1.254540
     65          1           0        8.862290   -0.233759    0.603202
     66          1           0      -10.000079   -2.089649   -0.715649
     67          1           0       10.674732    1.384265   -2.168699
     68          1           0       12.009591    2.178375   -1.616213
     69          1           0       12.282874    0.678804   -2.790850
     70          1           0      -11.105151    2.496392   -2.003886
     71          1           0       -9.749801    1.326326   -1.920313
     72          1           0       -9.792143    2.634740   -0.667628
     73          1           0       14.676458   -3.136592    0.348651
     74          1           0      -15.315769    1.253653    1.692888
     75          1           0       10.203303    2.243431   -0.106061
     76          1           0       -8.826177    0.546837    0.115751
     77          1           0        8.967108    4.143072    0.344970
     78          1           0        7.275194    4.326562   -0.116237
     79          1           0        7.594284    3.719062    1.543256
     80          1           0       -8.165185   -3.127724   -0.103021
     81          1           0       -8.120195   -2.687000   -1.826209
     82          1           0       -6.727666   -2.926670   -1.116523
     83          1           0        7.016626    0.413733   -0.161295
     84          1           0       -6.398826    0.522599   -0.197486
     85          1           0        5.575394    3.145590    0.615106
     86          1           0       -4.897551   -2.175121   -0.798235
     87          1           0        4.729958    0.308308   -0.225290
     88          1           0       -3.972725    0.761257   -0.051093
     89          1           0        3.556538    3.529215    1.584941
     90          1           0        1.803597    3.613428    1.016945
     91          1           0        3.179595    3.837961   -0.161192
     92          1           0       -3.065973   -2.838184   -0.218480
     93          1           0       -2.523324   -2.366393   -1.738501
     94          1           0       -1.241997   -2.436107   -0.377208
     95          1           0        2.439483    0.083660   -0.178847
     96          1           0       -2.018607    1.198044   -0.012979
     97          1           0        0.057469    1.935424    0.094604
     98          1           0        0.318414   -1.071818   -0.458032
 ---------------------------------------------------------------------

 SCF Done:  E(RCAM-B3LYP) =  -1706.94359203     A.U. after   15 cycles

 Excitation energies and oscillator strengths:

 Excited State   1:      Singlet-A      2.2159 eV  559.51 nm  f=3.6948  <S**2>=0.000
     155 ->158         0.15981
     156 ->157         0.68795
 This state for optimization and/or second-order correction.
 Total Energy, E(TD-HF/TD-DFT) =  -1706.86215783
 Copying the excited state density for this state as the 1-particle RhoCI density.

 The electronic state is 1-A.
 Alpha  occ. eigenvalues --  -19.21793 -19.21077 -10.30114 -10.29763 -10.28529
 Alpha  occ. eigenvalues --  -10.28346 -10.27761 -10.27615 -10.27500 -10.27310
 Alpha  occ. eigenvalues --  -10.27026 -10.27022 -10.26889 -10.26865 -10.26773
 Alpha  occ. eigenvalues --  -10.26764 -10.26584 -10.26552 -10.26398 -10.26194
 Alpha  occ. eigenvalues --  -10.26163 -10.26127 -10.26109 -10.26022 -10.26012
 Alpha  occ. eigenvalues --  -10.25980 -10.25848 -10.25786 -10.25772 -10.25766
 Alpha  occ. eigenvalues --  -10.25740 -10.25673 -10.25581 -10.25396 -10.25051
 Alpha  occ. eigenvalues --  -10.24811 -10.24704 -10.24633 -10.24604 -10.24517
 Alpha  occ. eigenvalues --  -10.23964 -10.23041  -1.09758  -1.08285  -0.94351
 Alpha  occ. eigenvalues --   -0.94099  -0.92292  -0.91775  -0.90949  -0.90453
 Alpha  occ. eigenvalues --   -0.87828  -0.87618  -0.86419  -0.85603  -0.85120
 Alpha  occ. eigenvalues --   -0.83449  -0.81859  -0.81072  -0.79931  -0.78275
 Alpha  occ. eigenvalues --   -0.77169  -0.76920  -0.76526  -0.76020  -0.75429
 Alpha  occ. eigenvalues --   -0.75252  -0.74815  -0.74199  -0.73752  -0.70702
 Alpha  occ. eigenvalues --   -0.69161  -0.67553  -0.66112  -0.65416  -0.64648
 Alpha  occ. eigenvalues --   -0.64055  -0.63030  -0.61464  -0.60348  -0.60185
 Alpha  occ. eigenvalues --   -0.59461  -0.59221  -0.58509  -0.58164  -0.56802
 Alpha  occ. eigenvalues --   -0.56507  -0.56104  -0.55536  -0.54881  -0.54311
 Alpha  occ. eigenvalues --   -0.53513  -0.52565  -0.52423  -0.51551  -0.51072
 Alpha  occ. eigenvalues --   -0.50622  -0.50177  -0.50087  -0.49818  -0.49420
 Alpha  occ. eigenvalues --   -0.49043  -0.48539  -0.48499  -0.48216  -0.47500
 Alpha  occ. eigenvalues --   -0.47457  -0.47214  -0.46890  -0.46525  -0.46344
 Alpha  occ. eigenvalues --   -0.45964  -0.45662  -0.45417  -0.45014  -0.44862
 Alpha  occ. eigenvalues --   -0.44540  -0.44443  -0.44396  -0.44025  -0.43798
 Alpha  occ. eigenvalues --   -0.43345  -0.43146  -0.42885  -0.42204  -0.42059
 Alpha  occ. eigenvalues --   -0.41833  -0.41607  -0.41220  -0.40860  -0.40519
 Alpha  occ. eigenvalues --   -0.40233  -0.40066  -0.39812  -0.39671  -0.39664
 Alpha  occ. eigenvalues --   -0.39376  -0.39269  -0.38750  -0.38442  -0.37985
 Alpha  occ. eigenvalues --   -0.37415  -0.37214  -0.37034  -0.36830  -0.36302
 Alpha  occ. eigenvalues --   -0.35659  -0.35170  -0.34252  -0.32281  -0.31837
 Alpha  occ. eigenvalues --   -0.31803  -0.29979  -0.28540  -0.26190  -0.23353
 Alpha  occ. eigenvalues --   -0.19356
 Alpha virt. eigenvalues --   -0.05747  -0.01002   0.02439   0.05546   0.08099
 Alpha virt. eigenvalues --    0.09603   0.10865   0.11600   0.12050   0.12163
 Alpha virt. eigenvalues --    0.12452   0.13129   0.13424   0.13784   0.13900

 Mulliken charges:
               1
     1  O   -0.561414
     2  O   -0.569099
     3  C   -0.019598
     4  C   -0.031056
     5  C   -0.209469
     6  C   -0.143089
     7  C    0.173951
     8  C    0.206855
     9  C    0.087313
    10  C    0.056405
    11  C   -0.220140
    12  C   -0.238995
    13  C    0.032549
    14  C    0.041720
    15  C   -0.253227
    16  C   -0.303504
    17  C   -0.302205
    18  C   -0.313967
    19  C   -0.112187
    20  C   -0.135477
    21  C   -0.356015
    22  C   -0.350440
    23  C   -0.095839
    24  C   -0.087190
    25  C    0.090488
    26  C    0.100834
    27  C   -0.364712
    28  C   -0.379119
    29  C   -0.144446
    30  C   -0.111272
    31  C   -0.077583
    32  C   -0.113638
    33  C   -0.089188
    34  C   -0.111085
    35  C    0.075476
    36  C    0.123100
    37  C   -0.365410
    38  C   -0.380342
    39  C   -0.092704
    40  C   -0.137626
    41  C   -0.090575
    42  C   -0.074709
    43  H    0.097657
    44  H    0.070546
    45  H    0.071666
    46  H    0.102023
    47  H    0.080479
    48  H    0.063374
    49  H    0.115491
    50  H    0.103138
    51  H    0.094733
    52  H    0.122585
    53  H    0.106341
    54  H    0.106290
    55  H    0.072766
    56  H    0.076062
    57  H    0.102479
    58  H    0.086566
    59  H    0.094943
    60  H    0.117282
    61  H    0.082323
    62  H    0.100071
    63  H    0.093474
    64  H    0.108914
    65  H    0.084552
    66  H    0.079918
    67  H    0.133502
    68  H    0.128555
    69  H    0.099030
    70  H    0.119716
    71  H    0.105698
    72  H    0.093483
    73  H    0.307728
    74  H    0.304942
    75  H    0.072868
    76  H    0.083144
    77  H    0.110157
    78  H    0.119303
    79  H    0.107097
    80  H    0.114885
    81  H    0.137143
    82  H    0.097674
    83  H    0.067061
    84  H    0.075086
    85  H    0.080707
    86  H    0.089813
    87  H    0.080557
    88  H    0.075075
    89  H    0.126959
    90  H    0.099379
    91  H    0.124945
    92  H    0.097329
    93  H    0.137179
    94  H    0.109808
    95  H    0.059164
    96  H    0.086879
    97  H    0.081767
    98  H    0.086320
 Sum of Mulliken charges =  -0.00000

 Dipole moment (field-independent basis, Debye):
    X=              0.0811    Y=             -1.4867    Z=              1.0668  Tot=              1.8317
 Quadrupole moment (field-independent basis, Debye-Ang):
   XX=           -277.8618   YY=           -241.9719   ZZ=           -262.8572
   XY=             12.8653   XZ=              4.4957   YZ=             -0.1682

 Normal termination of Gaussian 16 at Tue Jul  9 18:19:21 2019.
