 Gaussian 16, Revision A.03,
 Gaussian 16:  ES64L-G16RevA.03 25-Dec-2016

 -------------------------------------
 # td=(NStates=1) CAM-B3LYP/6-31G(d,p)
 -------------------------------------

 --
 TD
 --
 Symbolic Z-matrix:
 Charge =  0 Multiplicity = 1

                         Standard orientation:
 ---------------------------------------------------------------------
 Center     Atomic      Atomic             Coordinates (Angstroms)
 Number     Number       Type             X           Y           Z
 ---------------------------------------------------------------------
      1          8           0       14.682735   -2.245036   -0.246253
      2          8           0      -14.707360    1.918698    1.202688
      3          6           0       11.108678   -1.455844    1.022250
      4          6           0      -12.382118   -1.060200    0.606197
      5          6           0       12.653263   -1.915022    1.014752
      6          6           0      -13.637689   -0.334571    0.578733
      7          6           0       13.212526   -1.898709   -0.378262
      8          6           0      -13.511825    1.182382    0.931507
      9          6           0       10.924976   -0.308350    0.038116
     10          6           0      -11.268882   -0.217044   -0.181107
     11          6           0       13.326705   -0.462365   -0.955082
     12          6           0      -12.680695    1.772151   -0.113630
     13          6           0       11.899495    0.134320   -0.851754
     14          6           0      -11.493913    1.086660   -0.561735
     15          6           0       10.726656   -1.122574    2.495607
     16          6           0       10.323730   -2.703919    0.626079
     17          6           0      -11.841407   -1.453645    1.959104
     18          6           0      -12.686072   -2.465491   -0.099898
     19          6           0        9.651116    0.310916    0.187781
     20          6           0      -10.077287   -1.033237   -0.419478
     21          6           0       11.622762    1.112602   -1.867468
     22          6           0      -10.604980    1.916864   -1.379584
     23          6           0        9.421456    1.653526    0.067450
     24          6           0       -8.887752   -0.564340   -0.420491
     25          6           0        8.103079    2.198770    0.185617
     26          6           0       -7.568753   -1.254620   -0.481373
     27          6           0        8.051543    3.709217    0.508157
     28          6           0       -7.686288   -2.672159   -0.941988
     29          6           0        6.939336    1.513017    0.017084
     30          6           0       -6.372047   -0.557248   -0.489376
     31          6           0        5.619152    2.070553    0.286174
     32          6           0       -5.055446   -1.031585   -0.691485
     33          6           0        4.512900    1.199004    0.050937
     34          6           0       -3.956448   -0.235022   -0.367585
     35          6           0        3.161963    1.714156    0.142983
     36          6           0       -2.526339   -0.598456   -0.614740
     37          6           0        2.924464    3.128006    0.635081
     38          6           0       -2.255027   -2.016479   -1.041256
     39          6           0        2.218654    0.773202   -0.103124
     40          6           0       -1.573827    0.331968   -0.425676
     41          6           0        0.760663    0.979182   -0.107282
     42          6           0       -0.236379    0.031460   -0.430266
     43          1           0       13.132323   -1.060307    1.789418
     44          1           0       12.783919   -2.748859    1.550843
     45          1           0      -14.458013   -0.884820    1.317131
     46          1           0      -14.412754   -0.386256   -0.334017
     47          1           0       12.683484   -2.557235   -1.027245
     48          1           0      -12.839738    0.926333    1.969911
     49          1           0       14.192689    0.225812   -0.485356
     50          1           0       13.367555   -0.690369   -2.055810
     51          1           0      -13.232040    1.906148   -1.127802
     52          1           0      -12.633647    2.778882    0.287490
     53          1           0       10.794258   -2.018456    3.059790
     54          1           0        9.528399   -1.034223    2.537759
     55          1           0       11.143255   -0.128700    2.704367
     56          1           0       10.633030   -3.021156   -0.518848
     57          1           0       10.570419   -3.584437    1.342916
     58          1           0        9.255558   -2.477807    0.645226
     59          1           0      -11.901147   -0.468879    2.383076
     60          1           0      -10.773454   -1.625275    2.000375
     61          1           0      -12.262251   -2.382250    2.405401
     62          1           0      -13.301999   -2.829035    0.747318
     63          1           0      -11.827057   -3.116189   -0.254944
     64          1           0      -12.985299   -2.276136   -1.159864
     65          1           0        8.740935   -0.368182    0.332798
     66          1           0      -10.248573   -2.086188   -0.594061
     67          1           0       10.602624    1.367442   -2.220671
     68          1           0       11.937376    2.089445   -1.578241
     69          1           0       12.011659    0.893691   -2.919522
     70          1           0      -11.083456    2.568963   -2.019052
     71          1           0       -9.985851    1.416955   -2.156989
     72          1           0       -9.963363    2.372238   -0.711652
     73          1           0       14.854680   -3.166770   -0.006173
     74          1           0      -15.281225    1.277942    1.625558
     75          1           0       10.413444    2.085618    0.088017
     76          1           0       -8.788411    0.461481   -0.005404
     77          1           0        9.022437    4.100911    0.372815
     78          1           0        7.336134    4.040416   -0.375201
     79          1           0        7.644082    4.147722    1.418129
     80          1           0       -8.216184   -3.188636   -0.095733
     81          1           0       -8.454231   -2.728185   -1.723230
     82          1           0       -6.715526   -2.992075   -1.174662
     83          1           0        6.687228    0.501064   -0.323722
     84          1           0       -6.609311    0.636701   -0.342635
     85          1           0        5.636870    3.106391    0.592338
     86          1           0       -5.057095   -2.229074   -0.819473
     87          1           0        4.587917    0.295261   -0.531908
     88          1           0       -4.356879    0.944867   -0.263561
     89          1           0        3.066191    3.207452    1.789187
     90          1           0        1.971345    3.291960    0.226401
     91          1           0        3.535527    4.027117    0.038669
     92          1           0       -3.116449   -2.550812   -0.352310
     93          1           0       -2.798989   -1.945058   -2.053368
     94          1           0       -1.158831   -2.288202   -1.062341
     95          1           0        2.486507   -0.323759   -0.360018
     96          1           0       -1.915184    1.347801   -0.135532
     97          1           0        0.483890    1.956618    0.160271
     98          1           0        0.310566   -0.949685   -0.833147
 ---------------------------------------------------------------------

 SCF Done:  E(RCAM-B3LYP) =  -1706.94323135     A.U. after   14 cycles

 Excitation energies and oscillator strengths:

 Excited State   1:      Singlet-A      2.4475 eV  506.58 nm  f=3.5923  <S**2>=0.000
     155 ->158        -0.18018
     156 ->157         0.67776
 This state for optimization and/or second-order correction.
 Total Energy, E(TD-HF/TD-DFT) =  -1706.85328896
 Copying the excited state density for this state as the 1-particle RhoCI density.

 The electronic state is 1-A.
 Alpha  occ. eigenvalues --  -19.22613 -19.19648 -10.31974 -10.30722 -10.28841
 Alpha  occ. eigenvalues --  -10.28268 -10.27752 -10.27721 -10.27616 -10.27528
 Alpha  occ. eigenvalues --  -10.27509 -10.27380 -10.27343 -10.27306 -10.27279
 Alpha  occ. eigenvalues --  -10.27122 -10.27101 -10.27042 -10.26998 -10.26976
 Alpha  occ. eigenvalues --  -10.26799 -10.26508 -10.26449 -10.26446 -10.26365
 Alpha  occ. eigenvalues --  -10.26156 -10.25881 -10.25861 -10.25792 -10.25536
 Alpha  occ. eigenvalues --  -10.25428 -10.25385 -10.25253 -10.25253 -10.25252
 Alpha  occ. eigenvalues --  -10.25200 -10.25193 -10.25011 -10.24970 -10.24437
 Alpha  occ. eigenvalues --  -10.24327 -10.23851  -1.10358  -1.05629  -0.94577
 Alpha  occ. eigenvalues --   -0.93391  -0.92150  -0.91376  -0.90787  -0.89848
 Alpha  occ. eigenvalues --   -0.88825  -0.87288  -0.87082  -0.85719  -0.84839
 Alpha  occ. eigenvalues --   -0.83139  -0.82075  -0.81086  -0.80040  -0.77989
 Alpha  occ. eigenvalues --   -0.76700  -0.76269  -0.76124  -0.75945  -0.75720
 Alpha  occ. eigenvalues --   -0.75332  -0.75152  -0.74676  -0.73204  -0.70361
 Alpha  occ. eigenvalues --   -0.68731  -0.67375  -0.65712  -0.64374  -0.64090
 Alpha  occ. eigenvalues --   -0.63561  -0.62313  -0.61224  -0.60690  -0.59732
 Alpha  occ. eigenvalues --   -0.58594  -0.58207  -0.58008  -0.57123  -0.56664
 Alpha  occ. eigenvalues --   -0.55868  -0.55230  -0.54435  -0.53915  -0.53496
 Alpha  occ. eigenvalues --   -0.53276  -0.52996  -0.52504  -0.52324  -0.52091
 Alpha  occ. eigenvalues --   -0.51057  -0.50900  -0.50257  -0.49809  -0.49191
 Alpha  occ. eigenvalues --   -0.48784  -0.48594  -0.48529  -0.48050  -0.47779
 Alpha  occ. eigenvalues --   -0.47549  -0.47425  -0.47224  -0.46582  -0.46130
 Alpha  occ. eigenvalues --   -0.45786  -0.45527  -0.45430  -0.45424  -0.45033
 Alpha  occ. eigenvalues --   -0.44689  -0.44448  -0.44363  -0.44116  -0.43702
 Alpha  occ. eigenvalues --   -0.43357  -0.43038  -0.42816  -0.42589  -0.41962
 Alpha  occ. eigenvalues --   -0.41514  -0.41056  -0.40809  -0.40607  -0.40040
 Alpha  occ. eigenvalues --   -0.39894  -0.39802  -0.39659  -0.39257  -0.39024
 Alpha  occ. eigenvalues --   -0.38710  -0.38200  -0.38133  -0.37811  -0.37474
 Alpha  occ. eigenvalues --   -0.37124  -0.36971  -0.36714  -0.36406  -0.35471
 Alpha  occ. eigenvalues --   -0.35283  -0.34669  -0.34312  -0.32543  -0.31316
 Alpha  occ. eigenvalues --   -0.30909  -0.29461  -0.28093  -0.26010  -0.23467
 Alpha  occ. eigenvalues --   -0.20084
 Alpha virt. eigenvalues --   -0.04964  -0.01226   0.02335   0.05440   0.07490
 Alpha virt. eigenvalues --    0.09909   0.10723   0.11434   0.11627   0.12051
 Alpha virt. eigenvalues --    0.12316   0.12917   0.13188   0.13351   0.13430

 Mulliken charges:
               1
     1  O   -0.586246
     2  O   -0.554968
     3  C   -0.044819
     4  C   -0.031163
     5  C   -0.149367
     6  C   -0.197060
     7  C    0.156923
     8  C    0.179292
     9  C    0.075559
    10  C    0.030041
    11  C   -0.191818
    12  C   -0.208856
    13  C    0.025765
    14  C    0.054838
    15  C   -0.289386
    16  C   -0.282882
    17  C   -0.292409
    18  C   -0.297001
    19  C   -0.097848
    20  C   -0.094035
    21  C   -0.387696
    22  C   -0.362903
    23  C   -0.110418
    24  C   -0.097249
    25  C    0.052450
    26  C    0.074900
    27  C   -0.371681
    28  C   -0.359444
    29  C   -0.098702
    30  C   -0.109051
    31  C   -0.084814
    32  C   -0.101296
    33  C   -0.141389
    34  C   -0.120062
    35  C    0.103930
    36  C    0.085894
    37  C   -0.351260
    38  C   -0.350670
    39  C   -0.124657
    40  C   -0.100157
    41  C   -0.101855
    42  C   -0.091728
    43  H    0.065307
    44  H    0.085549
    45  H    0.040847
    46  H    0.088013
    47  H    0.101922
    48  H    0.041109
    49  H    0.128904
    50  H    0.110149
    51  H    0.106692
    52  H    0.125283
    53  H    0.109610
    54  H    0.076363
    55  H    0.117283
    56  H    0.073055
    57  H    0.091775
    58  H    0.104286
    59  H    0.103312
    60  H    0.117679
    61  H    0.099084
    62  H    0.103316
    63  H    0.096844
    64  H    0.106164
    65  H    0.083046
    66  H    0.073356
    67  H    0.126091
    68  H    0.123220
    69  H    0.093969
    70  H    0.112282
    71  H    0.116391
    72  H    0.134687
    73  H    0.293640
    74  H    0.315031
    75  H    0.092113
    76  H    0.071295
    77  H    0.114954
    78  H    0.106260
    79  H    0.125373
    80  H    0.113575
    81  H    0.129214
    82  H    0.102121
    83  H    0.079846
    84  H    0.063789
    85  H    0.091617
    86  H    0.085560
    87  H    0.095977
    88  H    0.083693
    89  H    0.131293
    90  H    0.122445
    91  H    0.093412
    92  H    0.109299
    93  H    0.131330
    94  H    0.117196
    95  H    0.074688
    96  H    0.091881
    97  H    0.073988
    98  H    0.078117
 Sum of Mulliken charges =  -0.00000

 Dipole moment (field-independent basis, Debye):
    X=             -0.9621    Y=             -1.6174    Z=             -0.2285  Tot=              1.8957
 Quadrupole moment (field-independent basis, Debye-Ang):
   XX=           -287.6926   YY=           -244.6200   ZZ=           -263.5354
   XY=             11.1596   XZ=              2.2853   YZ=             -0.8228

 Normal termination of Gaussian 16 at Sat Jul 13 15:08:39 2019.
