 Gaussian 16, Revision A.03,
 Gaussian 16:  ES64L-G16RevA.03 25-Dec-2016

 -------------------------------------
 # td=(NStates=1) CAM-B3LYP/6-31G(d,p)
 -------------------------------------

 --
 TD
 --
 Symbolic Z-matrix:
 Charge =  0 Multiplicity = 1

                         Standard orientation:
 ---------------------------------------------------------------------
 Center     Atomic      Atomic             Coordinates (Angstroms)
 Number     Number       Type             X           Y           Z
 ---------------------------------------------------------------------
      1          8           0       14.755443   -2.180794    0.218236
      2          8           0      -14.755767    1.798617    1.538593
      3          6           0       11.023594   -1.631889    0.886109
      4          6           0      -12.304878   -1.048072    0.516218
      5          6           0       12.558950   -1.988618    1.126361
      6          6           0      -13.630652   -0.285654    0.702546
      7          6           0       13.368194   -1.820999   -0.100146
      8          6           0      -13.482440    1.097167    1.253315
      9          6           0       10.876157   -0.317522    0.139740
     10          6           0      -11.232514   -0.240186   -0.233652
     11          6           0       13.357380   -0.369890   -0.550867
     12          6           0      -12.607471    1.890377    0.282141
     13          6           0       11.972776    0.205204   -0.571374
     14          6           0      -11.478421    1.049086   -0.402769
     15          6           0       10.386496   -1.563767    2.412642
     16          6           0       10.271372   -2.811531    0.199913
     17          6           0      -11.791739   -1.568485    1.911608
     18          6           0      -12.635604   -2.334758   -0.303319
     19          6           0        9.627585    0.347436    0.186815
     20          6           0      -10.013285   -0.970175   -0.691787
     21          6           0       11.889031    1.400944   -1.586438
     22          6           0      -10.508717    2.015845   -1.042933
     23          6           0        9.338700    1.651690    0.158391
     24          6           0       -8.796107   -0.558276   -0.454464
     25          6           0        8.006908    2.303349    0.061783
     26          6           0       -7.580531   -1.154609   -0.754420
     27          6           0        7.870327    3.856828    0.587178
     28          6           0       -7.565986   -2.572738   -1.081371
     29          6           0        6.860078    1.755942   -0.225327
     30          6           0       -6.347048   -0.533951   -0.543578
     31          6           0        5.621487    2.188310   -0.231377
     32          6           0       -4.997137   -1.020177   -0.665833
     33          6           0        4.450280    1.367786   -0.406742
     34          6           0       -3.847268   -0.343591   -0.393142
     35          6           0        3.074170    1.715469   -0.100967
     36          6           0       -2.619328   -0.792368   -0.712386
     37          6           0        2.748905    3.162125    0.379320
     38          6           0       -2.385729   -2.155861   -1.166640
     39          6           0        2.122706    0.800367   -0.407136
     40          6           0       -1.598290    0.055169   -0.360554
     41          6           0        0.733551    0.881543   -0.168354
     42          6           0       -0.216552   -0.048631   -0.528223
     43          1           0       12.894802   -1.324963    2.146104
     44          1           0       12.468736   -2.974251    1.624363
     45          1           0      -14.326823   -0.781467    1.389686
     46          1           0      -14.375011   -0.152653   -0.193737
     47          1           0       13.335406   -2.573676   -0.855529
     48          1           0      -12.809965    1.093026    2.075050
     49          1           0       14.129361    0.372933   -0.041580
     50          1           0       13.943345   -0.391668   -1.523821
     51          1           0      -13.253494    2.223496   -0.520048
     52          1           0      -12.329784    2.938209    0.896994
     53          1           0       10.293265   -2.523553    2.950641
     54          1           0        9.289095   -1.442130    2.438166
     55          1           0       10.853973   -0.750422    3.063044
     56          1           0       10.548950   -2.829173   -0.935667
     57          1           0       10.524678   -3.711707    0.569932
     58          1           0        9.272749   -2.357881    0.160444
     59          1           0      -11.564364   -0.599927    2.319992
     60          1           0      -10.833881   -2.229092    1.705074
     61          1           0      -12.559443   -2.109586    2.346315
     62          1           0      -13.536139   -2.825837    0.180118
     63          1           0      -11.942210   -3.105246   -0.393618
     64          1           0      -13.100513   -2.087664   -1.286050
     65          1           0        8.797350   -0.666973    0.171346
     66          1           0      -10.245244   -1.946180   -1.400252
     67          1           0       10.938751    1.753382   -1.993736
     68          1           0       12.457089    2.347075   -1.230730
     69          1           0       12.525562    1.036071   -2.500096
     70          1           0      -11.051623    2.754240   -1.545541
     71          1           0       -9.984858    1.338888   -1.799392
     72          1           0       -9.852985    2.606451   -0.398480
     73          1           0       15.018494   -2.954029    0.754366
     74          1           0      -15.161610    1.552839    2.325266
     75          1           0       10.211752    2.264083    0.362599
     76          1           0       -8.628353    0.628206   -0.259854
     77          1           0        8.859798    4.484837    0.675617
     78          1           0        7.303535    4.323185   -0.087983
     79          1           0        7.175343    3.851441    1.459054
     80          1           0       -8.111121   -3.161930   -0.301060
     81          1           0       -8.062794   -2.955992   -1.978168
     82          1           0       -6.626666   -3.058533   -1.037955
     83          1           0        7.243759    0.711175   -0.444368
     84          1           0       -6.283590    0.470462   -0.553837
     85          1           0        5.724107    3.180908    0.150469
     86          1           0       -4.861171   -2.131514   -0.707093
     87          1           0        4.655314    0.172380   -0.598632
     88          1           0       -4.017646    0.708094   -0.230768
     89          1           0        2.497063    3.151353    1.686006
     90          1           0        1.547248    3.510546   -0.300842
     91          1           0        3.632784    3.667756   -0.074436
     92          1           0       -2.551464   -2.709749   -0.137714
     93          1           0       -2.987540   -2.420392   -1.996325
     94          1           0       -1.263256   -2.425707   -1.473313
     95          1           0        2.462707   -0.231902   -0.766108
     96          1           0       -1.959478    0.985644    0.028630
     97          1           0        0.238063    1.747543    0.270606
     98          1           0        0.326857   -1.060347   -0.959468
 ---------------------------------------------------------------------

 SCF Done:  E(RCAM-B3LYP) =  -1706.87257086     A.U. after   15 cycles

 Excitation energies and oscillator strengths:

 Excited State   1:      Singlet-A      2.1664 eV  572.31 nm  f=3.8685  <S**2>=0.000
     155 ->158        -0.15724
     156 ->157         0.68850
 This state for optimization and/or second-order correction.
 Total Energy, E(TD-HF/TD-DFT) =  -1706.79295720
 Copying the excited state density for this state as the 1-particle RhoCI density.

 The electronic state is 1-A.
 Alpha  occ. eigenvalues --  -19.20709 -19.18525 -10.30931 -10.30620 -10.29856
 Alpha  occ. eigenvalues --  -10.29121 -10.28495 -10.28414 -10.27873 -10.27778
 Alpha  occ. eigenvalues --  -10.27735 -10.27708 -10.27541 -10.27311 -10.27280
 Alpha  occ. eigenvalues --  -10.27066 -10.26921 -10.26861 -10.26758 -10.26713
 Alpha  occ. eigenvalues --  -10.26678 -10.26668 -10.26550 -10.26515 -10.26500
 Alpha  occ. eigenvalues --  -10.26453 -10.26416 -10.26345 -10.26284 -10.26051
 Alpha  occ. eigenvalues --  -10.26003 -10.25882 -10.25658 -10.25429 -10.25421
 Alpha  occ. eigenvalues --  -10.25362 -10.25059 -10.24744 -10.24613 -10.24255
 Alpha  occ. eigenvalues --  -10.24189 -10.23961  -1.08141  -1.06173  -0.94056
 Alpha  occ. eigenvalues --   -0.93643  -0.93227  -0.92179  -0.91618  -0.90445
 Alpha  occ. eigenvalues --   -0.87476  -0.86665  -0.86177  -0.85960  -0.85424
 Alpha  occ. eigenvalues --   -0.83606  -0.82092  -0.80688  -0.79693  -0.78291
 Alpha  occ. eigenvalues --   -0.77198  -0.76498  -0.76445  -0.75862  -0.75653
 Alpha  occ. eigenvalues --   -0.74676  -0.74633  -0.74559  -0.74097  -0.71700
 Alpha  occ. eigenvalues --   -0.69852  -0.68235  -0.66456  -0.64847  -0.64513
 Alpha  occ. eigenvalues --   -0.63830  -0.63178  -0.61089  -0.60829  -0.60219
 Alpha  occ. eigenvalues --   -0.58872  -0.58352  -0.57786  -0.56471  -0.56180
 Alpha  occ. eigenvalues --   -0.56162  -0.55305  -0.54724  -0.54019  -0.53746
 Alpha  occ. eigenvalues --   -0.53432  -0.52321  -0.51764  -0.51418  -0.50793
 Alpha  occ. eigenvalues --   -0.50325  -0.50270  -0.49991  -0.49705  -0.49529
 Alpha  occ. eigenvalues --   -0.49086  -0.48694  -0.48110  -0.47981  -0.47603
 Alpha  occ. eigenvalues --   -0.47421  -0.47124  -0.46996  -0.46558  -0.46343
 Alpha  occ. eigenvalues --   -0.45874  -0.45597  -0.45322  -0.45050  -0.44750
 Alpha  occ. eigenvalues --   -0.44463  -0.44196  -0.43733  -0.43662  -0.43159
 Alpha  occ. eigenvalues --   -0.42821  -0.42090  -0.42014  -0.41726  -0.41645
 Alpha  occ. eigenvalues --   -0.41352  -0.41024  -0.40947  -0.40369  -0.40219
 Alpha  occ. eigenvalues --   -0.39943  -0.39883  -0.39805  -0.39710  -0.39537
 Alpha  occ. eigenvalues --   -0.39245  -0.38499  -0.37920  -0.37749  -0.37420
 Alpha  occ. eigenvalues --   -0.37332  -0.36876  -0.36411  -0.35715  -0.35344
 Alpha  occ. eigenvalues --   -0.34759  -0.34208  -0.33591  -0.33084  -0.32630
 Alpha  occ. eigenvalues --   -0.30959  -0.30124  -0.28628  -0.26860  -0.23727
 Alpha  occ. eigenvalues --   -0.19806
 Alpha virt. eigenvalues --   -0.06457  -0.01911   0.01945   0.04953   0.07548
 Alpha virt. eigenvalues --    0.09094   0.09736   0.10599   0.11260   0.11453
 Alpha virt. eigenvalues --    0.11876   0.12211   0.12662   0.13342   0.13477

 Mulliken charges:
               1
     1  O   -0.629142
     2  O   -0.574311
     3  C   -0.048539
     4  C   -0.047002
     5  C   -0.183798
     6  C   -0.178925
     7  C    0.204558
     8  C    0.153091
     9  C    0.080319
    10  C    0.100059
    11  C   -0.222340
    12  C   -0.215508
    13  C    0.044706
    14  C    0.023616
    15  C   -0.322980
    16  C   -0.285350
    17  C   -0.279651
    18  C   -0.311739
    19  C   -0.061475
    20  C   -0.161131
    21  C   -0.359705
    22  C   -0.361410
    23  C   -0.142837
    24  C   -0.080297
    25  C    0.055084
    26  C    0.146484
    27  C   -0.403308
    28  C   -0.393351
    29  C   -0.057185
    30  C   -0.129038
    31  C   -0.100422
    32  C   -0.110226
    33  C   -0.121484
    34  C   -0.110717
    35  C    0.105680
    36  C    0.153610
    37  C   -0.310498
    38  C   -0.372581
    39  C   -0.114235
    40  C   -0.137058
    41  C   -0.081822
    42  C   -0.073732
    43  H    0.080015
    44  H    0.082960
    45  H    0.081238
    46  H    0.093879
    47  H    0.116898
    48  H    0.089356
    49  H    0.123036
    50  H    0.109997
    51  H    0.121912
    52  H    0.082394
    53  H    0.097091
    54  H    0.097737
    55  H    0.105224
    56  H    0.088623
    57  H    0.117151
    58  H    0.103705
    59  H    0.105818
    60  H    0.095458
    61  H    0.111662
    62  H    0.084317
    63  H    0.106352
    64  H    0.098844
    65  H    0.053344
    66  H    0.094978
    67  H    0.130071
    68  H    0.104638
    69  H    0.096138
    70  H    0.108840
    71  H    0.107062
    72  H    0.118658
    73  H    0.303479
    74  H    0.302823
    75  H    0.103924
    76  H    0.086916
    77  H    0.096260
    78  H    0.137541
    79  H    0.123764
    80  H    0.109142
    81  H    0.118898
    82  H    0.113905
    83  H    0.059067
    84  H    0.072376
    85  H    0.074325
    86  H    0.077226
    87  H    0.087470
    88  H    0.084047
    89  H    0.102859
    90  H    0.061788
    91  H    0.133057
    92  H    0.125418
    93  H    0.131562
    94  H    0.101904
    95  H    0.078594
    96  H    0.078947
    97  H    0.080038
    98  H    0.061866
 Sum of Mulliken charges =  -0.00000

 Dipole moment (field-independent basis, Debye):
    X=             -0.1243    Y=             -2.2631    Z=              1.2761  Tot=              2.6010
 Quadrupole moment (field-independent basis, Debye-Ang):
   XX=           -284.1150   YY=           -245.1066   ZZ=           -260.2622
   XY=              6.6954   XZ=             -6.5891   YZ=              1.6834

 Normal termination of Gaussian 16 at Sat Jul 13 14:52:21 2019.
