 Gaussian 16, Revision A.03,
 Gaussian 16:  ES64L-G16RevA.03 25-Dec-2016

 -------------------------------------
 # td=(NStates=1) CAM-B3LYP/6-31G(d,p)
 -------------------------------------

 --
 TD
 --
 Symbolic Z-matrix:
 Charge =  0 Multiplicity = 1

                         Standard orientation:
 ---------------------------------------------------------------------
 Center     Atomic      Atomic             Coordinates (Angstroms)
 Number     Number       Type             X           Y           Z
 ---------------------------------------------------------------------
      1          8           0       14.806814   -2.027273   -0.564669
      2          8           0      -14.800297    2.056208    0.654432
      3          6           0       11.265590   -1.457580    0.937992
      4          6           0      -12.364187   -1.054624    0.646920
      5          6           0       12.746178   -1.910762    0.839472
      6          6           0      -13.688548   -0.276850    0.507516
      7          6           0       13.358930   -1.806994   -0.503690
      8          6           0      -13.587737    1.286858    0.820435
      9          6           0       11.005361   -0.192401    0.043430
     10          6           0      -11.338385   -0.271947   -0.194141
     11          6           0       13.302899   -0.323718   -0.989906
     12          6           0      -12.715887    1.885341   -0.345419
     13          6           0       11.901239    0.247350   -0.845912
     14          6           0      -11.541119    1.062649   -0.708427
     15          6           0       10.908564   -1.247378    2.391313
     16          6           0       10.482804   -2.745217    0.415584
     17          6           0      -11.945857   -1.174895    2.037616
     18          6           0      -12.648516   -2.362812   -0.002844
     19          6           0        9.634867    0.334291    0.179097
     20          6           0      -10.049772   -1.074527   -0.435157
     21          6           0       11.668385    1.352522   -1.842899
     22          6           0      -10.615247    1.695070   -1.672357
     23          6           0        9.375149    1.623564    0.079487
     24          6           0       -8.803177   -0.575338   -0.276793
     25          6           0        8.068612    2.274752    0.136496
     26          6           0       -7.521738   -1.287041   -0.530604
     27          6           0        7.882223    3.733332    0.488936
     28          6           0       -7.648024   -2.821447   -0.850351
     29          6           0        6.947725    1.450128    0.026563
     30          6           0       -6.444270   -0.641299   -0.409054
     31          6           0        5.600928    1.913333    0.300681
     32          6           0       -5.089668   -1.153710   -0.539591
     33          6           0        4.456515    1.188886    0.044112
     34          6           0       -3.930133   -0.311919   -0.255091
     35          6           0        3.158195    1.593653    0.276130
     36          6           0       -2.654401   -0.699357   -0.380774
     37          6           0        2.804429    3.027104    0.749099
     38          6           0       -2.258214   -2.169885   -0.744819
     39          6           0        2.071368    0.782170   -0.059358
     40          6           0       -1.584666    0.151742   -0.197695
     41          6           0        0.655024    0.922950    0.150307
     42          6           0       -0.190630   -0.106781   -0.078070
     43          1           0       13.130418   -1.122633    1.441009
     44          1           0       12.797374   -2.859828    1.194339
     45          1           0      -14.613920   -0.706089    1.193004
     46          1           0      -14.169888   -0.260202   -0.475988
     47          1           0       12.880792   -2.543217   -1.214224
     48          1           0      -13.046535    1.432972    1.627034
     49          1           0       13.997335    0.229655   -0.369346
     50          1           0       13.696850   -0.267666   -2.070294
     51          1           0      -13.390991    1.977747   -1.122428
     52          1           0      -12.519991    2.994205    0.085290
     53          1           0       11.196841   -2.207619    2.924833
     54          1           0       10.039511   -1.076543    2.642745
     55          1           0       11.358408   -0.514881    2.957224
     56          1           0       10.557210   -3.079050   -0.554758
     57          1           0       10.495895   -3.401861    1.157923
     58          1           0        9.306721   -2.475018    0.322762
     59          1           0      -11.769543   -0.322930    2.504332
     60          1           0      -10.870241   -1.528305    2.114023
     61          1           0      -12.661992   -1.823346    2.491308
     62          1           0      -13.627199   -2.911385    0.406970
     63          1           0      -11.862308   -3.124186    0.040719
     64          1           0      -12.715660   -2.294343   -1.016683
     65          1           0        8.751570   -0.360960    0.574291
     66          1           0      -10.267806   -2.146797   -0.662954
     67          1           0       10.554436    1.717944   -1.974032
     68          1           0       11.985092    2.283815   -1.379622
     69          1           0       12.350859    1.333702   -2.738801
     70          1           0      -11.251499    2.301461   -2.401548
     71          1           0       -9.921584    1.192503   -2.016214
     72          1           0      -10.067933    2.666005   -1.121339
     73          1           0       15.100181   -3.019760   -0.425172
     74          1           0      -15.227586    1.867908    1.465100
     75          1           0       10.013454    2.462677   -0.200943
     76          1           0       -8.631432    0.364158    0.068798
     77          1           0        8.792698    4.340453    0.776780
     78          1           0        7.406720    4.356186   -0.320267
     79          1           0        7.068092    3.828041    1.244344
     80          1           0       -8.156960   -3.136160   -0.028820
     81          1           0       -8.222048   -3.090911   -1.780718
     82          1           0       -6.677545   -3.248868   -1.072696
     83          1           0        7.213646    0.341771   -0.215991
     84          1           0       -6.648427    0.419260   -0.003047
     85          1           0        5.290741    2.921738    0.775148
     86          1           0       -4.943142   -2.240197   -0.873691
     87          1           0        4.498817    0.100898   -0.255410
     88          1           0       -4.256767    0.693754    0.072491
     89          1           0        3.096275    3.292749    1.885353
     90          1           0        1.707207    3.200742    0.671142
     91          1           0        3.408708    3.749549    0.236112
     92          1           0       -2.798729   -2.716673    0.093339
     93          1           0       -2.496336   -2.431258   -1.733804
     94          1           0       -1.119370   -2.312871   -0.603566
     95          1           0        2.389290   -0.339286   -0.327326
     96          1           0       -1.724836    1.211566   -0.095492
     97          1           0        0.217924    1.952073    0.249068
     98          1           0        0.256224   -1.057428   -0.127828
 ---------------------------------------------------------------------

 SCF Done:  E(RCAM-B3LYP) =  -1706.97780113     A.U. after   15 cycles

 Excitation energies and oscillator strengths:

 Excited State   1:      Singlet-A      2.3002 eV  539.01 nm  f=3.6539  <S**2>=0.000
     155 ->158         0.15760
     156 ->157         0.68802
 This state for optimization and/or second-order correction.
 Total Energy, E(TD-HF/TD-DFT) =  -1706.89326885
 Copying the excited state density for this state as the 1-particle RhoCI density.

 The electronic state is 1-A.
 Alpha  occ. eigenvalues --  -19.21846 -19.20960 -10.30532 -10.29411 -10.27952
 Alpha  occ. eigenvalues --  -10.27912 -10.27380 -10.27356 -10.27277 -10.27209
 Alpha  occ. eigenvalues --  -10.27146 -10.27051 -10.26985 -10.26803 -10.26769
 Alpha  occ. eigenvalues --  -10.26760 -10.26665 -10.26645 -10.26604 -10.26569
 Alpha  occ. eigenvalues --  -10.26524 -10.26460 -10.26232 -10.26139 -10.26041
 Alpha  occ. eigenvalues --  -10.25992 -10.25929 -10.25837 -10.25806 -10.25580
 Alpha  occ. eigenvalues --  -10.25551 -10.25534 -10.25513 -10.25510 -10.25158
 Alpha  occ. eigenvalues --  -10.24938 -10.24752 -10.24511 -10.24171 -10.23303
 Alpha  occ. eigenvalues --  -10.23186 -10.22565  -1.10132  -1.06132  -0.93549
 Alpha  occ. eigenvalues --   -0.93402  -0.92239  -0.91562  -0.90900  -0.89965
 Alpha  occ. eigenvalues --   -0.87701  -0.87559  -0.87091  -0.84878  -0.84445
 Alpha  occ. eigenvalues --   -0.82331  -0.81415  -0.80447  -0.79619  -0.78194
 Alpha  occ. eigenvalues --   -0.77845  -0.77568  -0.76821  -0.76452  -0.75728
 Alpha  occ. eigenvalues --   -0.75499  -0.75222  -0.74759  -0.73469  -0.71013
 Alpha  occ. eigenvalues --   -0.69038  -0.67775  -0.66194  -0.65595  -0.64280
 Alpha  occ. eigenvalues --   -0.63998  -0.62976  -0.62532  -0.60103  -0.59716
 Alpha  occ. eigenvalues --   -0.59065  -0.58490  -0.58205  -0.57105  -0.56398
 Alpha  occ. eigenvalues --   -0.56217  -0.55630  -0.55074  -0.54023  -0.53947
 Alpha  occ. eigenvalues --   -0.53009  -0.52603  -0.52072  -0.51549  -0.51184
 Alpha  occ. eigenvalues --   -0.50735  -0.50341  -0.50242  -0.49899  -0.49078
 Alpha  occ. eigenvalues --   -0.48918  -0.48410  -0.48166  -0.47877  -0.47861
 Alpha  occ. eigenvalues --   -0.47640  -0.47476  -0.47014  -0.46468  -0.46225
 Alpha  occ. eigenvalues --   -0.45868  -0.45704  -0.45265  -0.45170  -0.44903
 Alpha  occ. eigenvalues --   -0.44773  -0.44328  -0.44048  -0.43847  -0.43591
 Alpha  occ. eigenvalues --   -0.43324  -0.43110  -0.42797  -0.42605  -0.42043
 Alpha  occ. eigenvalues --   -0.41705  -0.41417  -0.41178  -0.41063  -0.40738
 Alpha  occ. eigenvalues --   -0.40476  -0.40332  -0.40252  -0.39941  -0.39462
 Alpha  occ. eigenvalues --   -0.39167  -0.38970  -0.38722  -0.38573  -0.38463
 Alpha  occ. eigenvalues --   -0.38120  -0.37443  -0.36752  -0.36392  -0.35538
 Alpha  occ. eigenvalues --   -0.34913  -0.34633  -0.34294  -0.32535  -0.32278
 Alpha  occ. eigenvalues --   -0.31996  -0.30239  -0.27824  -0.25995  -0.23649
 Alpha  occ. eigenvalues --   -0.19677
 Alpha virt. eigenvalues --   -0.05596  -0.00847   0.02810   0.05074   0.08139
 Alpha virt. eigenvalues --    0.09718   0.11351   0.11842   0.11865   0.12518
 Alpha virt. eigenvalues --    0.12817   0.13250   0.13566   0.13855   0.13952

 Mulliken charges:
               1
     1  O   -0.581295
     2  O   -0.539825
     3  C   -0.041995
     4  C    0.009141
     5  C   -0.158521
     6  C   -0.183469
     7  C    0.171847
     8  C    0.122281
     9  C    0.059512
    10  C   -0.005538
    11  C   -0.231322
    12  C   -0.231376
    13  C    0.068618
    14  C    0.075114
    15  C   -0.292027
    16  C   -0.301801
    17  C   -0.276885
    18  C   -0.310573
    19  C   -0.128927
    20  C   -0.140902
    21  C   -0.384603
    22  C   -0.317228
    23  C   -0.079770
    24  C   -0.089933
    25  C    0.081984
    26  C    0.128017
    27  C   -0.384415
    28  C   -0.361058
    29  C   -0.120063
    30  C   -0.134183
    31  C   -0.114584
    32  C   -0.126098
    33  C   -0.097182
    34  C   -0.115930
    35  C    0.137463
    36  C    0.107899
    37  C   -0.375523
    38  C   -0.358529
    39  C   -0.157834
    40  C   -0.136607
    41  C   -0.089830
    42  C   -0.051914
    43  H    0.104765
    44  H    0.083507
    45  H    0.041455
    46  H    0.108360
    47  H    0.074094
    48  H    0.098507
    49  H    0.133389
    50  H    0.103714
    51  H    0.134278
    52  H    0.090804
    53  H    0.081078
    54  H    0.110941
    55  H    0.110177
    56  H    0.119600
    57  H    0.113413
    58  H    0.057069
    59  H    0.109518
    60  H    0.094352
    61  H    0.102929
    62  H    0.085238
    63  H    0.095407
    64  H    0.122283
    65  H    0.099721
    66  H    0.087083
    67  H    0.113219
    68  H    0.123922
    69  H    0.105951
    70  H    0.106366
    71  H    0.115986
    72  H    0.072318
    73  H    0.299017
    74  H    0.302550
    75  H    0.081284
    76  H    0.079958
    77  H    0.106807
    78  H    0.120999
    79  H    0.127655
    80  H    0.135471
    81  H    0.112170
    82  H    0.104403
    83  H    0.087419
    84  H    0.073604
    85  H    0.081352
    86  H    0.091617
    87  H    0.075897
    88  H    0.089480
    89  H    0.096775
    90  H    0.110576
    91  H    0.124414
    92  H    0.114724
    93  H    0.133426
    94  H    0.098918
    95  H    0.062430
    96  H    0.073881
    97  H    0.086964
    98  H    0.086630
 Sum of Mulliken charges =  -0.00000

 Dipole moment (field-independent basis, Debye):
    X=              0.0665    Y=             -1.4884    Z=              1.7965  Tot=              2.3340
 Quadrupole moment (field-independent basis, Debye-Ang):
   XX=           -273.6794   YY=           -239.9858   ZZ=           -261.0726
   XY=              2.3552   XZ=            -10.8214   YZ=              5.4175

 Normal termination of Gaussian 16 at Sat Jul 20 06:41:59 2019.
