 Gaussian 16, Revision A.03,
 Gaussian 16:  ES64L-G16RevA.03 25-Dec-2016

 -------------------------------------
 # td=(NStates=1) CAM-B3LYP/6-31G(d,p)
 -------------------------------------

 --
 TD
 --
 Symbolic Z-matrix:
 Charge =  0 Multiplicity = 1

                         Standard orientation:
 ---------------------------------------------------------------------
 Center     Atomic      Atomic             Coordinates (Angstroms)
 Number     Number       Type             X           Y           Z
 ---------------------------------------------------------------------
      1          8           0       14.677164   -2.262828   -0.034383
      2          8           0      -14.779575    1.788967    1.141682
      3          6           0       11.103315   -1.500345    1.023222
      4          6           0      -12.308885   -1.038143    0.757242
      5          6           0       12.572316   -1.938188    1.176817
      6          6           0      -13.702337   -0.356224    0.727259
      7          6           0       13.357340   -1.860406   -0.195607
      8          6           0      -13.625940    1.137174    0.993612
      9          6           0       10.955364   -0.290133    0.138498
     10          6           0      -11.304055   -0.269901   -0.143916
     11          6           0       13.308008   -0.464680   -0.782331
     12          6           0      -12.805415    1.803262   -0.150519
     13          6           0       11.928114    0.157439   -0.683476
     14          6           0      -11.580556    1.048197   -0.500254
     15          6           0       10.595418   -1.371498    2.367329
     16          6           0       10.156624   -2.602201    0.210660
     17          6           0      -11.639711   -1.229795    2.138956
     18          6           0      -12.541196   -2.496855    0.141251
     19          6           0        9.619092    0.372568    0.235622
     20          6           0      -10.014752   -0.905194   -0.394165
     21          6           0       11.885977    1.279090   -1.670878
     22          6           0      -10.619837    1.873930   -1.360886
     23          6           0        9.388385    1.683517    0.169981
     24          6           0       -8.738796   -0.397874   -0.351545
     25          6           0        8.098959    2.260837    0.260547
     26          6           0       -7.604481   -1.201411   -0.548306
     27          6           0        7.838011    3.723106    0.659951
     28          6           0       -7.858330   -2.730343   -0.957935
     29          6           0        6.913601    1.489261   -0.111748
     30          6           0       -6.359089   -0.588941   -0.488228
     31          6           0        5.661254    2.088262    0.043063
     32          6           0       -5.049428   -1.106813   -0.727889
     33          6           0        4.483179    1.348284   -0.143267
     34          6           0       -3.912334   -0.250636   -0.608820
     35          6           0        3.119283    1.801854   -0.021404
     36          6           0       -2.602192   -0.694167   -0.794272
     37          6           0        2.924224    3.072011    0.525324
     38          6           0       -2.214303   -2.076018   -1.389397
     39          6           0        2.161006    0.882290   -0.214029
     40          6           0       -1.624750    0.147223   -0.482847
     41          6           0        0.848390    1.007643   -0.248154
     42          6           0       -0.151027    0.017320   -0.567625
     43          1           0       12.921331   -1.261665    1.975124
     44          1           0       12.650993   -2.988592    1.554170
     45          1           0      -14.261289   -0.854321    1.514371
     46          1           0      -14.256869   -0.456545   -0.228591
     47          1           0       12.753906   -2.604969   -0.812889
     48          1           0      -12.953196    1.254807    2.015450
     49          1           0       14.094590    0.007962   -0.274172
     50          1           0       13.575605   -0.336741   -1.952011
     51          1           0      -13.718392    1.725697   -1.004307
     52          1           0      -12.798344    2.724572    0.056148
     53          1           0       10.907847   -2.224860    3.086406
     54          1           0        9.437776   -0.909641    2.344419
     55          1           0       11.197555   -0.617862    2.719609
     56          1           0       10.118554   -2.648687   -0.917568
     57          1           0       10.715262   -3.747846    0.412926
     58          1           0        9.268270   -2.442796    0.521258
     59          1           0      -11.165631   -0.287324    2.597031
     60          1           0      -10.920431   -1.983859    2.083426
     61          1           0      -12.388281   -1.710552    2.783141
     62          1           0      -13.284868   -3.264914    0.760833
     63          1           0      -11.471212   -2.937026    0.154748
     64          1           0      -12.799437   -2.348684   -0.900247
     65          1           0        8.957605   -0.335414    0.567704
     66          1           0      -10.010947   -1.976391   -0.841737
     67          1           0       10.748891    1.550976   -1.888809
     68          1           0       12.463918    2.112850   -1.246612
     69          1           0       12.296173    0.934968   -2.617899
     70          1           0      -11.219578    2.568441   -1.888436
     71          1           0       -9.683372    1.336685   -2.056196
     72          1           0      -10.061290    2.609781   -0.624580
     73          1           0       14.634725   -3.224494    0.074096
     74          1           0      -15.147930    1.423833    1.785750
     75          1           0       10.176032    2.205863    0.273402
     76          1           0       -8.684420    0.590292   -0.022336
     77          1           0        8.936646    3.992457    0.616084
     78          1           0        7.207223    4.257554   -0.034074
     79          1           0        7.420439    3.784512    1.667716
     80          1           0       -8.215995   -3.291099   -0.085241
     81          1           0       -8.451677   -2.876651   -1.784024
     82          1           0       -6.905948   -3.135726   -1.113217
     83          1           0        6.956865    0.621084   -0.675584
     84          1           0       -6.333287    0.456429   -0.149017
     85          1           0        5.568915    3.062768    0.326506
     86          1           0       -4.939490   -2.134370   -1.157989
     87          1           0        4.518514    0.261733   -0.256453
     88          1           0       -3.982503    0.940526   -0.169558
     89          1           0        3.471315    2.959246    1.461759
     90          1           0        1.829199    3.228225    0.921003
     91          1           0        3.186633    4.076171   -0.177534
     92          1           0       -2.518009   -2.852387   -0.633528
     93          1           0       -3.003740   -2.165062   -2.231184
     94          1           0       -1.169410   -2.116479   -1.818335
     95          1           0        2.527022   -0.001855   -0.748471
     96          1           0       -1.929673    1.115305   -0.227044
     97          1           0        0.444836    1.950691    0.107065
     98          1           0        0.145206   -1.166730   -0.891912
 ---------------------------------------------------------------------

 SCF Done:  E(RCAM-B3LYP) =  -1706.91386919     A.U. after   15 cycles

 Excitation energies and oscillator strengths:

 Excited State   1:      Singlet-A      2.0993 eV  590.61 nm  f=3.8232  <S**2>=0.000
     155 ->158        -0.16577
     156 ->157         0.68633
 This state for optimization and/or second-order correction.
 Total Energy, E(TD-HF/TD-DFT) =  -1706.83672249
 Copying the excited state density for this state as the 1-particle RhoCI density.

 The electronic state is 1-A.
 Alpha  occ. eigenvalues --  -19.21630 -19.21094 -10.30940 -10.30862 -10.28912
 Alpha  occ. eigenvalues --  -10.28501 -10.27770 -10.27690 -10.27484 -10.27422
 Alpha  occ. eigenvalues --  -10.27399 -10.27170 -10.27116 -10.26998 -10.26725
 Alpha  occ. eigenvalues --  -10.26647 -10.26467 -10.26408 -10.26284 -10.26261
 Alpha  occ. eigenvalues --  -10.26161 -10.26149 -10.26098 -10.25953 -10.25887
 Alpha  occ. eigenvalues --  -10.25865 -10.25732 -10.25612 -10.25523 -10.25502
 Alpha  occ. eigenvalues --  -10.25484 -10.25479 -10.25472 -10.25462 -10.25407
 Alpha  occ. eigenvalues --  -10.25064 -10.25055 -10.24939 -10.24755 -10.24638
 Alpha  occ. eigenvalues --  -10.24565 -10.24398  -1.16396  -1.10856  -0.94251
 Alpha  occ. eigenvalues --   -0.93366  -0.92765  -0.91717  -0.90844  -0.90022
 Alpha  occ. eigenvalues --   -0.87807  -0.87059  -0.86310  -0.85526  -0.84626
 Alpha  occ. eigenvalues --   -0.82835  -0.82147  -0.80195  -0.79343  -0.78283
 Alpha  occ. eigenvalues --   -0.77379  -0.76802  -0.76157  -0.75965  -0.75817
 Alpha  occ. eigenvalues --   -0.75138  -0.74995  -0.74528  -0.73340  -0.70840
 Alpha  occ. eigenvalues --   -0.69448  -0.68165  -0.66145  -0.65162  -0.63944
 Alpha  occ. eigenvalues --   -0.63377  -0.62803  -0.61046  -0.60920  -0.59822
 Alpha  occ. eigenvalues --   -0.59734  -0.59548  -0.59078  -0.57897  -0.56668
 Alpha  occ. eigenvalues --   -0.56121  -0.55634  -0.55116  -0.54183  -0.53878
 Alpha  occ. eigenvalues --   -0.53433  -0.52464  -0.52414  -0.51902  -0.51139
 Alpha  occ. eigenvalues --   -0.50266  -0.50094  -0.49900  -0.49829  -0.49696
 Alpha  occ. eigenvalues --   -0.49513  -0.49204  -0.48715  -0.48491  -0.48179
 Alpha  occ. eigenvalues --   -0.47969  -0.47688  -0.47245  -0.46793  -0.46558
 Alpha  occ. eigenvalues --   -0.45941  -0.45684  -0.45124  -0.45015  -0.44762
 Alpha  occ. eigenvalues --   -0.44658  -0.44407  -0.44215  -0.43508  -0.43484
 Alpha  occ. eigenvalues --   -0.43052  -0.42976  -0.42607  -0.42440  -0.42250
 Alpha  occ. eigenvalues --   -0.41652  -0.41333  -0.40957  -0.40565  -0.40485
 Alpha  occ. eigenvalues --   -0.40349  -0.40256  -0.39918  -0.39867  -0.39591
 Alpha  occ. eigenvalues --   -0.39316  -0.39024  -0.38883  -0.38316  -0.38287
 Alpha  occ. eigenvalues --   -0.38103  -0.37816  -0.36985  -0.36642  -0.36579
 Alpha  occ. eigenvalues --   -0.35676  -0.34765  -0.33619  -0.32258  -0.31555
 Alpha  occ. eigenvalues --   -0.31472  -0.29137  -0.27964  -0.25957  -0.22702
 Alpha  occ. eigenvalues --   -0.19148
 Alpha virt. eigenvalues --   -0.06085  -0.01693   0.01967   0.05657   0.07789
 Alpha virt. eigenvalues --    0.09700   0.10769   0.11252   0.11736   0.12670
 Alpha virt. eigenvalues --    0.12871   0.13116   0.13196   0.13993   0.14180

 Mulliken charges:
               1
     1  O   -0.544678
     2  O   -0.473393
     3  C   -0.029213
     4  C   -0.021595
     5  C   -0.199238
     6  C   -0.176382
     7  C    0.158965
     8  C    0.141182
     9  C    0.088434
    10  C    0.054574
    11  C   -0.206389
    12  C   -0.201935
    13  C    0.028273
    14  C    0.074368
    15  C   -0.298220
    16  C   -0.288142
    17  C   -0.293885
    18  C   -0.301547
    19  C   -0.093129
    20  C   -0.153464
    21  C   -0.362334
    22  C   -0.356107
    23  C   -0.076132
    24  C   -0.070166
    25  C    0.033928
    26  C    0.077600
    27  C   -0.364552
    28  C   -0.375651
    29  C   -0.098719
    30  C   -0.120596
    31  C   -0.078782
    32  C   -0.115442
    33  C   -0.142036
    34  C   -0.125872
    35  C    0.166496
    36  C    0.152650
    37  C   -0.391230
    38  C   -0.365692
    39  C   -0.109833
    40  C   -0.126808
    41  C   -0.098086
    42  C   -0.104477
    43  H    0.094974
    44  H    0.077673
    45  H    0.076367
    46  H    0.098036
    47  H    0.070395
    48  H    0.027391
    49  H    0.129525
    50  H    0.079721
    51  H    0.081277
    52  H    0.115450
    53  H    0.103736
    54  H    0.080418
    55  H    0.119652
    56  H    0.105001
    57  H    0.052676
    58  H    0.116386
    59  H    0.103524
    60  H    0.116962
    61  H    0.090969
    62  H    0.080557
    63  H    0.090358
    64  H    0.113741
    65  H    0.075713
    66  H    0.076799
    67  H    0.102441
    68  H    0.122629
    69  H    0.111163
    70  H    0.115186
    71  H    0.103634
    72  H    0.095503
    73  H    0.308640
    74  H    0.276390
    75  H    0.076770
    76  H    0.085395
    77  H    0.099825
    78  H    0.133023
    79  H    0.132216
    80  H    0.126187
    81  H    0.137275
    82  H    0.106084
    83  H    0.090043
    84  H    0.081372
    85  H    0.081701
    86  H    0.092759
    87  H    0.078944
    88  H    0.081456
    89  H    0.134967
    90  H    0.096556
    91  H    0.103523
    92  H    0.125505
    93  H    0.109300
    94  H    0.120346
    95  H    0.079235
    96  H    0.067844
    97  H    0.078704
    98  H    0.055340
 Sum of Mulliken charges =  -0.00000

 Dipole moment (field-independent basis, Debye):
    X=              0.6679    Y=             -1.2938    Z=              1.2002  Tot=              1.8869
 Quadrupole moment (field-independent basis, Debye-Ang):
   XX=           -270.7894   YY=           -243.5430   ZZ=           -261.6484
   XY=              6.5915   XZ=             -8.6021   YZ=              3.7521

 Normal termination of Gaussian 16 at Sun Jul 14 10:57:24 2019.
