 Gaussian 16, Revision A.03,
 Gaussian 16:  ES64L-G16RevA.03 25-Dec-2016

 -------------------------------------
 # td=(NStates=1) CAM-B3LYP/6-31G(d,p)
 -------------------------------------

 --
 TD
 --
 Symbolic Z-matrix:
 Charge =  0 Multiplicity = 1

                         Standard orientation:
 ---------------------------------------------------------------------
 Center     Atomic      Atomic             Coordinates (Angstroms)
 Number     Number       Type             X           Y           Z
 ---------------------------------------------------------------------
      1          8           0       14.825875   -2.322661   -0.387609
      2          8           0      -14.849272    1.712978    1.077941
      3          6           0       11.263648   -1.523997    0.959334
      4          6           0      -12.382415   -1.087772    0.551537
      5          6           0       12.727114   -1.911682    0.880684
      6          6           0      -13.762180   -0.470163    0.512035
      7          6           0       13.420356   -1.918844   -0.386897
      8          6           0      -13.614322    1.016671    0.920048
      9          6           0       11.029238   -0.224621    0.113588
     10          6           0      -11.322849   -0.268514   -0.250471
     11          6           0       13.255585   -0.602321   -1.064438
     12          6           0      -12.898216    1.644156   -0.274029
     13          6           0       11.962888    0.069884   -0.918571
     14          6           0      -11.551755    1.074503   -0.581495
     15          6           0       10.843817   -1.221151    2.441952
     16          6           0       10.380554   -2.661454    0.394391
     17          6           0      -11.949907   -1.424426    1.944350
     18          6           0      -12.576373   -2.485476   -0.164892
     19          6           0        9.770291    0.358449    0.184928
     20          6           0      -10.025693   -0.919446   -0.481044
     21          6           0       11.787807    1.242232   -1.803352
     22          6           0      -10.678651    1.820894   -1.527925
     23          6           0        9.456691    1.751923    0.177059
     24          6           0       -8.765017   -0.397148   -0.285383
     25          6           0        8.103790    2.224525    0.132957
     26          6           0       -7.556628   -0.994943   -0.553017
     27          6           0        8.054751    3.687028    0.379500
     28          6           0       -7.646897   -2.560425   -0.859107
     29          6           0        6.901448    1.466566    0.217241
     30          6           0       -6.399271   -0.365721   -0.412594
     31          6           0        5.631322    2.002095    0.223817
     32          6           0       -5.142453   -0.907895   -0.537871
     33          6           0        4.475864    1.280716   -0.046485
     34          6           0       -4.016009   -0.156600   -0.280273
     35          6           0        3.093832    1.777837    0.156429
     36          6           0       -2.645866   -0.669128   -0.431169
     37          6           0        2.878646    3.137195    0.710327
     38          6           0       -2.481981   -2.020976   -0.901693
     39          6           0        2.095240    0.850265   -0.089843
     40          6           0       -1.620647    0.179513   -0.163934
     41          6           0        0.713795    1.014368   -0.096084
     42          6           0       -0.266112   -0.012597   -0.111096
     43          1           0       13.035745   -1.144244    1.477558
     44          1           0       13.078228   -2.792126    1.400112
     45          1           0      -14.650439   -0.942287    1.177175
     46          1           0      -14.042930   -0.411201   -0.478281
     47          1           0       12.572337   -2.588558   -0.970776
     48          1           0      -13.067290    1.012534    1.797979
     49          1           0       14.102687   -0.057850   -0.628271
     50          1           0       13.403292   -0.803738   -2.121570
     51          1           0      -13.406915    1.628389   -1.382390
     52          1           0      -12.806287    2.674209   -0.099528
     53          1           0       11.026475   -2.021538    2.934001
     54          1           0        9.735835   -0.893626    2.433353
     55          1           0       11.522562   -0.466501    3.004041
     56          1           0       10.598389   -2.938476   -0.633841
     57          1           0       10.514375   -3.303704    0.995227
     58          1           0        9.445718   -2.418373    0.341819
     59          1           0      -11.942014   -0.402288    2.544562
     60          1           0      -10.760896   -1.482297    1.928027
     61          1           0      -12.649391   -2.076529    2.501046
     62          1           0      -13.538793   -2.831249    0.109579
     63          1           0      -11.820185   -3.239091    0.046102
     64          1           0      -12.577930   -2.362199   -1.310769
     65          1           0        9.079000   -0.303683    0.407661
     66          1           0      -10.276688   -1.909296   -0.606486
     67          1           0       10.743079    1.629632   -2.322917
     68          1           0       12.094332    2.189651   -1.260569
     69          1           0       12.404675    1.039622   -2.798949
     70          1           0      -11.292221    2.612307   -2.162599
     71          1           0      -10.048220    1.202395   -2.183054
     72          1           0       -9.982091    2.314446   -0.847246
     73          1           0       14.768996   -3.160103    0.145672
     74          1           0      -15.229324    1.265372    1.947546
     75          1           0       10.334578    2.396331    0.154678
     76          1           0       -8.923083    0.730854    0.108594
     77          1           0        9.027936    4.128149    0.623011
     78          1           0        7.412220    4.172570   -0.434502
     79          1           0        7.468070    3.777120    1.376430
     80          1           0       -8.044500   -3.231361   -0.262462
     81          1           0       -8.229308   -2.698881   -1.795939
     82          1           0       -6.591448   -2.884287   -1.129765
     83          1           0        7.093100    0.421540    0.112057
     84          1           0       -6.349017    0.651170    0.036254
     85          1           0        5.449716    3.022169    0.535562
     86          1           0       -5.011768   -1.975839   -0.813772
     87          1           0        4.737739    0.183644   -0.086697
     88          1           0       -4.328917    0.894052   -0.158017
     89          1           0        3.750560    3.277592    1.581051
     90          1           0        1.838565    3.407518    1.194707
     91          1           0        3.091439    3.907248   -0.169107
     92          1           0       -2.817088   -2.567542    0.058300
     93          1           0       -3.069272   -2.357465   -1.863425
     94          1           0       -1.323341   -2.312568   -1.175944
     95          1           0        2.613691   -0.091728   -0.320774
     96          1           0       -2.100626    1.265858   -0.117952
     97          1           0        0.500656    1.978480   -0.187542
     98          1           0        0.362548   -0.997878   -0.242690
 ---------------------------------------------------------------------

 SCF Done:  E(RCAM-B3LYP) =  -1706.90919145     A.U. after   15 cycles

 Excitation energies and oscillator strengths:

 Excited State   1:      Singlet-A      2.0698 eV  599.02 nm  f=3.6620  <S**2>=0.000
     155 ->158        -0.17657
     156 ->157         0.68161
 This state for optimization and/or second-order correction.
 Total Energy, E(TD-HF/TD-DFT) =  -1706.83312779
 Copying the excited state density for this state as the 1-particle RhoCI density.

 The electronic state is 1-A.
 Alpha  occ. eigenvalues --  -19.23337 -19.21877 -10.30997 -10.29560 -10.28583
 Alpha  occ. eigenvalues --  -10.28054 -10.27790 -10.27688 -10.27561 -10.27382
 Alpha  occ. eigenvalues --  -10.27300 -10.27287 -10.27247 -10.27226 -10.26974
 Alpha  occ. eigenvalues --  -10.26796 -10.26704 -10.26650 -10.26463 -10.26448
 Alpha  occ. eigenvalues --  -10.26436 -10.26086 -10.26010 -10.25825 -10.25780
 Alpha  occ. eigenvalues --  -10.25771 -10.25700 -10.25659 -10.25648 -10.25501
 Alpha  occ. eigenvalues --  -10.25474 -10.25444 -10.25310 -10.25284 -10.25264
 Alpha  occ. eigenvalues --  -10.25194 -10.25142 -10.24915 -10.24890 -10.24546
 Alpha  occ. eigenvalues --  -10.23835 -10.21589  -1.09393  -1.08199  -0.94738
 Alpha  occ. eigenvalues --   -0.93622  -0.92607  -0.91629  -0.90971  -0.90087
 Alpha  occ. eigenvalues --   -0.88214  -0.87482  -0.87166  -0.86460  -0.85293
 Alpha  occ. eigenvalues --   -0.83509  -0.82431  -0.81115  -0.79591  -0.78880
 Alpha  occ. eigenvalues --   -0.78317  -0.76763  -0.76758  -0.75677  -0.75516
 Alpha  occ. eigenvalues --   -0.75423  -0.75042  -0.74758  -0.73286  -0.70574
 Alpha  occ. eigenvalues --   -0.69429  -0.67949  -0.65793  -0.65107  -0.64306
 Alpha  occ. eigenvalues --   -0.63672  -0.62698  -0.61646  -0.61058  -0.59879
 Alpha  occ. eigenvalues --   -0.59767  -0.59298  -0.58605  -0.57651  -0.56247
 Alpha  occ. eigenvalues --   -0.55588  -0.55178  -0.54781  -0.54514  -0.53911
 Alpha  occ. eigenvalues --   -0.53086  -0.52737  -0.52534  -0.51995  -0.51577
 Alpha  occ. eigenvalues --   -0.50754  -0.50258  -0.49770  -0.49735  -0.49173
 Alpha  occ. eigenvalues --   -0.49076  -0.48672  -0.48509  -0.48186  -0.47905
 Alpha  occ. eigenvalues --   -0.47743  -0.47569  -0.47334  -0.47130  -0.46885
 Alpha  occ. eigenvalues --   -0.46482  -0.46427  -0.45975  -0.45927  -0.45300
 Alpha  occ. eigenvalues --   -0.44904  -0.44562  -0.44376  -0.43961  -0.43824
 Alpha  occ. eigenvalues --   -0.43315  -0.42790  -0.42676  -0.42523  -0.42250
 Alpha  occ. eigenvalues --   -0.42082  -0.41697  -0.41363  -0.40896  -0.40569
 Alpha  occ. eigenvalues --   -0.40431  -0.40346  -0.39860  -0.39634  -0.39422
 Alpha  occ. eigenvalues --   -0.39288  -0.39198  -0.38849  -0.38156  -0.37998
 Alpha  occ. eigenvalues --   -0.37509  -0.37266  -0.36911  -0.36791  -0.36500
 Alpha  occ. eigenvalues --   -0.35929  -0.34905  -0.34042  -0.32450  -0.32334
 Alpha  occ. eigenvalues --   -0.31111  -0.29376  -0.28046  -0.25276  -0.22408
 Alpha  occ. eigenvalues --   -0.19078
 Alpha virt. eigenvalues --   -0.05913  -0.02184   0.01248   0.05369   0.07165
 Alpha virt. eigenvalues --    0.09422   0.10595   0.11271   0.11891   0.12494
 Alpha virt. eigenvalues --    0.12838   0.13056   0.13127   0.13302   0.13717

 Mulliken charges:
               1
     1  O   -0.554440
     2  O   -0.565437
     3  C   -0.073131
     4  C    0.003551
     5  C   -0.172478
     6  C   -0.183069
     7  C    0.160674
     8  C    0.176078
     9  C    0.053128
    10  C    0.016399
    11  C   -0.210089
    12  C   -0.232261
    13  C    0.061277
    14  C    0.050070
    15  C   -0.297578
    16  C   -0.263128
    17  C   -0.296858
    18  C   -0.318259
    19  C   -0.085421
    20  C   -0.107884
    21  C   -0.361960
    22  C   -0.360479
    23  C   -0.126081
    24  C   -0.103960
    25  C    0.093002
    26  C    0.101061
    27  C   -0.375460
    28  C   -0.362738
    29  C   -0.118048
    30  C   -0.119575
    31  C   -0.078599
    32  C   -0.068185
    33  C   -0.133098
    34  C   -0.134235
    35  C    0.113907
    36  C    0.123799
    37  C   -0.369077
    38  C   -0.368243
    39  C   -0.119778
    40  C   -0.115366
    41  C   -0.066428
    42  C   -0.100811
    43  H    0.102779
    44  H    0.065242
    45  H    0.057295
    46  H    0.115865
    47  H    0.040186
    48  H    0.089590
    49  H    0.126584
    50  H    0.115200
    51  H    0.101987
    52  H    0.112717
    53  H    0.113545
    54  H    0.102509
    55  H    0.097039
    56  H    0.105386
    57  H    0.101073
    58  H    0.099978
    59  H    0.071841
    60  H    0.108134
    61  H    0.109588
    62  H    0.107280
    63  H    0.103998
    64  H    0.093089
    65  H    0.075488
    66  H    0.071414
    67  H    0.107191
    68  H    0.122642
    69  H    0.087564
    70  H    0.092812
    71  H    0.133110
    72  H    0.124442
    73  H    0.313378
    74  H    0.302239
    75  H    0.091245
    76  H    0.071105
    77  H    0.110910
    78  H    0.118206
    79  H    0.115018
    80  H    0.136596
    81  H    0.113374
    82  H    0.092612
    83  H    0.071962
    84  H    0.083547
    85  H    0.080308
    86  H    0.083134
    87  H    0.084401
    88  H    0.084314
    89  H    0.101877
    90  H    0.115295
    91  H    0.114084
    92  H    0.123261
    93  H    0.120099
    94  H    0.095497
    95  H    0.071429
    96  H    0.080042
    97  H    0.073627
    98  H    0.086081
 Sum of Mulliken charges =  -0.00000

 Dipole moment (field-independent basis, Debye):
    X=              0.5828    Y=             -1.7861    Z=              1.8801  Tot=              2.6580
 Quadrupole moment (field-independent basis, Debye-Ang):
   XX=           -279.5074   YY=           -245.7071   ZZ=           -260.2265
   XY=              8.4997   XZ=              3.7138   YZ=             -1.1536

 Normal termination of Gaussian 16 at Fri Jul 12 09:01:59 2019.
