 Gaussian 16, Revision A.03,
 Gaussian 16:  ES64L-G16RevA.03 25-Dec-2016

 -------------------------------------
 # td=(NStates=1) CAM-B3LYP/6-31G(d,p)
 -------------------------------------

 --
 TD
 --
 Symbolic Z-matrix:
 Charge =  0 Multiplicity = 1

                         Standard orientation:
 ---------------------------------------------------------------------
 Center     Atomic      Atomic             Coordinates (Angstroms)
 Number     Number       Type             X           Y           Z
 ---------------------------------------------------------------------
      1          8           0       14.537681   -2.531928   -0.083602
      2          8           0      -14.807231    1.689026    1.095148
      3          6           0       10.979450   -1.590258    0.965025
      4          6           0      -12.343987   -1.116812    0.404532
      5          6           0       12.450065   -2.112247    1.138922
      6          6           0      -13.712597   -0.443890    0.555830
      7          6           0       13.206805   -2.033327   -0.253455
      8          6           0      -13.605482    1.018668    0.903042
      9          6           0       10.985118   -0.362261    0.090751
     10          6           0      -11.321918   -0.354051   -0.206143
     11          6           0       13.334515   -0.709954   -0.764922
     12          6           0      -12.791709    1.709236   -0.185594
     13          6           0       12.018148    0.063189   -0.713214
     14          6           0      -11.511988    0.980509   -0.529138
     15          6           0       10.393920   -1.395565    2.269457
     16          6           0       10.181470   -2.762786    0.184182
     17          6           0      -11.915308   -1.492120    1.933312
     18          6           0      -12.481992   -2.489535   -0.327677
     19          6           0        9.603833    0.355961    0.148050
     20          6           0       -9.983517   -0.955905   -0.415517
     21          6           0       11.849987    1.214659   -1.572879
     22          6           0      -10.383982    1.882268   -1.127884
     23          6           0        9.389731    1.675362    0.174817
     24          6           0       -8.758787   -0.480061   -0.269833
     25          6           0        8.117952    2.411152    0.145475
     26          6           0       -7.533994   -1.193508   -0.365377
     27          6           0        8.126401    3.849891    0.649822
     28          6           0       -7.593773   -2.597966   -0.993553
     29          6           0        6.986598    1.712879   -0.168645
     30          6           0       -6.325939   -0.502277   -0.127480
     31          6           0        5.620193    2.225449    0.033859
     32          6           0       -5.054013   -0.888081   -0.400308
     33          6           0        4.614768    1.488612   -0.350243
     34          6           0       -3.904726   -0.133120   -0.199671
     35          6           0        3.207311    1.871169   -0.066276
     36          6           0       -2.555413   -0.567676   -0.532103
     37          6           0        2.882410    3.214708    0.390512
     38          6           0       -2.435616   -1.946327   -1.092936
     39          6           0        2.184056    0.915484   -0.381088
     40          6           0       -1.570246    0.329751   -0.142799
     41          6           0        0.753153    1.077287    0.019950
     42          6           0       -0.193976    0.169512   -0.501692
     43          1           0       13.000502   -1.675695    1.944328
     44          1           0       12.374128   -3.282921    1.445451
     45          1           0      -14.379976   -0.952204    1.012020
     46          1           0      -14.347926   -0.542578   -0.452119
     47          1           0       12.682533   -2.689057   -1.012813
     48          1           0      -13.195994    1.176078    1.930818
     49          1           0       13.863107   -0.063159   -0.065193
     50          1           0       13.633800   -0.541898   -1.819499
     51          1           0      -13.408363    1.792650   -0.914446
     52          1           0      -12.314346    2.628092    0.301056
     53          1           0       10.329365   -2.248601    3.016144
     54          1           0        9.359412   -1.140505    2.260563
     55          1           0       10.938149   -0.562434    2.894631
     56          1           0       10.576731   -2.701295   -0.870855
     57          1           0       10.206586   -3.657323    0.740857
     58          1           0        9.121184   -2.572708   -0.146946
     59          1           0      -11.833819   -0.497832    2.446979
     60          1           0      -10.909292   -1.857981    1.868985
     61          1           0      -12.405501   -2.352550    2.290004
     62          1           0      -13.389338   -2.867592    0.064805
     63          1           0      -11.581702   -3.100227   -0.173768
     64          1           0      -12.791768   -2.297382   -1.501766
     65          1           0        8.824117   -0.366759    0.245932
     66          1           0      -10.054739   -1.942043   -0.624871
     67          1           0       10.870362    1.549841   -1.628835
     68          1           0       12.421059    2.116220   -1.262524
     69          1           0       12.153035    0.858054   -2.465731
     70          1           0      -10.874287    2.567109   -1.878157
     71          1           0       -9.629686    1.386608   -1.439031
     72          1           0       -9.900183    2.618532   -0.512256
     73          1           0       14.371611   -3.457040    0.204757
     74          1           0      -14.992490    1.576598    2.028912
     75          1           0       10.406060    2.282432    0.041220
     76          1           0       -8.704482    0.318202    0.245619
     77          1           0        9.095440    4.267009    0.790746
     78          1           0        7.406860    4.633542    0.095968
     79          1           0        8.203891    4.257950    1.713686
     80          1           0       -8.196736   -3.212960   -0.260690
     81          1           0       -7.891569   -2.455401   -1.972261
     82          1           0       -6.671945   -2.990992   -1.217802
     83          1           0        7.039635    0.790973   -0.756486
     84          1           0       -6.591907    0.589995   -0.116799
     85          1           0        5.477286    3.212337    0.459709
     86          1           0       -4.606149   -1.943757   -0.489787
     87          1           0        4.929645    0.493230   -0.798905
     88          1           0       -3.941682    0.867641    0.115293
     89          1           0        3.248337    3.423961    1.487185
     90          1           0        1.692473    3.399350    0.277519
     91          1           0        3.286171    4.239759   -0.157616
     92          1           0       -2.428036   -2.775756   -0.385902
     93          1           0       -3.457591   -2.289355   -1.937745
     94          1           0       -1.412559   -2.059343   -1.702378
     95          1           0        2.515760   -0.116880   -0.862281
     96          1           0       -2.108448    1.230794    0.401763
     97          1           0        0.590980    2.144007    0.305610
     98          1           0        0.117162   -0.691613   -1.210133
 ---------------------------------------------------------------------

 SCF Done:  E(RCAM-B3LYP) =  -1706.89817774     A.U. after   15 cycles

 Excitation energies and oscillator strengths:

 Excited State   1:      Singlet-A      2.4034 eV  515.87 nm  f=3.4889  <S**2>=0.000
     155 ->158         0.15719
     156 ->157         0.68663
 This state for optimization and/or second-order correction.
 Total Energy, E(TD-HF/TD-DFT) =  -1706.80985525
 Copying the excited state density for this state as the 1-particle RhoCI density.

 The electronic state is 1-A.
 Alpha  occ. eigenvalues --  -19.20940 -19.20727 -10.30454 -10.30308 -10.29110
 Alpha  occ. eigenvalues --  -10.28665 -10.28394 -10.28227 -10.27927 -10.27740
 Alpha  occ. eigenvalues --  -10.27631 -10.27576 -10.27571 -10.27396 -10.27273
 Alpha  occ. eigenvalues --  -10.27040 -10.26807 -10.26701 -10.26370 -10.26302
 Alpha  occ. eigenvalues --  -10.26251 -10.25991 -10.25934 -10.25899 -10.25863
 Alpha  occ. eigenvalues --  -10.25736 -10.25719 -10.25605 -10.25499 -10.25302
 Alpha  occ. eigenvalues --  -10.25218 -10.25172 -10.25031 -10.24677 -10.24505
 Alpha  occ. eigenvalues --  -10.24488 -10.24475 -10.24180 -10.24139 -10.23606
 Alpha  occ. eigenvalues --  -10.23549 -10.23017  -1.11051  -1.08908  -0.94222
 Alpha  occ. eigenvalues --   -0.93549  -0.91893  -0.91275  -0.90591  -0.89201
 Alpha  occ. eigenvalues --   -0.88117  -0.86997  -0.86537  -0.85581  -0.84424
 Alpha  occ. eigenvalues --   -0.83291  -0.82014  -0.80485  -0.79995  -0.77787
 Alpha  occ. eigenvalues --   -0.77315  -0.76529  -0.76464  -0.76171  -0.75859
 Alpha  occ. eigenvalues --   -0.75707  -0.75629  -0.74884  -0.73408  -0.70683
 Alpha  occ. eigenvalues --   -0.68682  -0.67468  -0.66310  -0.65091  -0.64603
 Alpha  occ. eigenvalues --   -0.64059  -0.62706  -0.61464  -0.60739  -0.60518
 Alpha  occ. eigenvalues --   -0.59824  -0.59276  -0.58750  -0.57782  -0.56231
 Alpha  occ. eigenvalues --   -0.55413  -0.55141  -0.54949  -0.54487  -0.53908
 Alpha  occ. eigenvalues --   -0.52917  -0.52858  -0.52077  -0.51537  -0.51352
 Alpha  occ. eigenvalues --   -0.50693  -0.50447  -0.50320  -0.50019  -0.49861
 Alpha  occ. eigenvalues --   -0.49552  -0.49082  -0.48913  -0.48288  -0.47981
 Alpha  occ. eigenvalues --   -0.47555  -0.47392  -0.47116  -0.46941  -0.46624
 Alpha  occ. eigenvalues --   -0.46201  -0.46007  -0.45971  -0.45146  -0.44991
 Alpha  occ. eigenvalues --   -0.44474  -0.44023  -0.43812  -0.43407  -0.43146
 Alpha  occ. eigenvalues --   -0.42689  -0.42592  -0.42270  -0.42172  -0.41855
 Alpha  occ. eigenvalues --   -0.41487  -0.41376  -0.40785  -0.40754  -0.40686
 Alpha  occ. eigenvalues --   -0.40645  -0.40561  -0.40066  -0.39447  -0.39246
 Alpha  occ. eigenvalues --   -0.38602  -0.38547  -0.38525  -0.38318  -0.38074
 Alpha  occ. eigenvalues --   -0.37323  -0.36947  -0.36804  -0.36682  -0.35230
 Alpha  occ. eigenvalues --   -0.35020  -0.34454  -0.34038  -0.32260  -0.31798
 Alpha  occ. eigenvalues --   -0.31428  -0.29063  -0.27729  -0.25951  -0.23352
 Alpha  occ. eigenvalues --   -0.19861
 Alpha virt. eigenvalues --   -0.05125  -0.00653   0.02232   0.05996   0.07638
 Alpha virt. eigenvalues --    0.08896   0.10309   0.11035   0.11241   0.11491
 Alpha virt. eigenvalues --    0.12367   0.12552   0.13169   0.13368   0.13600

 Mulliken charges:
               1
     1  O   -0.561098
     2  O   -0.556964
     3  C   -0.001698
     4  C   -0.056322
     5  C   -0.194436
     6  C   -0.158224
     7  C    0.162176
     8  C    0.153415
     9  C    0.043355
    10  C    0.132067
    11  C   -0.179091
    12  C   -0.186810
    13  C    0.011039
    14  C   -0.003793
    15  C   -0.302575
    16  C   -0.313811
    17  C   -0.310199
    18  C   -0.302828
    19  C   -0.099185
    20  C   -0.122901
    21  C   -0.363046
    22  C   -0.353061
    23  C   -0.130476
    24  C   -0.076050
    25  C    0.113430
    26  C    0.062675
    27  C   -0.376387
    28  C   -0.356375
    29  C   -0.145406
    30  C   -0.139503
    31  C   -0.052789
    32  C   -0.085916
    33  C   -0.101690
    34  C   -0.117693
    35  C    0.106672
    36  C    0.149809
    37  C   -0.372590
    38  C   -0.379754
    39  C   -0.130005
    40  C   -0.118566
    41  C   -0.091352
    42  C   -0.102718
    43  H    0.113563
    44  H    0.055460
    45  H    0.088018
    46  H    0.063735
    47  H    0.080581
    48  H    0.056943
    49  H    0.130420
    50  H    0.105200
    51  H    0.125394
    52  H    0.103090
    53  H    0.089873
    54  H    0.110133
    55  H    0.088023
    56  H    0.102472
    57  H    0.111047
    58  H    0.093325
    59  H    0.104644
    60  H    0.102787
    61  H    0.108148
    62  H    0.105527
    63  H    0.107955
    64  H    0.083002
    65  H    0.085780
    66  H    0.067655
    67  H    0.133419
    68  H    0.108846
    69  H    0.108978
    70  H    0.097471
    71  H    0.124582
    72  H    0.110046
    73  H    0.301250
    74  H    0.309282
    75  H    0.074736
    76  H    0.078693
    77  H    0.112856
    78  H    0.106002
    79  H    0.107047
    80  H    0.112771
    81  H    0.136217
    82  H    0.110074
    83  H    0.089647
    84  H    0.080721
    85  H    0.088253
    86  H    0.086492
    87  H    0.079388
    88  H    0.068343
    89  H    0.117177
    90  H    0.094133
    91  H    0.106364
    92  H    0.146772
    93  H    0.076395
    94  H    0.094449
    95  H    0.078481
    96  H    0.092694
    97  H    0.091516
    98  H    0.102800
 Sum of Mulliken charges =  -0.00000

 Dipole moment (field-independent basis, Debye):
    X=             -0.8217    Y=             -1.0876    Z=              1.3866  Tot=              1.9444
 Quadrupole moment (field-independent basis, Debye-Ang):
   XX=           -296.4880   YY=           -239.9497   ZZ=           -259.1598
   XY=             12.3033   XZ=            -16.1470   YZ=              5.6157

 Normal termination of Gaussian 16 at Sun Jul 14 06:20:36 2019.
