 Gaussian 16, Revision A.03,
 Gaussian 16:  ES64L-G16RevA.03 25-Dec-2016

 -------------------------------------
 # td=(NStates=1) CAM-B3LYP/6-31G(d,p)
 -------------------------------------

 --
 TD
 --
 Symbolic Z-matrix:
 Charge =  0 Multiplicity = 1

                         Standard orientation:
 ---------------------------------------------------------------------
 Center     Atomic      Atomic             Coordinates (Angstroms)
 Number     Number       Type             X           Y           Z
 ---------------------------------------------------------------------
      1          8           0       14.624679   -2.205060   -0.194426
      2          8           0      -14.768559    1.816716    0.975745
      3          6           0       11.079867   -1.592462    0.837311
      4          6           0      -12.306773   -1.022255    0.682386
      5          6           0       12.502817   -1.966262    1.070340
      6          6           0      -13.541499   -0.353212    0.637884
      7          6           0       13.212684   -1.924597   -0.269674
      8          6           0      -13.487340    1.225137    0.915203
      9          6           0       10.948708   -0.332855    0.101925
     10          6           0      -11.249534   -0.224282   -0.126693
     11          6           0       13.248116   -0.476969   -0.879084
     12          6           0      -12.699297    1.868853   -0.202609
     13          6           0       11.866108    0.178525   -0.773593
     14          6           0      -11.442097    1.076604   -0.564425
     15          6           0       10.320523   -1.365529    2.310174
     16          6           0       10.240662   -2.746990    0.294739
     17          6           0      -11.763769   -1.250288    2.050420
     18          6           0      -12.602671   -2.404456    0.168119
     19          6           0        9.690579    0.278869    0.150017
     20          6           0      -10.090364   -1.059682   -0.503977
     21          6           0       11.624175    1.260693   -1.754875
     22          6           0      -10.549284    1.749619   -1.499527
     23          6           0        9.448981    1.621443    0.216300
     24          6           0       -8.802001   -0.551141   -0.307656
     25          6           0        8.092961    2.309552    0.211618
     26          6           0       -7.557117   -1.222648   -0.615004
     27          6           0        8.055710    3.824490    0.619500
     28          6           0       -7.618142   -2.697907   -1.212679
     29          6           0        6.928505    1.679089   -0.045306
     30          6           0       -6.351694   -0.625193   -0.399895
     31          6           0        5.601194    2.172022    0.091711
     32          6           0       -5.041018   -1.135585   -0.533259
     33          6           0        4.490293    1.318949   -0.114780
     34          6           0       -3.919672   -0.330934   -0.457758
     35          6           0        3.196485    1.738941    0.077528
     36          6           0       -2.527573   -0.709737   -0.520113
     37          6           0        2.901608    3.112924    0.462541
     38          6           0       -2.178398   -2.053904   -0.931039
     39          6           0        2.160951    0.853824   -0.072500
     40          6           0       -1.618984    0.204854   -0.252827
     41          6           0        0.726510    1.056149   -0.018044
     42          6           0       -0.188806    0.107741   -0.347035
     43          1           0       12.872429   -1.286522    1.900724
     44          1           0       12.510803   -3.050428    1.451517
     45          1           0      -14.393358   -0.599593    1.577311
     46          1           0      -14.055058   -0.263926   -0.451591
     47          1           0       12.643930   -2.533935   -0.935373
     48          1           0      -12.894659    1.507972    1.740542
     49          1           0       14.013685    0.036023   -0.332205
     50          1           0       13.734973   -0.369846   -1.882913
     51          1           0      -13.060480    1.879850   -1.202839
     52          1           0      -12.336343    2.803247   -0.013353
     53          1           0       10.613247   -2.248196    2.970060
     54          1           0        9.144585   -1.202743    2.296122
     55          1           0       10.828121   -0.662050    2.665803
     56          1           0       10.558874   -3.063292   -0.637477
     57          1           0       10.239170   -3.596472    1.088414
     58          1           0        9.345052   -2.422480    0.317663
     59          1           0      -11.635931   -0.316332    2.573348
     60          1           0      -10.606651   -1.705529    2.284782
     61          1           0      -12.519056   -1.644607    2.526633
     62          1           0      -13.058095   -3.036687    0.857930
     63          1           0      -11.609578   -3.042370    0.319281
     64          1           0      -12.818917   -2.283910   -1.018630
     65          1           0        8.699239   -0.240189    0.211216
     66          1           0      -10.232610   -2.067847   -0.926609
     67          1           0       10.410474    1.027224   -2.149136
     68          1           0       11.797163    2.380111   -1.332513
     69          1           0       12.306188    1.208755   -2.640276
     70          1           0      -11.178541    2.298235   -2.176657
     71          1           0       -9.823799    0.877126   -1.908675
     72          1           0       -9.897626    2.428941   -0.958623
     73          1           0       14.939262   -3.134216   -0.031764
     74          1           0      -15.432567    1.322298    1.406087
     75          1           0       10.308055    2.263572    0.188287
     76          1           0       -8.823168    0.488576   -0.109800
     77          1           0        9.248744    4.259834    0.826836
     78          1           0        7.501723    4.453755   -0.122636
     79          1           0        7.621314    3.855996    1.655999
     80          1           0       -7.988564   -3.486905   -0.412620
     81          1           0       -8.320596   -2.399428   -2.005838
     82          1           0       -6.667387   -3.179463   -1.672577
     83          1           0        6.928698    0.746368   -0.504652
     84          1           0       -6.503018    0.448573    0.030001
     85          1           0        5.466625    3.134996    0.279121
     86          1           0       -4.914071   -2.209341   -0.852592
     87          1           0        4.549257    0.421450   -0.322698
     88          1           0       -4.184498    0.673793   -0.233866
     89          1           0        3.665912    3.686169    1.331691
     90          1           0        1.811315    3.260732    1.162712
     91          1           0        3.091589    3.963189   -0.342161
     92          1           0       -2.637428   -2.917813   -0.189117
     93          1           0       -2.617625   -2.292829   -2.050552
     94          1           0       -1.129080   -2.339647   -1.105198
     95          1           0        2.305892   -0.173027   -0.466555
     96          1           0       -1.889396    1.061241    0.219525
     97          1           0        0.207806    1.910074    0.277086
     98          1           0        0.206591   -1.070056   -0.391927
 ---------------------------------------------------------------------

 SCF Done:  E(RCAM-B3LYP) =  -1706.86383390     A.U. after   14 cycles

 Excitation energies and oscillator strengths:

 Excited State   1:      Singlet-A      2.4871 eV  498.51 nm  f=3.6998  <S**2>=0.000
     155 ->158        -0.18146
     156 ->157         0.67819
 This state for optimization and/or second-order correction.
 Total Energy, E(TD-HF/TD-DFT) =  -1706.77243412
 Copying the excited state density for this state as the 1-particle RhoCI density.

 The electronic state is 1-A.
 Alpha  occ. eigenvalues --  -19.20835 -19.20531 -10.30752 -10.30153 -10.29302
 Alpha  occ. eigenvalues --  -10.27928 -10.27912 -10.27674 -10.27599 -10.27589
 Alpha  occ. eigenvalues --  -10.27551 -10.27333 -10.27287 -10.26940 -10.26899
 Alpha  occ. eigenvalues --  -10.26817 -10.26793 -10.26741 -10.26660 -10.26587
 Alpha  occ. eigenvalues --  -10.26475 -10.26413 -10.26360 -10.26165 -10.26128
 Alpha  occ. eigenvalues --  -10.26066 -10.25825 -10.25815 -10.25794 -10.25644
 Alpha  occ. eigenvalues --  -10.25486 -10.25367 -10.25236 -10.25117 -10.25047
 Alpha  occ. eigenvalues --  -10.24991 -10.24598 -10.24503 -10.24250 -10.24190
 Alpha  occ. eigenvalues --  -10.24030 -10.23024  -1.09566  -1.07498  -0.94904
 Alpha  occ. eigenvalues --   -0.94510  -0.92893  -0.92272  -0.90291  -0.89601
 Alpha  occ. eigenvalues --   -0.89066  -0.87471  -0.86824  -0.85546  -0.84950
 Alpha  occ. eigenvalues --   -0.82868  -0.81729  -0.80052  -0.79501  -0.77558
 Alpha  occ. eigenvalues --   -0.76824  -0.76575  -0.75858  -0.75680  -0.75443
 Alpha  occ. eigenvalues --   -0.75378  -0.75178  -0.75104  -0.73615  -0.70795
 Alpha  occ. eigenvalues --   -0.69454  -0.68070  -0.66949  -0.65138  -0.64625
 Alpha  occ. eigenvalues --   -0.63601  -0.63250  -0.61466  -0.61105  -0.60371
 Alpha  occ. eigenvalues --   -0.59426  -0.59350  -0.58273  -0.58068  -0.56581
 Alpha  occ. eigenvalues --   -0.56174  -0.55625  -0.54865  -0.54435  -0.53891
 Alpha  occ. eigenvalues --   -0.53063  -0.52909  -0.52386  -0.51839  -0.51445
 Alpha  occ. eigenvalues --   -0.50605  -0.50081  -0.49873  -0.49585  -0.49381
 Alpha  occ. eigenvalues --   -0.49289  -0.48825  -0.48493  -0.48111  -0.47435
 Alpha  occ. eigenvalues --   -0.47233  -0.47039  -0.46957  -0.46777  -0.46439
 Alpha  occ. eigenvalues --   -0.46387  -0.45677  -0.45230  -0.45027  -0.44742
 Alpha  occ. eigenvalues --   -0.44383  -0.44071  -0.43971  -0.43628  -0.43129
 Alpha  occ. eigenvalues --   -0.42838  -0.42463  -0.42237  -0.42051  -0.41758
 Alpha  occ. eigenvalues --   -0.41551  -0.41067  -0.40986  -0.40711  -0.40447
 Alpha  occ. eigenvalues --   -0.40232  -0.40040  -0.39949  -0.39791  -0.39178
 Alpha  occ. eigenvalues --   -0.38935  -0.38709  -0.37866  -0.37392  -0.37308
 Alpha  occ. eigenvalues --   -0.37132  -0.36738  -0.36368  -0.35947  -0.35617
 Alpha  occ. eigenvalues --   -0.35304  -0.34489  -0.33587  -0.32363  -0.32119
 Alpha  occ. eigenvalues --   -0.31717  -0.29628  -0.27884  -0.26138  -0.23299
 Alpha  occ. eigenvalues --   -0.20365
 Alpha virt. eigenvalues --   -0.05111  -0.01219   0.02285   0.05365   0.07848
 Alpha virt. eigenvalues --    0.09446   0.10874   0.11006   0.11814   0.12386
 Alpha virt. eigenvalues --    0.12491   0.12833   0.12918   0.13031   0.13267

 Mulliken charges:
               1
     1  O   -0.587367
     2  O   -0.566313
     3  C   -0.072390
     4  C    0.025278
     5  C   -0.176018
     6  C   -0.196174
     7  C    0.182528
     8  C    0.187231
     9  C    0.119639
    10  C    0.031513
    11  C   -0.227850
    12  C   -0.205701
    13  C    0.067099
    14  C    0.027400
    15  C   -0.302675
    16  C   -0.261508
    17  C   -0.292299
    18  C   -0.286959
    19  C   -0.138724
    20  C   -0.150741
    21  C   -0.352130
    22  C   -0.367458
    23  C   -0.094911
    24  C   -0.102306
    25  C    0.068390
    26  C    0.084470
    27  C   -0.362962
    28  C   -0.355492
    29  C   -0.110631
    30  C   -0.127696
    31  C   -0.072408
    32  C   -0.082339
    33  C   -0.061770
    34  C   -0.117975
    35  C    0.189152
    36  C    0.173919
    37  C   -0.378852
    38  C   -0.379599
    39  C   -0.165245
    40  C   -0.132346
    41  C   -0.066416
    42  C   -0.089367
    43  H    0.096176
    44  H    0.075298
    45  H    0.035863
    46  H    0.100366
    47  H    0.092227
    48  H    0.086327
    49  H    0.131332
    50  H    0.100396
    51  H    0.117789
    52  H    0.114853
    53  H    0.081650
    54  H    0.099329
    55  H    0.113260
    56  H    0.096758
    57  H    0.085112
    58  H    0.110716
    59  H    0.100453
    60  H    0.095939
    61  H    0.103379
    62  H    0.117154
    63  H    0.071808
    64  H    0.093451
    65  H    0.081617
    66  H    0.105257
    67  H    0.099671
    68  H    0.102623
    69  H    0.104551
    70  H    0.106926
    71  H    0.114046
    72  H    0.120778
    73  H    0.303242
    74  H    0.300124
    75  H    0.074485
    76  H    0.091269
    77  H    0.076375
    78  H    0.126547
    79  H    0.130439
    80  H    0.110204
    81  H    0.126294
    82  H    0.105965
    83  H    0.078859
    84  H    0.069407
    85  H    0.071402
    86  H    0.082658
    87  H    0.043932
    88  H    0.080546
    89  H    0.074835
    90  H    0.087283
    91  H    0.121421
    92  H    0.101271
    93  H    0.095349
    94  H    0.119960
    95  H    0.082905
    96  H    0.080398
    97  H    0.079099
    98  H    0.058629
 Sum of Mulliken charges =  -0.00000

 Dipole moment (field-independent basis, Debye):
    X=              0.0056    Y=             -1.9768    Z=              0.5373  Tot=              2.0485
 Quadrupole moment (field-independent basis, Debye-Ang):
   XX=           -261.8461   YY=           -244.6721   ZZ=           -263.0314
   XY=              2.4633   XZ=             -7.8714   YZ=              1.5402

 Normal termination of Gaussian 16 at Fri Jul 19 08:03:58 2019.
