 Gaussian 16, Revision A.03,
 Gaussian 16:  ES64L-G16RevA.03 25-Dec-2016

 -------------------------------------
 # td=(NStates=1) CAM-B3LYP/6-31G(d,p)
 -------------------------------------

 --
 TD
 --
 Symbolic Z-matrix:
 Charge =  0 Multiplicity = 1

                         Standard orientation:
 ---------------------------------------------------------------------
 Center     Atomic      Atomic             Coordinates (Angstroms)
 Number     Number       Type             X           Y           Z
 ---------------------------------------------------------------------
      1          8           0       14.665802   -2.348537   -0.023783
      2          8           0      -14.484963    1.935853    1.447216
      3          6           0       11.003175   -1.578276    1.062120
      4          6           0      -12.343849   -1.123414    0.573147
      5          6           0       12.470368   -2.081782    1.237468
      6          6           0      -13.708702   -0.242172    0.916947
      7          6           0       13.275270   -1.931191   -0.159560
      8          6           0      -13.326355    1.221766    1.198440
      9          6           0       10.881844   -0.249551    0.098834
     10          6           0      -11.205560   -0.294223   -0.104761
     11          6           0       13.346135   -0.498001   -0.721830
     12          6           0      -12.646631    1.893017    0.109811
     13          6           0       11.980307    0.125161   -0.690740
     14          6           0      -11.446218    1.010841   -0.313964
     15          6           0       10.482799   -1.293267    2.402420
     16          6           0       10.181746   -2.745742    0.529218
     17          6           0      -11.741566   -1.742613    1.886032
     18          6           0      -12.753687   -2.313965   -0.370434
     19          6           0        9.639606    0.304759    0.179146
     20          6           0      -10.009293   -0.957376   -0.461880
     21          6           0       11.956991    1.388421   -1.573968
     22          6           0      -10.499280    1.974601   -1.134765
     23          6           0        9.372227    1.687429    0.208949
     24          6           0       -8.756768   -0.588739   -0.293935
     25          6           0        8.066433    2.332007    0.211106
     26          6           0       -7.534604   -1.219884   -0.600595
     27          6           0        7.999607    3.743133    0.597191
     28          6           0       -7.786163   -2.602250   -1.171356
     29          6           0        6.892663    1.510007   -0.041161
     30          6           0       -6.388134   -0.633802   -0.456757
     31          6           0        5.648353    2.119130   -0.085022
     32          6           0       -5.072421   -1.015735   -0.750261
     33          6           0        4.429682    1.466553   -0.272599
     34          6           0       -3.921457   -0.404751   -0.476364
     35          6           0        3.076376    1.940482   -0.183913
     36          6           0       -2.607020   -0.831042   -0.809490
     37          6           0        2.733870    3.298188    0.164685
     38          6           0       -2.382415   -2.204248   -1.269258
     39          6           0        2.193968    0.863592   -0.393311
     40          6           0       -1.604667    0.091493   -0.595286
     41          6           0        0.728566    1.046591   -0.353181
     42          6           0       -0.206947    0.027683   -0.631299
     43          1           0       12.988857   -1.425613    1.974568
     44          1           0       12.486948   -3.134070    1.711530
     45          1           0      -14.365320   -0.697707    1.743723
     46          1           0      -14.370424   -0.120319    0.015512
     47          1           0       12.713771   -2.639339   -0.873331
     48          1           0      -12.551842    1.318467    2.130371
     49          1           0       14.029890    0.091091   -0.019078
     50          1           0       13.490722   -0.532626   -1.765003
     51          1           0      -13.452695    1.835139   -0.660260
     52          1           0      -12.330607    2.838937    0.455734
     53          1           0       10.641707   -2.355123    2.907338
     54          1           0        9.418987   -1.124609    2.310406
     55          1           0       11.137439   -0.518320    2.840799
     56          1           0       10.354214   -2.990290   -0.399327
     57          1           0        9.962174   -3.655599    1.196361
     58          1           0        9.128268   -2.357324    0.284725
     59          1           0      -10.922332   -0.957960    2.639776
     60          1           0      -11.033257   -2.616475    1.508057
     61          1           0      -12.606130   -2.128434    2.448893
     62          1           0      -13.579610   -2.589552    0.187937
     63          1           0      -11.867247   -3.080184   -0.531170
     64          1           0      -13.114373   -1.977277   -1.380875
     65          1           0        8.764601   -0.230359    0.227834
     66          1           0      -10.267465   -2.018785   -0.718175
     67          1           0       11.046070    1.964099   -1.769836
     68          1           0       12.510205    2.129310   -0.841852
     69          1           0       12.311802    0.905846   -2.528717
     70          1           0      -10.877021    2.894615   -1.881070
     71          1           0       -9.772468    1.431090   -1.706531
     72          1           0      -10.026068    2.611594   -0.261894
     73          1           0       14.744540   -3.286200    0.453862
     74          1           0      -14.776990    1.955026    2.557587
     75          1           0       10.144620    2.236897    0.408467
     76          1           0       -8.679130    0.367131    0.370280
     77          1           0        9.223415    4.101835    0.790624
     78          1           0        7.601474    4.450500   -0.253717
     79          1           0        7.529973    3.974002    1.539238
     80          1           0       -8.289562   -3.223627   -0.500316
     81          1           0       -8.427812   -2.603310   -1.965611
     82          1           0       -6.919787   -2.983791   -1.318572
     83          1           0        6.968081    0.491391   -0.332921
     84          1           0       -6.487016    0.357865   -0.153283
     85          1           0        5.562341    3.210884    0.406423
     86          1           0       -4.800036   -2.040598   -1.146655
     87          1           0        4.720741    0.452354   -0.631163
     88          1           0       -4.330478    0.636138    0.004232
     89          1           0        2.408811    3.326894    1.477140
     90          1           0        1.650624    3.768289   -0.825042
     91          1           0        3.969226    3.929335   -0.027811
     92          1           0       -2.645439   -2.961596   -0.472546
     93          1           0       -2.898043   -2.332730   -2.249702
     94          1           0       -1.216347   -2.568753   -1.515336
     95          1           0        2.513915   -0.002899   -0.688224
     96          1           0       -2.052473    1.237812   -0.373006
     97          1           0        0.386381    1.946053   -0.025774
     98          1           0        0.293977   -0.964631   -0.921030
 ---------------------------------------------------------------------

 SCF Done:  E(RCAM-B3LYP) =  -1706.76606723     A.U. after   15 cycles

 Excitation energies and oscillator strengths:

 Excited State   1:      Singlet-A      2.0985 eV  590.81 nm  f=3.3090  <S**2>=0.000
     155 ->158        -0.15435
     156 ->157         0.68838
 This state for optimization and/or second-order correction.
 Total Energy, E(TD-HF/TD-DFT) =  -1706.68894711
 Copying the excited state density for this state as the 1-particle RhoCI density.

 The electronic state is 1-A.
 Alpha  occ. eigenvalues --  -19.22045 -19.21370 -10.33490 -10.31716 -10.30247
 Alpha  occ. eigenvalues --  -10.28646 -10.28078 -10.28043 -10.27983 -10.27923
 Alpha  occ. eigenvalues --  -10.27892 -10.27872 -10.27778 -10.27675 -10.27416
 Alpha  occ. eigenvalues --  -10.26972 -10.26770 -10.26714 -10.26701 -10.26655
 Alpha  occ. eigenvalues --  -10.26505 -10.26493 -10.26455 -10.26425 -10.26293
 Alpha  occ. eigenvalues --  -10.26262 -10.26257 -10.26220 -10.26070 -10.25804
 Alpha  occ. eigenvalues --  -10.25647 -10.25608 -10.25596 -10.25504 -10.25460
 Alpha  occ. eigenvalues --  -10.25121 -10.24926 -10.24815 -10.24524 -10.24473
 Alpha  occ. eigenvalues --  -10.24099 -10.22268  -1.08290  -1.06278  -0.93462
 Alpha  occ. eigenvalues --   -0.93210  -0.92359  -0.91760  -0.91020  -0.90040
 Alpha  occ. eigenvalues --   -0.88083  -0.87125  -0.86053  -0.85800  -0.84994
 Alpha  occ. eigenvalues --   -0.83387  -0.82241  -0.79543  -0.79356  -0.78564
 Alpha  occ. eigenvalues --   -0.77687  -0.76586  -0.75683  -0.75649  -0.75110
 Alpha  occ. eigenvalues --   -0.74687  -0.74540  -0.74153  -0.73530  -0.70171
 Alpha  occ. eigenvalues --   -0.68736  -0.67302  -0.65215  -0.64369  -0.63134
 Alpha  occ. eigenvalues --   -0.62631  -0.61916  -0.61262  -0.60274  -0.59848
 Alpha  occ. eigenvalues --   -0.59481  -0.58301  -0.58050  -0.57744  -0.56411
 Alpha  occ. eigenvalues --   -0.55865  -0.55109  -0.54654  -0.54250  -0.53535
 Alpha  occ. eigenvalues --   -0.53112  -0.52733  -0.52368  -0.52048  -0.51266
 Alpha  occ. eigenvalues --   -0.50797  -0.50266  -0.50175  -0.49722  -0.49234
 Alpha  occ. eigenvalues --   -0.48627  -0.48600  -0.48117  -0.47889  -0.47627
 Alpha  occ. eigenvalues --   -0.47503  -0.47277  -0.46951  -0.46571  -0.45957
 Alpha  occ. eigenvalues --   -0.45862  -0.45580  -0.45372  -0.44485  -0.44410
 Alpha  occ. eigenvalues --   -0.44215  -0.43914  -0.43704  -0.43344  -0.42807
 Alpha  occ. eigenvalues --   -0.42781  -0.42599  -0.41932  -0.41900  -0.41663
 Alpha  occ. eigenvalues --   -0.40975  -0.40864  -0.40608  -0.40450  -0.40417
 Alpha  occ. eigenvalues --   -0.40070  -0.39516  -0.39444  -0.39197  -0.38987
 Alpha  occ. eigenvalues --   -0.38564  -0.38426  -0.38248  -0.37995  -0.37321
 Alpha  occ. eigenvalues --   -0.36989  -0.36597  -0.36446  -0.36141  -0.35653
 Alpha  occ. eigenvalues --   -0.35172  -0.34208  -0.33904  -0.32608  -0.31266
 Alpha  occ. eigenvalues --   -0.31130  -0.30378  -0.28317  -0.25953  -0.23140
 Alpha  occ. eigenvalues --   -0.19350
 Alpha virt. eigenvalues --   -0.06107  -0.01690   0.01586   0.05311   0.05588
 Alpha virt. eigenvalues --    0.07562   0.07753   0.09787   0.10293   0.10969
 Alpha virt. eigenvalues --    0.11120   0.11578   0.11806   0.12195   0.12268

 Mulliken charges:
               1
     1  O   -0.580744
     2  O   -0.565375
     3  C   -0.025529
     4  C   -0.052331
     5  C   -0.198220
     6  C   -0.184906
     7  C    0.174388
     8  C    0.164959
     9  C    0.070969
    10  C    0.108263
    11  C   -0.179303
    12  C   -0.176233
    13  C   -0.031910
    14  C    0.000052
    15  C   -0.260086
    16  C   -0.299103
    17  C   -0.260228
    18  C   -0.293854
    19  C   -0.096354
    20  C   -0.124959
    21  C   -0.332363
    22  C   -0.346748
    23  C   -0.100902
    24  C   -0.107404
    25  C    0.095622
    26  C    0.135636
    27  C   -0.376772
    28  C   -0.354345
    29  C   -0.112757
    30  C   -0.139285
    31  C   -0.098186
    32  C   -0.084644
    33  C   -0.114921
    34  C   -0.093015
    35  C    0.145865
    36  C    0.116889
    37  C   -0.309896
    38  C   -0.382407
    39  C   -0.080927
    40  C   -0.116008
    41  C   -0.084901
    42  C   -0.089879
    43  H    0.090034
    44  H    0.078784
    45  H    0.085568
    46  H    0.099098
    47  H    0.073299
    48  H    0.042851
    49  H    0.132445
    50  H    0.123207
    51  H    0.115550
    52  H    0.118350
    53  H    0.072719
    54  H    0.104173
    55  H    0.099168
    56  H    0.112037
    57  H    0.096316
    58  H    0.074754
    59  H    0.066048
    60  H    0.090249
    61  H    0.101664
    62  H    0.114714
    63  H    0.088805
    64  H    0.109501
    65  H    0.083044
    66  H    0.062548
    67  H    0.123050
    68  H    0.115235
    69  H    0.107269
    70  H    0.084589
    71  H    0.119687
    72  H    0.093779
    73  H    0.305861
    74  H    0.307508
    75  H    0.059913
    76  H    0.075252
    77  H    0.070365
    78  H    0.120523
    79  H    0.143022
    80  H    0.117895
    81  H    0.128913
    82  H    0.103445
    83  H    0.088963
    84  H    0.074256
    85  H    0.063127
    86  H    0.063912
    87  H    0.078314
    88  H    0.067420
    89  H    0.105295
    90  H    0.062782
    91  H    0.076613
    92  H    0.130667
    93  H    0.134702
    94  H    0.092669
    95  H    0.070952
    96  H    0.068963
    97  H    0.078655
    98  H    0.073334
 Sum of Mulliken charges =  -0.00000

 Dipole moment (field-independent basis, Debye):
    X=             -0.3959    Y=             -1.7788    Z=              1.6306  Tot=              2.4453
 Quadrupole moment (field-independent basis, Debye-Ang):
   XX=           -274.0019   YY=           -246.2318   ZZ=           -259.6339
   XY=              3.5673   XZ=            -11.6300   YZ=              6.0320

 Normal termination of Gaussian 16 at Sun Jul 14 04:10:02 2019.
