 Gaussian 16, Revision A.03,
 Gaussian 16:  ES64L-G16RevA.03 25-Dec-2016

 -------------------------------------
 # td=(NStates=1) CAM-B3LYP/6-31G(d,p)
 -------------------------------------

 --
 TD
 --
 Symbolic Z-matrix:
 Charge =  0 Multiplicity = 1

                         Standard orientation:
 ---------------------------------------------------------------------
 Center     Atomic      Atomic             Coordinates (Angstroms)
 Number     Number       Type             X           Y           Z
 ---------------------------------------------------------------------
      1          8           0       14.717283   -2.260628   -0.235697
      2          8           0      -14.498396    2.135264    0.911076
      3          6           0       11.159955   -1.403696    0.993476
      4          6           0      -12.438979   -0.987744    0.703083
      5          6           0       12.609281   -1.847384    1.048278
      6          6           0      -13.618499   -0.036767    0.715877
      7          6           0       13.330279   -1.883527   -0.285052
      8          6           0      -13.311612    1.432898    0.993888
      9          6           0       10.973302   -0.245647    0.095736
     10          6           0      -11.300704   -0.358404   -0.068443
     11          6           0       13.318160   -0.397672   -0.818953
     12          6           0      -12.539007    1.888206   -0.242413
     13          6           0       11.919393    0.160116   -0.776743
     14          6           0      -11.419070    0.877849   -0.560409
     15          6           0       10.700230   -1.084579    2.440102
     16          6           0       10.326604   -2.610166    0.401834
     17          6           0      -11.870780   -1.225687    2.140151
     18          6           0      -12.809831   -2.346377   -0.022397
     19          6           0        9.578338    0.364779    0.095299
     20          6           0      -10.025106   -1.147933   -0.445608
     21          6           0       11.787208    1.207636   -1.841624
     22          6           0      -10.595565    1.546779   -1.738210
     23          6           0        9.362791    1.681514    0.031894
     24          6           0       -8.813434   -0.626220   -0.256433
     25          6           0        8.014960    2.219023    0.228245
     26          6           0       -7.595842   -1.326485   -0.479733
     27          6           0        7.806101    3.764744    0.404544
     28          6           0       -7.574999   -2.724058   -0.949890
     29          6           0        6.850128    1.540023    0.136572
     30          6           0       -6.357334   -0.649443   -0.402094
     31          6           0        5.518418    2.089884    0.190680
     32          6           0       -5.099803   -1.110681   -0.647692
     33          6           0        4.423454    1.175974    0.002838
     34          6           0       -3.968782   -0.301655   -0.479792
     35          6           0        3.051983    1.698073    0.052059
     36          6           0       -2.618099   -0.808457   -0.640932
     37          6           0        2.811691    3.067750    0.495960
     38          6           0       -2.328996   -2.197720   -0.997632
     39          6           0        2.041382    0.699888   -0.147025
     40          6           0       -1.601345    0.095780   -0.220207
     41          6           0        0.678853    0.977834   -0.153823
     42          6           0       -0.206494   -0.008698   -0.243041
     43          1           0       13.265314   -1.139213    1.876107
     44          1           0       12.497653   -2.744391    1.587405
     45          1           0      -14.251383   -0.585882    1.591390
     46          1           0      -14.224501   -0.007586   -0.146638
     47          1           0       12.820127   -2.564003   -1.117402
     48          1           0      -12.638624    1.600227    1.769191
     49          1           0       14.055666    0.227008   -0.291426
     50          1           0       13.852194   -0.370487   -1.912704
     51          1           0      -13.164523    1.676426   -1.022900
     52          1           0      -12.083929    2.836826    0.015532
     53          1           0       10.792665   -1.937568    3.069736
     54          1           0        9.733058   -1.042084    2.361591
     55          1           0       11.216471   -0.215371    2.925510
     56          1           0       10.601103   -3.146481   -0.409590
     57          1           0       10.337150   -3.285550    1.129474
     58          1           0        9.253142   -2.433780    0.375473
     59          1           0      -11.563464   -0.148864    2.635524
     60          1           0      -11.022677   -1.976804    1.988086
     61          1           0      -12.558799   -1.746764    2.799735
     62          1           0      -13.514800   -2.840080    0.500724
     63          1           0      -11.972416   -3.132978    0.013584
     64          1           0      -13.069875   -2.127812   -1.214423
     65          1           0        8.693988   -0.358936   -0.037111
     66          1           0      -10.294243   -2.257956   -0.450216
     67          1           0       10.636853    1.317674   -2.058873
     68          1           0       12.259438    2.202280   -1.656862
     69          1           0       12.315486    0.847509   -2.792324
     70          1           0      -11.148714    2.104235   -2.408983
     71          1           0      -10.002047    0.818439   -2.125973
     72          1           0      -10.004927    2.415231   -1.291600
     73          1           0       14.926510   -3.105001   -0.004221
     74          1           0      -15.075505    1.813191    1.703672
     75          1           0       10.168602    2.539670   -0.189683
     76          1           0       -8.650647    0.377163   -0.163067
     77          1           0        8.805365    4.393498    0.568503
     78          1           0        7.125560    4.045401   -0.344895
     79          1           0        7.401958    3.875278    1.445702
     80          1           0       -7.733678   -3.516478   -0.058101
     81          1           0       -8.447541   -2.841593   -1.683107
     82          1           0       -6.631923   -2.870703   -1.383800
     83          1           0        6.848562    0.524348   -0.166366
     84          1           0       -6.458136    0.495929   -0.093211
     85          1           0        5.572232    3.119691    0.419276
     86          1           0       -4.965286   -2.210768   -0.760830
     87          1           0        4.837125   -0.002753   -0.057825
     88          1           0       -4.001317    0.728194   -0.279080
     89          1           0        3.377004    3.376000    1.197129
     90          1           0        1.727548    3.268417    0.542433
     91          1           0        3.102008    3.652893   -0.516898
     92          1           0       -2.757986   -2.966442   -0.415232
     93          1           0       -2.733127   -2.319274   -2.181137
     94          1           0       -1.341534   -2.431399   -0.956719
     95          1           0        2.295380   -0.239649   -0.145513
     96          1           0       -1.915753    1.188461    0.059298
     97          1           0        0.561272    2.078066    0.221874
     98          1           0        0.387436   -0.911003   -0.377497
 ---------------------------------------------------------------------

 SCF Done:  E(RCAM-B3LYP) =  -1706.94677623     A.U. after   15 cycles

 Excitation energies and oscillator strengths:

 Excited State   1:      Singlet-A      2.1996 eV  563.68 nm  f=3.7441  <S**2>=0.000
     155 ->158        -0.15789
     156 ->157         0.68887
 This state for optimization and/or second-order correction.
 Total Energy, E(TD-HF/TD-DFT) =  -1706.86594363
 Copying the excited state density for this state as the 1-particle RhoCI density.

 The electronic state is 1-A.
 Alpha  occ. eigenvalues --  -19.21841 -19.19824 -10.31759 -10.28903 -10.28784
 Alpha  occ. eigenvalues --  -10.28267 -10.27781 -10.27552 -10.27320 -10.27229
 Alpha  occ. eigenvalues --  -10.27023 -10.26753 -10.26607 -10.26389 -10.26347
 Alpha  occ. eigenvalues --  -10.26304 -10.26291 -10.26255 -10.26228 -10.26170
 Alpha  occ. eigenvalues --  -10.26139 -10.26059 -10.26035 -10.25931 -10.25878
 Alpha  occ. eigenvalues --  -10.25848 -10.25814 -10.25804 -10.25714 -10.25553
 Alpha  occ. eigenvalues --  -10.25550 -10.25415 -10.25414 -10.25053 -10.24910
 Alpha  occ. eigenvalues --  -10.24849 -10.24612 -10.24412 -10.23546 -10.23465
 Alpha  occ. eigenvalues --  -10.23408 -10.23184  -1.09971  -1.09039  -0.93800
 Alpha  occ. eigenvalues --   -0.93104  -0.92435  -0.91534  -0.90700  -0.89881
 Alpha  occ. eigenvalues --   -0.87714  -0.86900  -0.85983  -0.85379  -0.84749
 Alpha  occ. eigenvalues --   -0.82562  -0.81825  -0.79788  -0.79548  -0.79244
 Alpha  occ. eigenvalues --   -0.78150  -0.76440  -0.76316  -0.75970  -0.75421
 Alpha  occ. eigenvalues --   -0.75118  -0.74823  -0.74485  -0.72874  -0.70656
 Alpha  occ. eigenvalues --   -0.68822  -0.67144  -0.66108  -0.64815  -0.64280
 Alpha  occ. eigenvalues --   -0.63689  -0.62734  -0.62610  -0.61103  -0.60251
 Alpha  occ. eigenvalues --   -0.59655  -0.58667  -0.57793  -0.57547  -0.56156
 Alpha  occ. eigenvalues --   -0.55653  -0.55210  -0.54253  -0.54076  -0.53632
 Alpha  occ. eigenvalues --   -0.52782  -0.52271  -0.51736  -0.51328  -0.50958
 Alpha  occ. eigenvalues --   -0.50514  -0.50116  -0.50024  -0.49667  -0.49473
 Alpha  occ. eigenvalues --   -0.49008  -0.48796  -0.48594  -0.47877  -0.47855
 Alpha  occ. eigenvalues --   -0.47533  -0.47258  -0.46925  -0.46790  -0.46539
 Alpha  occ. eigenvalues --   -0.46013  -0.45682  -0.45359  -0.45201  -0.45036
 Alpha  occ. eigenvalues --   -0.44873  -0.44643  -0.44082  -0.43702  -0.43293
 Alpha  occ. eigenvalues --   -0.43186  -0.42925  -0.42423  -0.42387  -0.42012
 Alpha  occ. eigenvalues --   -0.41805  -0.41451  -0.41368  -0.41286  -0.40820
 Alpha  occ. eigenvalues --   -0.39907  -0.39725  -0.39709  -0.39602  -0.39081
 Alpha  occ. eigenvalues --   -0.38762  -0.38541  -0.38435  -0.38310  -0.38173
 Alpha  occ. eigenvalues --   -0.38072  -0.37758  -0.36428  -0.36188  -0.35301
 Alpha  occ. eigenvalues --   -0.34565  -0.33738  -0.33243  -0.32467  -0.32324
 Alpha  occ. eigenvalues --   -0.31869  -0.29153  -0.27817  -0.26160  -0.22949
 Alpha  occ. eigenvalues --   -0.19137
 Alpha virt. eigenvalues --   -0.05621  -0.00978   0.02978   0.06363   0.08313
 Alpha virt. eigenvalues --    0.09345   0.11078   0.11444   0.11955   0.12362
 Alpha virt. eigenvalues --    0.12412   0.12686   0.13310   0.13501   0.13554

 Mulliken charges:
               1
     1  O   -0.565302
     2  O   -0.549601
     3  C   -0.054042
     4  C   -0.024530
     5  C   -0.169415
     6  C   -0.184448
     7  C    0.183916
     8  C    0.162900
     9  C    0.099354
    10  C    0.077506
    11  C   -0.218996
    12  C   -0.199001
    13  C    0.057667
    14  C   -0.020015
    15  C   -0.295405
    16  C   -0.322419
    17  C   -0.287831
    18  C   -0.299361
    19  C   -0.139198
    20  C   -0.164778
    21  C   -0.365688
    22  C   -0.341740
    23  C   -0.082211
    24  C   -0.042509
    25  C    0.056191
    26  C    0.099175
    27  C   -0.387694
    28  C   -0.361412
    29  C   -0.105392
    30  C   -0.115717
    31  C   -0.083050
    32  C   -0.104534
    33  C   -0.130374
    34  C   -0.097910
    35  C    0.058526
    36  C    0.115579
    37  C   -0.337779
    38  C   -0.361459
    39  C   -0.091768
    40  C   -0.149258
    41  C   -0.045744
    42  C   -0.098237
    43  H    0.067472
    44  H    0.085613
    45  H    0.046874
    46  H    0.109014
    47  H    0.069552
    48  H    0.080367
    49  H    0.123356
    50  H    0.082012
    51  H    0.129093
    52  H    0.110066
    53  H    0.094814
    54  H    0.113062
    55  H    0.112562
    56  H    0.119205
    57  H    0.107971
    58  H    0.096250
    59  H    0.090435
    60  H    0.101460
    61  H    0.095995
    62  H    0.112467
    63  H    0.090030
    64  H    0.093532
    65  H    0.101214
    66  H    0.076209
    67  H    0.104859
    68  H    0.112147
    69  H    0.098598
    70  H    0.116847
    71  H    0.120538
    72  H    0.090841
    73  H    0.292487
    74  H    0.303579
    75  H    0.098684
    76  H    0.086192
    77  H    0.092634
    78  H    0.140185
    79  H    0.124261
    80  H    0.096231
    81  H    0.111525
    82  H    0.114587
    83  H    0.059447
    84  H    0.065447
    85  H    0.088284
    86  H    0.093932
    87  H    0.092219
    88  H    0.086265
    89  H    0.137542
    90  H    0.113514
    91  H    0.107430
    92  H    0.129680
    93  H    0.091831
    94  H    0.119352
    95  H    0.067196
    96  H    0.076709
    97  H    0.063746
    98  H    0.080591
 Sum of Mulliken charges =  -0.00000

 Dipole moment (field-independent basis, Debye):
    X=              0.0072    Y=             -1.9612    Z=              1.9501  Tot=              2.7657
 Quadrupole moment (field-independent basis, Debye-Ang):
   XX=           -280.7612   YY=           -239.5272   ZZ=           -262.3777
   XY=              4.2245   XZ=             -7.2594   YZ=              1.8733

 Normal termination of Gaussian 16 at Mon Jul  8 21:51:17 2019.
