 Gaussian 16, Revision A.03,
 Gaussian 16:  ES64L-G16RevA.03 25-Dec-2016

 -------------------------------------
 # td=(NStates=1) CAM-B3LYP/6-31G(d,p)
 -------------------------------------

 --
 TD
 --
 Symbolic Z-matrix:
 Charge =  0 Multiplicity = 1

                         Standard orientation:
 ---------------------------------------------------------------------
 Center     Atomic      Atomic             Coordinates (Angstroms)
 Number     Number       Type             X           Y           Z
 ---------------------------------------------------------------------
      1          8           0       14.632453   -2.269301   -0.249327
      2          8           0      -14.927046    1.634513    0.950749
      3          6           0       11.150609   -1.499471    0.869090
      4          6           0      -12.403941   -1.168160    0.481531
      5          6           0       12.594735   -1.978293    0.964780
      6          6           0      -13.733583   -0.414705    0.573394
      7          6           0       13.306494   -1.981724   -0.323620
      8          6           0      -13.632192    1.065045    0.921632
      9          6           0       10.898834   -0.270344    0.050100
     10          6           0      -11.288913   -0.309874   -0.148044
     11          6           0       13.289423   -0.590177   -0.876941
     12          6           0      -12.737812    1.757910   -0.097886
     13          6           0       11.816852    0.151674   -0.719609
     14          6           0      -11.532381    0.995197   -0.484272
     15          6           0       10.578312   -1.413764    2.364539
     16          6           0       10.264344   -2.709853    0.321430
     17          6           0      -11.921551   -1.627715    1.946004
     18          6           0      -12.645648   -2.435710   -0.275318
     19          6           0        9.659050    0.305356    0.244795
     20          6           0      -10.035907   -0.947179   -0.421859
     21          6           0       11.723148    1.333041   -1.665894
     22          6           0      -10.644954    1.993942   -1.149132
     23          6           0        9.416446    1.620479    0.111832
     24          6           0       -8.768109   -0.401260   -0.214868
     25          6           0        8.101407    2.266989    0.179472
     26          6           0       -7.488232   -0.984821   -0.501207
     27          6           0        8.047285    3.821355    0.651485
     28          6           0       -7.541759   -2.311957   -1.108523
     29          6           0        6.949328    1.582637    0.029764
     30          6           0       -6.286940   -0.413434   -0.208680
     31          6           0        5.621074    2.115965    0.185815
     32          6           0       -4.967563   -0.924479   -0.490306
     33          6           0        4.487960    1.269738   -0.039527
     34          6           0       -3.822781   -0.209247   -0.305870
     35          6           0        3.239976    1.658717    0.137395
     36          6           0       -2.539440   -0.687412   -0.584583
     37          6           0        2.845022    3.086138    0.494721
     38          6           0       -2.185334   -2.061903   -1.088036
     39          6           0        2.151161    0.831087   -0.272807
     40          6           0       -1.484220    0.287677   -0.403168
     41          6           0        0.753346    1.110771   -0.200575
     42          6           0       -0.106486    0.043512   -0.466312
     43          1           0       13.275965   -1.366632    1.658486
     44          1           0       12.520185   -2.933015    1.481953
     45          1           0      -14.373025   -1.067567    1.457432
     46          1           0      -14.482009   -0.631758   -0.344213
     47          1           0       12.772730   -2.511270   -1.120136
     48          1           0      -13.142987    1.251073    1.949928
     49          1           0       14.099295    0.127407   -0.452902
     50          1           0       13.616627   -0.466303   -1.864211
     51          1           0      -13.217459    1.901550   -1.064968
     52          1           0      -12.367340    2.735026    0.332695
     53          1           0       10.878795   -2.580864    2.984788
     54          1           0        9.491742   -1.342888    2.382628
     55          1           0       10.800799   -0.426189    2.917239
     56          1           0       10.382253   -3.039146   -0.746808
     57          1           0       10.474738   -3.710834    0.761836
     58          1           0        9.166911   -2.432126    0.668829
     59          1           0      -12.094248   -0.898942    2.848491
     60          1           0      -10.760082   -1.765661    2.069282
     61          1           0      -12.572420   -2.639707    2.204501
     62          1           0      -13.418968   -3.073494    0.061935
     63          1           0      -11.697561   -3.134110   -0.501580
     64          1           0      -12.899990   -2.064884   -1.378886
     65          1           0        8.911028   -0.269399    0.975352
     66          1           0      -10.120930   -1.938290   -1.071278
     67          1           0       10.618616    1.507939   -1.931575
     68          1           0       12.068678    2.365630   -1.294031
     69          1           0       12.343269    1.372632   -2.618067
     70          1           0      -11.327843    2.420088   -1.791054
     71          1           0       -9.889820    1.448563   -1.704953
     72          1           0      -10.228275    2.857530   -0.678359
     73          1           0       14.583906   -3.156240    0.047001
     74          1           0      -15.374223    1.281580    1.822092
     75          1           0       10.338294    2.240188   -0.024277
     76          1           0       -8.849955    0.626421    0.266924
     77          1           0        9.103397    4.110260    0.422771
     78          1           0        7.400611    4.164823   -0.204979
     79          1           0        7.577358    3.768430    1.726934
     80          1           0       -8.148431   -2.965651   -0.419684
     81          1           0       -8.094214   -2.230986   -2.151811
     82          1           0       -6.726705   -3.009991   -1.343808
     83          1           0        6.963531    0.688886   -0.415030
     84          1           0       -6.434110    0.477633    0.520019
     85          1           0        5.314153    3.138169    0.646444
     86          1           0       -4.908994   -1.873036   -0.827994
     87          1           0        4.679988    0.341784   -0.425027
     88          1           0       -3.793679    0.807721    0.280476
     89          1           0        3.656786    3.213164    1.291454
     90          1           0        1.669889    3.341338    1.039108
     91          1           0        2.995086    3.854162   -0.170594
     92          1           0       -2.736520   -2.770331   -0.414739
     93          1           0       -2.663545   -2.177312   -2.090030
     94          1           0       -0.987900   -2.281279   -0.834819
     95          1           0        2.304131   -0.307847   -0.583401
     96          1           0       -1.793247    1.331134   -0.118462
     97          1           0        0.394301    1.979997   -0.023146
     98          1           0        0.295812   -0.943567   -0.703596
 ---------------------------------------------------------------------

 SCF Done:  E(RCAM-B3LYP) =  -1706.93056406     A.U. after   15 cycles

 Excitation energies and oscillator strengths:

 Excited State   1:      Singlet-A      2.0153 eV  615.23 nm  f=3.7328  <S**2>=0.000
     155 ->158         0.14039
     156 ->157         0.69537
 This state for optimization and/or second-order correction.
 Total Energy, E(TD-HF/TD-DFT) =  -1706.85650486
 Copying the excited state density for this state as the 1-particle RhoCI density.

 The electronic state is 1-A.
 Alpha  occ. eigenvalues --  -19.21607 -19.21571 -10.31098 -10.29494 -10.28089
 Alpha  occ. eigenvalues --  -10.28087 -10.28022 -10.27774 -10.27672 -10.27417
 Alpha  occ. eigenvalues --  -10.27404 -10.27271 -10.27254 -10.27105 -10.27073
 Alpha  occ. eigenvalues --  -10.27010 -10.27006 -10.26952 -10.26906 -10.26886
 Alpha  occ. eigenvalues --  -10.26836 -10.26790 -10.26783 -10.26629 -10.26552
 Alpha  occ. eigenvalues --  -10.26440 -10.26144 -10.26004 -10.25962 -10.25943
 Alpha  occ. eigenvalues --  -10.25938 -10.25879 -10.25821 -10.25688 -10.25501
 Alpha  occ. eigenvalues --  -10.25381 -10.25209 -10.25077 -10.24921 -10.24489
 Alpha  occ. eigenvalues --  -10.24365 -10.23638  -1.13215  -1.08466  -0.94575
 Alpha  occ. eigenvalues --   -0.93695  -0.92474  -0.91872  -0.90626  -0.89661
 Alpha  occ. eigenvalues --   -0.87955  -0.87877  -0.86604  -0.85051  -0.84854
 Alpha  occ. eigenvalues --   -0.82829  -0.81611  -0.79988  -0.79293  -0.77706
 Alpha  occ. eigenvalues --   -0.76331  -0.76224  -0.76033  -0.75879  -0.75594
 Alpha  occ. eigenvalues --   -0.74603  -0.73877  -0.73682  -0.73149  -0.71034
 Alpha  occ. eigenvalues --   -0.68673  -0.67493  -0.65617  -0.65213  -0.64615
 Alpha  occ. eigenvalues --   -0.63902  -0.63554  -0.62356  -0.60574  -0.59833
 Alpha  occ. eigenvalues --   -0.59773  -0.59179  -0.57661  -0.57593  -0.56339
 Alpha  occ. eigenvalues --   -0.55891  -0.55275  -0.54769  -0.54329  -0.54003
 Alpha  occ. eigenvalues --   -0.53290  -0.52494  -0.52129  -0.51558  -0.50435
 Alpha  occ. eigenvalues --   -0.50293  -0.49789  -0.49587  -0.49481  -0.48875
 Alpha  occ. eigenvalues --   -0.48823  -0.48610  -0.48474  -0.48163  -0.48111
 Alpha  occ. eigenvalues --   -0.47830  -0.47627  -0.46983  -0.46665  -0.46506
 Alpha  occ. eigenvalues --   -0.45733  -0.45452  -0.45238  -0.45047  -0.44409
 Alpha  occ. eigenvalues --   -0.44334  -0.43760  -0.43464  -0.43315  -0.42708
 Alpha  occ. eigenvalues --   -0.42576  -0.42435  -0.42143  -0.41946  -0.41571
 Alpha  occ. eigenvalues --   -0.41050  -0.41024  -0.40582  -0.40484  -0.40244
 Alpha  occ. eigenvalues --   -0.40074  -0.40015  -0.39687  -0.39504  -0.39147
 Alpha  occ. eigenvalues --   -0.39028  -0.38780  -0.38581  -0.37865  -0.37747
 Alpha  occ. eigenvalues --   -0.37373  -0.37065  -0.36855  -0.36784  -0.36049
 Alpha  occ. eigenvalues --   -0.35284  -0.34376  -0.33771  -0.32884  -0.32546
 Alpha  occ. eigenvalues --   -0.32051  -0.30361  -0.28301  -0.26253  -0.23503
 Alpha  occ. eigenvalues --   -0.18816
 Alpha virt. eigenvalues --   -0.06482  -0.01119   0.02054   0.05356   0.08125
 Alpha virt. eigenvalues --    0.10193   0.10273   0.10835   0.11337   0.11793
 Alpha virt. eigenvalues --    0.12339   0.12496   0.13004   0.13233   0.13615

 Mulliken charges:
               1
     1  O   -0.521459
     2  O   -0.561616
     3  C   -0.063637
     4  C    0.026412
     5  C   -0.176938
     6  C   -0.182614
     7  C    0.163112
     8  C    0.176027
     9  C    0.206540
    10  C    0.058907
    11  C   -0.216032
    12  C   -0.227914
    13  C    0.007775
    14  C    0.035400
    15  C   -0.282442
    16  C   -0.294318
    17  C   -0.293983
    18  C   -0.301127
    19  C   -0.123431
    20  C   -0.133494
    21  C   -0.402504
    22  C   -0.361440
    23  C   -0.135663
    24  C   -0.124296
    25  C    0.019421
    26  C    0.145146
    27  C   -0.347917
    28  C   -0.387905
    29  C   -0.087247
    30  C   -0.137753
    31  C   -0.126682
    32  C   -0.097238
    33  C   -0.075656
    34  C   -0.087954
    35  C    0.095492
    36  C    0.104069
    37  C   -0.354912
    38  C   -0.367058
    39  C   -0.142455
    40  C   -0.138122
    41  C   -0.029519
    42  C   -0.076741
    43  H    0.097669
    44  H    0.078118
    45  H    0.043632
    46  H    0.097042
    47  H    0.076548
    48  H    0.073358
    49  H    0.099118
    50  H    0.110444
    51  H    0.128449
    52  H    0.111659
    53  H    0.057280
    54  H    0.103515
    55  H    0.103050
    56  H    0.099656
    57  H    0.094905
    58  H    0.090019
    59  H    0.086382
    60  H    0.105417
    61  H    0.075234
    62  H    0.113488
    63  H    0.086821
    64  H    0.082992
    65  H    0.080856
    66  H    0.087866
    67  H    0.124004
    68  H    0.107003
    69  H    0.099805
    70  H    0.113008
    71  H    0.116527
    72  H    0.122472
    73  H    0.297083
    74  H    0.310935
    75  H    0.098533
    76  H    0.090899
    77  H    0.110026
    78  H    0.128689
    79  H    0.130252
    80  H    0.119725
    81  H    0.101352
    82  H    0.111265
    83  H    0.080960
    84  H    0.073514
    85  H    0.081524
    86  H    0.078527
    87  H    0.081734
    88  H    0.085050
    89  H    0.103887
    90  H    0.074132
    91  H    0.142244
    92  H    0.118452
    93  H    0.136253
    94  H    0.101581
    95  H    0.064746
    96  H    0.081911
    97  H    0.065854
    98  H    0.086308
 Sum of Mulliken charges =  -0.00000

 Dipole moment (field-independent basis, Debye):
    X=             -0.6481    Y=             -1.6690    Z=              0.9792  Tot=              2.0408
 Quadrupole moment (field-independent basis, Debye-Ang):
   XX=           -289.3613   YY=           -244.1223   ZZ=           -262.0681
   XY=              1.3944   XZ=            -11.1405   YZ=              3.1737

 Normal termination of Gaussian 16 at Sat Jul 20 08:11:47 2019.
