 Gaussian 16, Revision A.03,
 Gaussian 16:  ES64L-G16RevA.03 25-Dec-2016

 -------------------------------------
 # td=(NStates=1) CAM-B3LYP/6-31G(d,p)
 -------------------------------------

 --
 TD
 --
 Symbolic Z-matrix:
 Charge =  0 Multiplicity = 1

                         Standard orientation:
 ---------------------------------------------------------------------
 Center     Atomic      Atomic             Coordinates (Angstroms)
 Number     Number       Type             X           Y           Z
 ---------------------------------------------------------------------
      1          8           0       14.631921   -2.364455   -0.250243
      2          8           0      -14.789177    1.788503    1.046889
      3          6           0       11.118037   -1.564174    1.031118
      4          6           0      -12.346363   -1.091336    0.587377
      5          6           0       12.532441   -2.013010    1.024578
      6          6           0      -13.652850   -0.366232    0.649466
      7          6           0       13.196110   -2.030454   -0.357175
      8          6           0      -13.493795    1.119668    0.964740
      9          6           0       10.899318   -0.313236    0.062638
     10          6           0      -11.238014   -0.258651   -0.145137
     11          6           0       13.229908   -0.591613   -0.805362
     12          6           0      -12.692191    1.797757   -0.177327
     13          6           0       11.858197    0.049284   -0.788105
     14          6           0      -11.368018    0.978475   -0.504046
     15          6           0       10.709299   -1.324415    2.432670
     16          6           0       10.227610   -2.754335    0.354306
     17          6           0      -11.915641   -1.357253    2.029961
     18          6           0      -12.581485   -2.539961    0.022003
     19          6           0        9.589818    0.214740    0.128392
     20          6           0      -10.043852   -1.036697   -0.469860
     21          6           0       11.721478    1.262107   -1.654304
     22          6           0      -10.501744    1.704899   -1.440231
     23          6           0        9.367077    1.581019    0.184074
     24          6           0       -8.750141   -0.547453   -0.247729
     25          6           0        8.150475    2.386365    0.228582
     26          6           0       -7.494315   -1.221916   -0.514975
     27          6           0        8.221659    3.787970    0.542779
     28          6           0       -7.664035   -2.670621   -0.925685
     29          6           0        6.873681    1.732011    0.028531
     30          6           0       -6.331068   -0.587124   -0.459630
     31          6           0        5.549882    2.281503    0.127443
     32          6           0       -5.107529   -0.974999   -0.674161
     33          6           0        4.416571    1.431407   -0.137715
     34          6           0       -3.960631   -0.166150   -0.420664
     35          6           0        3.104696    1.890808   -0.031047
     36          6           0       -2.623420   -0.603824   -0.666748
     37          6           0        2.801587    3.226747    0.397932
     38          6           0       -2.298686   -2.020244   -1.119189
     39          6           0        2.079675    0.944088   -0.207728
     40          6           0       -1.604667    0.300140   -0.296437
     41          6           0        0.729041    1.167810   -0.053424
     42          6           0       -0.218188    0.080113   -0.347743
     43          1           0       13.071182   -1.396006    1.710052
     44          1           0       12.711193   -2.983807    1.371925
     45          1           0      -14.096355   -0.787863    1.467878
     46          1           0      -14.333293   -0.353175   -0.261649
     47          1           0       12.712390   -2.836252   -1.107543
     48          1           0      -12.924071    1.343104    1.876844
     49          1           0       13.899988    0.012645   -0.243802
     50          1           0       13.601242   -0.672704   -1.968084
     51          1           0      -13.356139    1.708256   -1.125870
     52          1           0      -12.331847    2.874148   -0.092811
     53          1           0       10.650132   -2.224351    3.061395
     54          1           0        9.629044   -0.913272    2.748744
     55          1           0       11.332586   -0.652198    2.931456
     56          1           0       10.496909   -2.797182   -0.787293
     57          1           0       10.346473   -3.774036    0.945253
     58          1           0        9.141762   -2.500173    0.319896
     59          1           0      -11.864789   -0.372644    2.618295
     60          1           0      -10.888367   -1.492328    2.093919
     61          1           0      -12.684585   -1.916995    2.354974
     62          1           0      -13.226582   -3.069173    0.665456
     63          1           0      -11.616930   -3.154797    0.117882
     64          1           0      -12.888642   -2.414853   -1.063599
     65          1           0        8.874948   -0.451524    0.492220
     66          1           0      -10.116876   -1.977105   -0.836864
     67          1           0       10.671566    1.159432   -1.924510
     68          1           0       11.935943    2.236400   -1.048347
     69          1           0       12.423063    1.272992   -2.658801
     70          1           0      -10.982750    2.585868   -2.041463
     71          1           0       -9.681773    0.890977   -2.148534
     72          1           0       -9.658767    2.220790   -1.083077
     73          1           0       14.878311   -3.381543    0.182328
     74          1           0      -15.146662    1.621575    1.969907
     75          1           0       10.383470    2.164300    0.187133
     76          1           0       -8.495089    0.444006    0.384959
     77          1           0        9.162351    4.317654    0.426034
     78          1           0        7.536423    4.176371   -0.043454
     79          1           0        7.691912    3.967207    1.566798
     80          1           0       -8.330675   -3.344216   -0.436549
     81          1           0       -7.742760   -2.639896   -2.179597
     82          1           0       -6.574415   -3.108341   -1.060943
     83          1           0        7.005754    0.692001   -0.342582
     84          1           0       -6.304406    0.459532   -0.196468
     85          1           0        5.484000    3.455295    0.452224
     86          1           0       -4.973375   -2.009964   -0.759331
     87          1           0        4.683165    0.510637   -0.518611
     88          1           0       -4.204224    0.776334   -0.165028
     89          1           0        2.825611    3.217974    1.622434
     90          1           0        1.768327    3.538833    0.176884
     91          1           0        3.500753    4.100070    0.167503
     92          1           0       -2.230380   -2.761162   -0.072801
     93          1           0       -3.239138   -2.636176   -1.783892
     94          1           0       -1.176359   -2.208221   -1.712949
     95          1           0        2.355457   -0.100213   -0.483183
     96          1           0       -1.821517    1.403899    0.051945
     97          1           0        0.343719    1.955652    0.554698
     98          1           0        0.091598   -0.987460   -0.857577
 ---------------------------------------------------------------------

 SCF Done:  E(RCAM-B3LYP) =  -1706.89870790     A.U. after   17 cycles

 Excitation energies and oscillator strengths:

 Excited State   1:      Singlet-A      1.7335 eV  715.23 nm  f=3.6447  <S**2>=0.000
     155 ->158         0.13534
     156 ->157         0.70120
     156 <-157        -0.12420
 This state for optimization and/or second-order correction.
 Total Energy, E(TD-HF/TD-DFT) =  -1706.83500298
 Copying the excited state density for this state as the 1-particle RhoCI density.

 The electronic state is 1-A.
 Alpha  occ. eigenvalues --  -19.21375 -19.21015 -10.31460 -10.31191 -10.30430
 Alpha  occ. eigenvalues --  -10.28763 -10.28473 -10.28432 -10.27749 -10.27721
 Alpha  occ. eigenvalues --  -10.27605 -10.27475 -10.27341 -10.27238 -10.27226
 Alpha  occ. eigenvalues --  -10.27119 -10.26993 -10.26981 -10.26948 -10.26611
 Alpha  occ. eigenvalues --  -10.26596 -10.26451 -10.26367 -10.26309 -10.26306
 Alpha  occ. eigenvalues --  -10.26285 -10.26086 -10.25941 -10.25892 -10.25605
 Alpha  occ. eigenvalues --  -10.25543 -10.25534 -10.25260 -10.25203 -10.24850
 Alpha  occ. eigenvalues --  -10.24840 -10.24731 -10.24651 -10.24311 -10.24226
 Alpha  occ. eigenvalues --  -10.23728 -10.23364  -1.07244  -1.04667  -0.93775
 Alpha  occ. eigenvalues --   -0.93755  -0.92771  -0.92334  -0.90431  -0.89998
 Alpha  occ. eigenvalues --   -0.87881  -0.87357  -0.86593  -0.85328  -0.84805
 Alpha  occ. eigenvalues --   -0.83206  -0.81944  -0.79997  -0.79410  -0.77933
 Alpha  occ. eigenvalues --   -0.76563  -0.76165  -0.75898  -0.75497  -0.75464
 Alpha  occ. eigenvalues --   -0.75149  -0.74822  -0.74391  -0.72422  -0.70954
 Alpha  occ. eigenvalues --   -0.68880  -0.66699  -0.65360  -0.64899  -0.64215
 Alpha  occ. eigenvalues --   -0.63287  -0.62486  -0.62277  -0.60842  -0.60436
 Alpha  occ. eigenvalues --   -0.59139  -0.58125  -0.57500  -0.57127  -0.56426
 Alpha  occ. eigenvalues --   -0.55571  -0.55292  -0.54639  -0.54130  -0.53462
 Alpha  occ. eigenvalues --   -0.53178  -0.52524  -0.51876  -0.51279  -0.50882
 Alpha  occ. eigenvalues --   -0.50480  -0.50316  -0.49862  -0.49664  -0.48841
 Alpha  occ. eigenvalues --   -0.48380  -0.48273  -0.48060  -0.47699  -0.47408
 Alpha  occ. eigenvalues --   -0.47266  -0.47037  -0.46715  -0.46581  -0.45864
 Alpha  occ. eigenvalues --   -0.45667  -0.45559  -0.45376  -0.45332  -0.45128
 Alpha  occ. eigenvalues --   -0.44640  -0.44456  -0.43906  -0.43579  -0.43353
 Alpha  occ. eigenvalues --   -0.42867  -0.42779  -0.42489  -0.42143  -0.42008
 Alpha  occ. eigenvalues --   -0.41843  -0.41051  -0.40906  -0.40699  -0.40156
 Alpha  occ. eigenvalues --   -0.40136  -0.39680  -0.39528  -0.39103  -0.38864
 Alpha  occ. eigenvalues --   -0.38671  -0.38400  -0.38228  -0.38083  -0.37824
 Alpha  occ. eigenvalues --   -0.37758  -0.37268  -0.37037  -0.36513  -0.35680
 Alpha  occ. eigenvalues --   -0.35187  -0.34013  -0.32995  -0.32267  -0.31767
 Alpha  occ. eigenvalues --   -0.31518  -0.29665  -0.28323  -0.26259  -0.22958
 Alpha  occ. eigenvalues --   -0.18120
 Alpha virt. eigenvalues --   -0.07503  -0.01778   0.01990   0.05905   0.07701
 Alpha virt. eigenvalues --    0.09050   0.09657   0.10145   0.10757   0.11545
 Alpha virt. eigenvalues --    0.12076   0.12312   0.12420   0.12841   0.12961

 Mulliken charges:
               1
     1  O   -0.588144
     2  O   -0.569376
     3  C    0.003399
     4  C   -0.037862
     5  C   -0.174649
     6  C   -0.152107
     7  C    0.172433
     8  C    0.141743
     9  C    0.081572
    10  C    0.073682
    11  C   -0.191461
    12  C   -0.216005
    13  C    0.016387
    14  C    0.076249
    15  C   -0.316086
    16  C   -0.308281
    17  C   -0.288669
    18  C   -0.298638
    19  C   -0.111110
    20  C   -0.147975
    21  C   -0.355989
    22  C   -0.368972
    23  C   -0.119340
    24  C   -0.105241
    25  C    0.092309
    26  C    0.123124
    27  C   -0.377896
    28  C   -0.376952
    29  C   -0.130446
    30  C   -0.097156
    31  C   -0.097443
    32  C   -0.076809
    33  C   -0.114532
    34  C   -0.108525
    35  C    0.149319
    36  C    0.119731
    37  C   -0.385835
    38  C   -0.341152
    39  C   -0.114820
    40  C   -0.115809
    41  C   -0.110525
    42  C   -0.086261
    43  H    0.103123
    44  H    0.079701
    45  H    0.079341
    46  H    0.102624
    47  H    0.078759
    48  H    0.085143
    49  H    0.133537
    50  H    0.082414
    51  H    0.109447
    52  H    0.101483
    53  H    0.102722
    54  H    0.084983
    55  H    0.113405
    56  H    0.098005
    57  H    0.086583
    58  H    0.100439
    59  H    0.076325
    60  H    0.118301
    61  H    0.104906
    62  H    0.107243
    63  H    0.089584
    64  H    0.105757
    65  H    0.090097
    66  H    0.093078
    67  H    0.136172
    68  H    0.108158
    69  H    0.080665
    70  H    0.096684
    71  H    0.072087
    72  H    0.128754
    73  H    0.293185
    74  H    0.305638
    75  H    0.075404
    76  H    0.076001
    77  H    0.116700
    78  H    0.138558
    79  H    0.114363
    80  H    0.133004
    81  H    0.100110
    82  H    0.092987
    83  H    0.083128
    84  H    0.065425
    85  H    0.079085
    86  H    0.070939
    87  H    0.090767
    88  H    0.079601
    89  H    0.104041
    90  H    0.118098
    91  H    0.115986
    92  H    0.100183
    93  H    0.092303
    94  H    0.098018
    95  H    0.087522
    96  H    0.080447
    97  H    0.101330
    98  H    0.071774
 Sum of Mulliken charges =  -0.00000

 Dipole moment (field-independent basis, Debye):
    X=              0.2318    Y=             -1.3467    Z=              2.6072  Tot=              2.9436
 Quadrupole moment (field-independent basis, Debye-Ang):
   XX=           -300.3287   YY=           -240.6781   ZZ=           -261.9172
   XY=             10.4574   XZ=             -7.6430   YZ=              3.7936

 Normal termination of Gaussian 16 at Tue Jul 16 08:14:48 2019.
