 Gaussian 16, Revision A.03,
 Gaussian 16:  ES64L-G16RevA.03 25-Dec-2016

 -------------------------------------
 # td=(NStates=1) CAM-B3LYP/6-31G(d,p)
 -------------------------------------

 --
 TD
 --
 Symbolic Z-matrix:
 Charge =  0 Multiplicity = 1

                         Standard orientation:
 ---------------------------------------------------------------------
 Center     Atomic      Atomic             Coordinates (Angstroms)
 Number     Number       Type             X           Y           Z
 ---------------------------------------------------------------------
      1          8           0       14.606500   -2.291757   -0.159675
      2          8           0      -14.789376    1.830558    1.003202
      3          6           0       11.015581   -1.582570    0.896122
      4          6           0      -12.289822   -0.968735    0.739285
      5          6           0       12.451245   -2.017606    1.005931
      6          6           0      -13.663615   -0.285263    0.899645
      7          6           0       13.259933   -1.910343   -0.339516
      8          6           0      -13.511635    1.243829    0.910826
      9          6           0       10.957498   -0.249298    0.093069
     10          6           0      -11.273636   -0.221963   -0.225396
     11          6           0       13.285835   -0.375879   -0.850778
     12          6           0      -12.705485    1.794992   -0.302118
     13          6           0       11.957651    0.267511   -0.771386
     14          6           0      -11.479171    1.034948   -0.663732
     15          6           0       10.507251   -1.362303    2.353068
     16          6           0       10.152511   -2.696933    0.050736
     17          6           0      -11.658930   -1.175747    2.091723
     18          6           0      -12.565828   -2.459653    0.193416
     19          6           0        9.729000    0.404871    0.156873
     20          6           0      -10.017348   -1.015264   -0.409132
     21          6           0       11.846623    1.494991   -1.583124
     22          6           0      -10.571999    1.770991   -1.703723
     23          6           0        9.354695    1.841850    0.062714
     24          6           0       -8.816844   -0.554356   -0.372245
     25          6           0        8.050470    2.333861    0.284557
     26          6           0       -7.457371   -1.268904   -0.639333
     27          6           0        7.921570    3.747681    0.617351
     28          6           0       -7.602573   -2.623015   -1.184359
     29          6           0        6.940293    1.518945    0.047641
     30          6           0       -6.369666   -0.507053   -0.381391
     31          6           0        5.568509    1.994734    0.244380
     32          6           0       -5.039123   -1.000223   -0.491402
     33          6           0        4.518639    1.207756   -0.021904
     34          6           0       -3.917568   -0.249539   -0.363443
     35          6           0        3.185578    1.629599    0.121109
     36          6           0       -2.619875   -0.768781   -0.528417
     37          6           0        2.850911    3.035567    0.552722
     38          6           0       -2.281065   -2.120568   -1.055957
     39          6           0        2.125941    0.647617   -0.082070
     40          6           0       -1.616237    0.172145   -0.425458
     41          6           0        0.720659    0.928200   -0.068009
     42          6           0       -0.285129   -0.071714   -0.361879
     43          1           0       13.198266   -1.659751    1.871961
     44          1           0       12.479180   -3.192773    1.111778
     45          1           0      -14.272023   -0.945540    1.649210
     46          1           0      -14.232943   -0.338247   -0.093903
     47          1           0       12.811503   -2.414574   -1.096034
     48          1           0      -12.916478    1.425240    1.893398
     49          1           0       14.142106    0.152705   -0.153043
     50          1           0       13.690731   -0.384759   -1.815710
     51          1           0      -13.365072    1.907754   -1.196364
     52          1           0      -12.470571    2.795786   -0.103839
     53          1           0       10.593331   -2.250015    2.954909
     54          1           0        9.441848   -1.210701    2.114770
     55          1           0       11.075482   -0.464843    2.884944
     56          1           0       10.673019   -2.755389   -0.700866
     57          1           0       10.092770   -3.686574    0.595060
     58          1           0        9.105091   -2.515285    0.087579
     59          1           0      -11.413825   -0.091675    2.360521
     60          1           0      -10.873360   -1.834815    1.984826
     61          1           0      -12.253943   -1.870472    2.922563
     62          1           0      -13.462768   -2.850209    0.658782
     63          1           0      -11.547628   -3.091240    0.566808
     64          1           0      -12.699896   -2.540783   -0.879488
     65          1           0        8.989049   -0.294194    0.300018
     66          1           0      -10.153344   -1.942274   -0.624595
     67          1           0       10.831315    1.651613   -1.835349
     68          1           0       12.216441    2.393692   -1.181596
     69          1           0       12.452266    1.523205   -2.445443
     70          1           0      -11.137601    2.307271   -2.276594
     71          1           0       -9.752221    1.055763   -2.207305
     72          1           0      -10.091261    2.616446   -1.227367
     73          1           0       14.656472   -3.131521    0.368077
     74          1           0      -15.402222    1.587954    1.760392
     75          1           0       10.152492    2.471547   -0.036855
     76          1           0       -8.672820    0.464426   -0.270101
     77          1           0        8.851370    4.326973    0.959167
     78          1           0        7.539521    4.480802   -0.326361
     79          1           0        7.304289    3.937408    1.650621
     80          1           0       -7.742117   -3.249719   -0.557135
     81          1           0       -8.337421   -2.585725   -1.971399
     82          1           0       -6.670380   -2.980533   -1.667701
     83          1           0        7.119325    0.508192   -0.354390
     84          1           0       -6.516071    0.529942    0.044175
     85          1           0        5.489416    2.990816    0.658066
     86          1           0       -4.870508   -1.995411   -0.744013
     87          1           0        4.748266    0.277519   -0.571967
     88          1           0       -4.079527    0.758386   -0.023615
     89          1           0        3.381805    3.134023    1.367634
     90          1           0        1.811175    3.084600    0.653070
     91          1           0        3.186284    3.661774   -0.271530
     92          1           0       -2.659786   -2.819288   -0.481552
     93          1           0       -2.752813   -2.221403   -2.115432
     94          1           0       -1.284844   -2.287905   -1.086059
     95          1           0        2.658295   -0.349310   -0.214372
     96          1           0       -1.977198    1.177052   -0.245435
     97          1           0        0.209571    2.073838    0.190348
     98          1           0        0.226131   -1.156487   -0.559851
 ---------------------------------------------------------------------

 SCF Done:  E(RCAM-B3LYP) =  -1706.92132795     A.U. after   15 cycles

 Excitation energies and oscillator strengths:

 Excited State   1:      Singlet-A      2.0516 eV  604.33 nm  f=3.4668  <S**2>=0.000
     155 ->158        -0.15663
     156 ->157         0.68951
 This state for optimization and/or second-order correction.
 Total Energy, E(TD-HF/TD-DFT) =  -1706.84593332
 Copying the excited state density for this state as the 1-particle RhoCI density.

 The electronic state is 1-A.
 Alpha  occ. eigenvalues --  -19.21335 -19.20727 -10.31529 -10.29889 -10.28838
 Alpha  occ. eigenvalues --  -10.28625 -10.28227 -10.27364 -10.27232 -10.27087
 Alpha  occ. eigenvalues --  -10.27069 -10.27041 -10.27027 -10.26875 -10.26858
 Alpha  occ. eigenvalues --  -10.26714 -10.26454 -10.26207 -10.25950 -10.25948
 Alpha  occ. eigenvalues --  -10.25891 -10.25867 -10.25722 -10.25707 -10.25613
 Alpha  occ. eigenvalues --  -10.25571 -10.25536 -10.25504 -10.25393 -10.25353
 Alpha  occ. eigenvalues --  -10.25163 -10.25021 -10.24857 -10.24807 -10.24784
 Alpha  occ. eigenvalues --  -10.24561 -10.24320 -10.24095 -10.23586 -10.23480
 Alpha  occ. eigenvalues --  -10.23383 -10.23366  -1.08991  -1.08163  -0.93270
 Alpha  occ. eigenvalues --   -0.92755  -0.92293  -0.91512  -0.90352  -0.89672
 Alpha  occ. eigenvalues --   -0.87368  -0.86773  -0.86633  -0.85177  -0.84210
 Alpha  occ. eigenvalues --   -0.83172  -0.82031  -0.80390  -0.79814  -0.78963
 Alpha  occ. eigenvalues --   -0.78303  -0.77801  -0.76432  -0.76225  -0.75804
 Alpha  occ. eigenvalues --   -0.75119  -0.74913  -0.74394  -0.73329  -0.70437
 Alpha  occ. eigenvalues --   -0.69381  -0.67492  -0.65634  -0.65289  -0.64322
 Alpha  occ. eigenvalues --   -0.63631  -0.61960  -0.61377  -0.60553  -0.60005
 Alpha  occ. eigenvalues --   -0.59223  -0.58215  -0.58016  -0.57463  -0.55895
 Alpha  occ. eigenvalues --   -0.55396  -0.55153  -0.54777  -0.54403  -0.54268
 Alpha  occ. eigenvalues --   -0.53723  -0.52500  -0.52379  -0.52064  -0.51399
 Alpha  occ. eigenvalues --   -0.51207  -0.50463  -0.50373  -0.49955  -0.49913
 Alpha  occ. eigenvalues --   -0.49273  -0.49067  -0.48977  -0.48571  -0.48507
 Alpha  occ. eigenvalues --   -0.48027  -0.47937  -0.47194  -0.47023  -0.46813
 Alpha  occ. eigenvalues --   -0.45658  -0.45486  -0.45310  -0.45173  -0.44968
 Alpha  occ. eigenvalues --   -0.44484  -0.44153  -0.43976  -0.43790  -0.43435
 Alpha  occ. eigenvalues --   -0.43356  -0.43101  -0.42954  -0.42411  -0.42183
 Alpha  occ. eigenvalues --   -0.41811  -0.41783  -0.41350  -0.40881  -0.40692
 Alpha  occ. eigenvalues --   -0.40252  -0.40111  -0.39685  -0.39601  -0.39500
 Alpha  occ. eigenvalues --   -0.39102  -0.38652  -0.38486  -0.38305  -0.38164
 Alpha  occ. eigenvalues --   -0.37599  -0.36880  -0.36336  -0.35784  -0.35107
 Alpha  occ. eigenvalues --   -0.35060  -0.34372  -0.33528  -0.32329  -0.32156
 Alpha  occ. eigenvalues --   -0.30409  -0.29884  -0.28204  -0.25960  -0.22739
 Alpha  occ. eigenvalues --   -0.18399
 Alpha virt. eigenvalues --   -0.05645  -0.01147   0.02828   0.05934   0.08043
 Alpha virt. eigenvalues --    0.09870   0.11198   0.11638   0.12085   0.12330
 Alpha virt. eigenvalues --    0.12713   0.13085   0.13435   0.13688   0.14344

 Mulliken charges:
               1
     1  O   -0.567471
     2  O   -0.584061
     3  C   -0.043700
     4  C   -0.029595
     5  C   -0.201489
     6  C   -0.187410
     7  C    0.177461
     8  C    0.190907
     9  C    0.074684
    10  C    0.042964
    11  C   -0.229245
    12  C   -0.236040
    13  C    0.067766
    14  C    0.049179
    15  C   -0.285369
    16  C   -0.290474
    17  C   -0.263798
    18  C   -0.296853
    19  C   -0.115317
    20  C   -0.107986
    21  C   -0.381607
    22  C   -0.349817
    23  C   -0.129751
    24  C   -0.086816
    25  C    0.122584
    26  C    0.081810
    27  C   -0.379910
    28  C   -0.352466
    29  C   -0.120886
    30  C   -0.127433
    31  C   -0.089277
    32  C   -0.095068
    33  C   -0.105384
    34  C   -0.102492
    35  C    0.058696
    36  C    0.096394
    37  C   -0.338321
    38  C   -0.351677
    39  C   -0.127103
    40  C   -0.109139
    41  C   -0.110472
    42  C   -0.091496
    43  H    0.097427
    44  H    0.058321
    45  H    0.082400
    46  H    0.087315
    47  H    0.091332
    48  H    0.058149
    49  H    0.098092
    50  H    0.110676
    51  H    0.119435
    52  H    0.121465
    53  H    0.106249
    54  H    0.097605
    55  H    0.102569
    56  H    0.116126
    57  H    0.092132
    58  H    0.113863
    59  H    0.097410
    60  H    0.114227
    61  H    0.065983
    62  H    0.101290
    63  H    0.060776
    64  H    0.109240
    65  H    0.068767
    66  H    0.066024
    67  H    0.128946
    68  H    0.127289
    69  H    0.105751
    70  H    0.115312
    71  H    0.115800
    72  H    0.109558
    73  H    0.304560
    74  H    0.317583
    75  H    0.087350
    76  H    0.073584
    77  H    0.108906
    78  H    0.101354
    79  H    0.103731
    80  H    0.136162
    81  H    0.124263
    82  H    0.100767
    83  H    0.083093
    84  H    0.085500
    85  H    0.090640
    86  H    0.070999
    87  H    0.084784
    88  H    0.077683
    89  H    0.131923
    90  H    0.106250
    91  H    0.121863
    92  H    0.126529
    93  H    0.112766
    94  H    0.113208
    95  H    0.084387
    96  H    0.079007
    97  H    0.078500
    98  H    0.080554
 Sum of Mulliken charges =  -0.00000

 Dipole moment (field-independent basis, Debye):
    X=              0.4872    Y=             -1.4925    Z=              0.8298  Tot=              1.7758
 Quadrupole moment (field-independent basis, Debye-Ang):
   XX=           -266.4592   YY=           -238.7675   ZZ=           -260.8725
   XY=              2.9233   XZ=             -3.3374   YZ=              0.2815

 Normal termination of Gaussian 16 at Fri Jul 12 00:20:40 2019.
