 Gaussian 16, Revision A.03,
 Gaussian 16:  ES64L-G16RevA.03 25-Dec-2016

 -------------------------------------
 # td=(NStates=1) CAM-B3LYP/6-31G(d,p)
 -------------------------------------

 --
 TD
 --
 Symbolic Z-matrix:
 Charge =  0 Multiplicity = 1

                         Standard orientation:
 ---------------------------------------------------------------------
 Center     Atomic      Atomic             Coordinates (Angstroms)
 Number     Number       Type             X           Y           Z
 ---------------------------------------------------------------------
      1          8           0       14.676803   -2.221609    0.026906
      2          8           0      -14.655770    1.739747    1.397044
      3          6           0       11.091045   -1.565733    0.938507
      4          6           0      -12.246934   -0.974381    0.686794
      5          6           0       12.596324   -1.978204    1.139280
      6          6           0      -13.581552   -0.335003    0.889472
      7          6           0       13.338268   -1.943602   -0.226747
      8          6           0      -13.415142    1.085291    1.215162
      9          6           0       10.898539   -0.251831    0.122949
     10          6           0      -11.216958   -0.160370   -0.138893
     11          6           0       13.304708   -0.553543   -0.795653
     12          6           0      -12.710698    1.809731   -0.076985
     13          6           0       11.900688    0.122387   -0.701047
     14          6           0      -11.483347    1.076013   -0.514405
     15          6           0       10.408939   -1.407120    2.299182
     16          6           0       10.238876   -2.668877    0.278732
     17          6           0      -11.617575   -1.542059    2.037851
     18          6           0      -12.503520   -2.438858    0.068960
     19          6           0        9.603798    0.360111    0.233673
     20          6           0      -10.025647   -0.918904   -0.504450
     21          6           0       11.800471    1.258889   -1.624635
     22          6           0      -10.618202    1.744385   -1.429567
     23          6           0        9.361135    1.698206    0.308915
     24          6           0       -8.744718   -0.450134   -0.465531
     25          6           0        8.006014    2.286057    0.371028
     26          6           0       -7.560170   -1.211806   -0.588615
     27          6           0        7.900785    3.678335    0.890452
     28          6           0       -7.625059   -2.801713   -0.879249
     29          6           0        6.868273    1.548454   -0.053617
     30          6           0       -6.335891   -0.501194   -0.639988
     31          6           0        5.675065    1.974913    0.137163
     32          6           0       -5.036041   -1.044480   -0.806448
     33          6           0        4.517222    1.250742   -0.117794
     34          6           0       -3.878056   -0.178221   -0.710018
     35          6           0        3.100834    1.771006   -0.008665
     36          6           0       -2.634220   -0.579020   -0.812058
     37          6           0        2.758034    3.101116    0.376327
     38          6           0       -2.370045   -2.112773   -1.143859
     39          6           0        2.024184    0.922226   -0.338334
     40          6           0       -1.640112    0.402928   -0.670140
     41          6           0        0.710171    1.114281   -0.326236
     42          6           0       -0.245689    0.218254   -0.738070
     43          1           0       13.093665   -1.182425    1.836040
     44          1           0       12.784629   -2.948791    1.493429
     45          1           0      -14.060455   -1.033039    1.780112
     46          1           0      -14.526383   -0.401006    0.070169
     47          1           0       12.808360   -2.654928   -0.826790
     48          1           0      -12.808247    1.323811    2.090545
     49          1           0       14.120239    0.130481   -0.336068
     50          1           0       13.661026   -0.637949   -1.733710
     51          1           0      -13.480299    1.886863   -0.897385
     52          1           0      -12.547834    2.780415    0.148569
     53          1           0       10.573810   -2.310511    2.857667
     54          1           0        9.340976   -0.826156    2.208375
     55          1           0       11.120511   -0.516096    2.825906
     56          1           0       10.561547   -2.813727   -0.736407
     57          1           0       10.306705   -3.592297    0.890505
     58          1           0        9.167012   -2.405024    0.447300
     59          1           0      -11.354367   -0.835126    2.723154
     60          1           0      -10.671068   -2.163541    2.010339
     61          1           0      -12.226242   -2.197532    2.510597
     62          1           0      -13.339999   -2.830539    0.370096
     63          1           0      -11.601735   -3.151093    0.042956
     64          1           0      -12.711167   -2.212160   -0.981212
     65          1           0        8.589320   -0.424983    0.306304
     66          1           0      -10.166556   -2.022403   -0.489689
     67          1           0       10.774849    1.438664   -2.030398
     68          1           0       12.052690    2.165673   -1.210087
     69          1           0       12.289125    1.040315   -2.636492
     70          1           0      -11.095622    2.517872   -2.075193
     71          1           0       -9.909158    0.999416   -2.009061
     72          1           0       -9.955047    2.416773   -0.917531
     73          1           0       14.594866   -3.248604    0.108755
     74          1           0      -15.003435    1.420181    2.162870
     75          1           0       10.198591    2.284680    0.301260
     76          1           0       -8.496806    0.589641   -0.320158
     77          1           0        8.825697    4.312999    1.194473
     78          1           0        7.401481    4.453484    0.158396
     79          1           0        7.130048    3.757942    1.692749
     80          1           0       -8.179629   -3.284908   -0.073719
     81          1           0       -8.171518   -2.970388   -1.898522
     82          1           0       -6.606880   -3.310057   -0.923322
     83          1           0        6.969530    0.510528   -0.478888
     84          1           0       -6.285601    0.692154   -0.570369
     85          1           0        5.557400    3.143255    0.332408
     86          1           0       -4.762221   -2.163676   -0.738160
     87          1           0        4.651117    0.243423   -0.503272
     88          1           0       -4.152579    0.905779   -0.644752
     89          1           0        3.581742    3.527974    1.115880
     90          1           0        1.640896    3.216970    0.691464
     91          1           0        2.785367    4.051964   -0.666345
     92          1           0       -2.713680   -2.707295   -0.306317
     93          1           0       -3.013745   -2.245825   -2.072751
     94          1           0       -1.363289   -2.342870   -1.520961
     95          1           0        2.325002   -0.109843   -0.825179
     96          1           0       -2.031711    1.380100   -0.382532
     97          1           0        0.185682    2.065224   -0.018981
     98          1           0        0.292354   -0.691892   -1.038342
 ---------------------------------------------------------------------

 SCF Done:  E(RCAM-B3LYP) =  -1706.96421835     A.U. after   16 cycles

 Excitation energies and oscillator strengths:

 Excited State   1:      Singlet-A      1.8333 eV  676.29 nm  f=3.8293  <S**2>=0.000
     155 ->158         0.13973
     156 ->157         0.69790
     156 <-157        -0.11245
 This state for optimization and/or second-order correction.
 Total Energy, E(TD-HF/TD-DFT) =  -1706.89684618
 Copying the excited state density for this state as the 1-particle RhoCI density.

 The electronic state is 1-A.
 Alpha  occ. eigenvalues --  -19.22334 -19.20191 -10.30523 -10.29842 -10.28889
 Alpha  occ. eigenvalues --  -10.28626 -10.28107 -10.27939 -10.27911 -10.27885
 Alpha  occ. eigenvalues --  -10.27651 -10.27434 -10.27332 -10.27280 -10.27135
 Alpha  occ. eigenvalues --  -10.27078 -10.27050 -10.26948 -10.26908 -10.26854
 Alpha  occ. eigenvalues --  -10.26643 -10.26481 -10.26323 -10.26087 -10.26050
 Alpha  occ. eigenvalues --  -10.26012 -10.25997 -10.25974 -10.25904 -10.25659
 Alpha  occ. eigenvalues --  -10.25579 -10.25542 -10.25141 -10.25033 -10.24979
 Alpha  occ. eigenvalues --  -10.24955 -10.24911 -10.24682 -10.24439 -10.24360
 Alpha  occ. eigenvalues --  -10.23673 -10.23058  -1.10838  -1.10557  -0.93611
 Alpha  occ. eigenvalues --   -0.93428  -0.92602  -0.92076  -0.90828  -0.89457
 Alpha  occ. eigenvalues --   -0.87639  -0.87423  -0.86873  -0.85802  -0.84478
 Alpha  occ. eigenvalues --   -0.83309  -0.81937  -0.80353  -0.79380  -0.78162
 Alpha  occ. eigenvalues --   -0.76294  -0.76252  -0.76112  -0.76025  -0.75895
 Alpha  occ. eigenvalues --   -0.75579  -0.75177  -0.74334  -0.72984  -0.70463
 Alpha  occ. eigenvalues --   -0.69032  -0.67305  -0.66053  -0.64871  -0.64222
 Alpha  occ. eigenvalues --   -0.63251  -0.62336  -0.61671  -0.60062  -0.59833
 Alpha  occ. eigenvalues --   -0.59632  -0.59556  -0.58640  -0.57716  -0.56144
 Alpha  occ. eigenvalues --   -0.55658  -0.55367  -0.55087  -0.53888  -0.53474
 Alpha  occ. eigenvalues --   -0.52883  -0.52799  -0.52009  -0.51353  -0.50368
 Alpha  occ. eigenvalues --   -0.50007  -0.49696  -0.49622  -0.49466  -0.49140
 Alpha  occ. eigenvalues --   -0.48846  -0.48609  -0.48439  -0.47978  -0.47809
 Alpha  occ. eigenvalues --   -0.47555  -0.47439  -0.47131  -0.46618  -0.46523
 Alpha  occ. eigenvalues --   -0.45895  -0.45248  -0.45178  -0.45042  -0.44614
 Alpha  occ. eigenvalues --   -0.44524  -0.44308  -0.44106  -0.44054  -0.43643
 Alpha  occ. eigenvalues --   -0.43394  -0.43292  -0.42507  -0.42338  -0.42259
 Alpha  occ. eigenvalues --   -0.42057  -0.41757  -0.41558  -0.40933  -0.40518
 Alpha  occ. eigenvalues --   -0.40354  -0.40304  -0.39840  -0.39725  -0.39091
 Alpha  occ. eigenvalues --   -0.38979  -0.38662  -0.38419  -0.38278  -0.38142
 Alpha  occ. eigenvalues --   -0.37842  -0.37792  -0.36665  -0.36503  -0.36234
 Alpha  occ. eigenvalues --   -0.35354  -0.34016  -0.33913  -0.32898  -0.32140
 Alpha  occ. eigenvalues --   -0.31187  -0.29590  -0.28315  -0.26222  -0.22899
 Alpha  occ. eigenvalues --   -0.18253
 Alpha virt. eigenvalues --   -0.07106  -0.01908   0.02271   0.05690   0.07200
 Alpha virt. eigenvalues --    0.10046   0.10271   0.10790   0.11721   0.11894
 Alpha virt. eigenvalues --    0.12204   0.12569   0.13102   0.13508   0.13674

 Mulliken charges:
               1
     1  O   -0.540549
     2  O   -0.546383
     3  C   -0.040885
     4  C   -0.038826
     5  C   -0.162306
     6  C   -0.176469
     7  C    0.137692
     8  C    0.150908
     9  C    0.101826
    10  C    0.103962
    11  C   -0.202674
    12  C   -0.232387
    13  C    0.030482
    14  C    0.093052
    15  C   -0.283026
    16  C   -0.289949
    17  C   -0.299013
    18  C   -0.303133
    19  C   -0.119968
    20  C   -0.159830
    21  C   -0.385612
    22  C   -0.399011
    23  C   -0.098189
    24  C   -0.074481
    25  C    0.085667
    26  C    0.083622
    27  C   -0.400214
    28  C   -0.361447
    29  C   -0.092463
    30  C   -0.135858
    31  C   -0.056146
    32  C   -0.100093
    33  C   -0.138510
    34  C   -0.116468
    35  C    0.142979
    36  C    0.125347
    37  C   -0.352113
    38  C   -0.374736
    39  C   -0.140259
    40  C   -0.151249
    41  C   -0.047435
    42  C   -0.086194
    43  H    0.094575
    44  H    0.072013
    45  H    0.058792
    46  H    0.091955
    47  H    0.084039
    48  H    0.088895
    49  H    0.114948
    50  H    0.114143
    51  H    0.115314
    52  H    0.115283
    53  H    0.104216
    54  H    0.101247
    55  H    0.058594
    56  H    0.101090
    57  H    0.092213
    58  H    0.098944
    59  H    0.096784
    60  H    0.093683
    61  H    0.106235
    62  H    0.109603
    63  H    0.093606
    64  H    0.096530
    65  H    0.076519
    66  H    0.076619
    67  H    0.116837
    68  H    0.131650
    69  H    0.096486
    70  H    0.098305
    71  H    0.117442
    72  H    0.116676
    73  H    0.304724
    74  H    0.292800
    75  H    0.085383
    76  H    0.089298
    77  H    0.114290
    78  H    0.111898
    79  H    0.130879
    80  H    0.121673
    81  H    0.118859
    82  H    0.107130
    83  H    0.087146
    84  H    0.078838
    85  H    0.078633
    86  H    0.086830
    87  H    0.081051
    88  H    0.080898
    89  H    0.102399
    90  H    0.119204
    91  H    0.048931
    92  H    0.134217
    93  H    0.123310
    94  H    0.116023
    95  H    0.068332
    96  H    0.086521
    97  H    0.073224
    98  H    0.074612
 Sum of Mulliken charges =  -0.00000

 Dipole moment (field-independent basis, Debye):
    X=              0.9027    Y=             -1.8338    Z=              0.5659  Tot=              2.1208
 Quadrupole moment (field-independent basis, Debye-Ang):
   XX=           -280.4260   YY=           -239.0300   ZZ=           -263.8175
   XY=              3.4761   XZ=            -23.3468   YZ=              2.6639

 Normal termination of Gaussian 16 at Sat Jul 13 12:53:02 2019.
