 Gaussian 16, Revision A.03,
 Gaussian 16:  ES64L-G16RevA.03 25-Dec-2016

 -------------------------------------
 # td=(NStates=1) CAM-B3LYP/6-31G(d,p)
 -------------------------------------

 --
 TD
 --
 Symbolic Z-matrix:
 Charge =  0 Multiplicity = 1

                         Standard orientation:
 ---------------------------------------------------------------------
 Center     Atomic      Atomic             Coordinates (Angstroms)
 Number     Number       Type             X           Y           Z
 ---------------------------------------------------------------------
      1          8           0       14.704306   -2.018441   -0.231915
      2          8           0      -14.586450    2.140786    1.063347
      3          6           0       11.256387   -1.392413    1.034602
      4          6           0      -12.319460   -0.925538    0.895140
      5          6           0       12.850477   -1.657055    1.114439
      6          6           0      -13.605347   -0.091947    0.902046
      7          6           0       13.370509   -1.700992   -0.276810
      8          6           0      -13.399634    1.449109    0.963424
      9          6           0       11.022344   -0.201144    0.143459
     10          6           0      -11.265014   -0.194117   -0.091852
     11          6           0       13.212735   -0.328846   -1.000302
     12          6           0      -12.601017    1.958457   -0.259210
     13          6           0       11.895940    0.190853   -0.813646
     14          6           0      -11.492346    1.020967   -0.635265
     15          6           0       10.895030   -0.991292    2.511661
     16          6           0       10.391311   -2.620222    0.696653
     17          6           0      -11.649280   -1.033678    2.239148
     18          6           0      -12.659701   -2.354837    0.300078
     19          6           0        9.696908    0.339301    0.246583
     20          6           0      -10.062085   -1.127293   -0.473053
     21          6           0       11.549575    1.330413   -1.807768
     22          6           0      -10.549476    1.662753   -1.645549
     23          6           0        9.256861    1.663776    0.039130
     24          6           0       -8.909467   -0.657858   -0.364516
     25          6           0        8.032716    2.226745    0.157162
     26          6           0       -7.532592   -1.371495   -0.687161
     27          6           0        7.911417    3.628897    0.364571
     28          6           0       -7.659781   -2.843060   -1.067369
     29          6           0        6.916697    1.505622    0.041265
     30          6           0       -6.379659   -0.693376   -0.642381
     31          6           0        5.559928    1.865604    0.148670
     32          6           0       -5.113268   -1.152364   -0.779177
     33          6           0        4.379000    1.084273   -0.100011
     34          6           0       -4.013202   -0.390018   -0.547125
     35          6           0        3.091323    1.515261    0.089189
     36          6           0       -2.710708   -0.897248   -0.569569
     37          6           0        2.692921    2.932347    0.595422
     38          6           0       -2.327613   -2.325912   -1.074976
     39          6           0        1.979791    0.615020   -0.258882
     40          6           0       -1.720964    0.060370   -0.313131
     41          6           0        0.606281    0.845229   -0.261245
     42          6           0       -0.271313   -0.220654   -0.456695
     43          1           0       13.223090   -0.841166    1.705640
     44          1           0       13.115941   -2.560871    1.638856
     45          1           0      -14.223773   -0.485422    1.716945
     46          1           0      -14.076180   -0.190197   -0.083556
     47          1           0       12.962345   -2.645971   -0.858240
     48          1           0      -12.887219    1.738180    1.861827
     49          1           0       14.047218    0.224929   -0.406265
     50          1           0       13.533871   -0.534509   -2.029894
     51          1           0      -13.134555    1.988942   -1.202371
     52          1           0      -12.243263    2.927388   -0.119123
     53          1           0       11.258188   -1.789116    3.164213
     54          1           0        9.836648   -0.906578    2.853938
     55          1           0       11.220628    0.115565    2.579340
     56          1           0       10.655561   -2.919197   -0.311868
     57          1           0       10.709636   -3.365274    1.503906
     58          1           0        9.284096   -2.496921    0.583503
     59          1           0      -11.479184   -0.114623    2.688106
     60          1           0      -10.494061   -1.355309    2.185042
     61          1           0      -12.375782   -1.565332    2.887491
     62          1           0      -13.472278   -2.511592    1.070615
     63          1           0      -11.910267   -3.169556    0.396770
     64          1           0      -12.974609   -2.301702   -0.846114
     65          1           0        8.816753   -0.109897    0.774890
     66          1           0      -10.232045   -2.077639   -0.794207
     67          1           0       10.374372    1.474958   -1.943200
     68          1           0       11.676829    2.450494   -1.261303
     69          1           0       11.985394    1.188543   -2.785192
     70          1           0      -11.159229    2.138356   -2.487494
     71          1           0       -9.899028    0.989760   -2.076378
     72          1           0      -10.028048    2.636411   -1.280024
     73          1           0       14.910113   -2.999205   -0.167376
     74          1           0      -15.231997    1.755598    1.898036
     75          1           0       10.225190    2.334908   -0.171022
     76          1           0       -8.688441    0.568564   -0.232103
     77          1           0        9.041449    4.017060   -0.008740
     78          1           0        7.202526    4.024463   -0.193521
     79          1           0        7.786406    3.764833    1.501408
     80          1           0       -8.323334   -3.362741   -0.281578
     81          1           0       -8.266875   -3.077539   -1.881832
     82          1           0       -6.703571   -3.497316   -1.232754
     83          1           0        7.058297    0.234355   -0.213731
     84          1           0       -6.166474    0.392374   -0.079676
     85          1           0        5.331343    2.947989    0.609408
     86          1           0       -5.147072   -2.251488   -1.065650
     87          1           0        4.404822    0.082168   -0.641459
     88          1           0       -4.221453    0.574313   -0.335269
     89          1           0        3.475289    3.306641    1.259510
     90          1           0        1.536075    2.937694    1.149601
     91          1           0        2.534177    3.692594   -0.485087
     92          1           0       -2.266276   -3.234284   -0.225908
     93          1           0       -3.148493   -2.446738   -2.020711
     94          1           0       -1.158073   -2.261020   -1.802805
     95          1           0        2.363340   -0.469921   -0.466209
     96          1           0       -1.933198    1.068279   -0.153698
     97          1           0        0.305236    1.874620    0.056175
     98          1           0        0.069746   -1.229454   -0.734033
 ---------------------------------------------------------------------

 SCF Done:  E(RCAM-B3LYP) =  -1706.86139174     A.U. after   15 cycles

 Excitation energies and oscillator strengths:

 Excited State   1:      Singlet-A      1.9701 eV  629.34 nm  f=3.3992  <S**2>=0.000
     155 ->158         0.13147
     156 ->157         0.69921
     156 <-157        -0.10786
 This state for optimization and/or second-order correction.
 Total Energy, E(TD-HF/TD-DFT) =  -1706.78899337
 Copying the excited state density for this state as the 1-particle RhoCI density.

 The electronic state is 1-A.
 Alpha  occ. eigenvalues --  -19.21594 -19.20520 -10.31472 -10.30520 -10.30039
 Alpha  occ. eigenvalues --  -10.29634 -10.28255 -10.27979 -10.27911 -10.27878
 Alpha  occ. eigenvalues --  -10.27705 -10.27386 -10.27245 -10.27229 -10.27214
 Alpha  occ. eigenvalues --  -10.26975 -10.26840 -10.26798 -10.26775 -10.26771
 Alpha  occ. eigenvalues --  -10.26762 -10.26434 -10.26358 -10.26198 -10.26101
 Alpha  occ. eigenvalues --  -10.26093 -10.26022 -10.25983 -10.25910 -10.25790
 Alpha  occ. eigenvalues --  -10.25566 -10.25493 -10.25478 -10.25371 -10.25152
 Alpha  occ. eigenvalues --  -10.25123 -10.24939 -10.24812 -10.24748 -10.24674
 Alpha  occ. eigenvalues --  -10.24624 -10.24317  -1.09992  -1.08288  -0.93951
 Alpha  occ. eigenvalues --   -0.92661  -0.92614  -0.92192  -0.90536  -0.89456
 Alpha  occ. eigenvalues --   -0.87453  -0.86877  -0.86633  -0.85603  -0.84748
 Alpha  occ. eigenvalues --   -0.82426  -0.81036  -0.79742  -0.79503  -0.77078
 Alpha  occ. eigenvalues --   -0.76227  -0.76127  -0.75445  -0.75311  -0.75210
 Alpha  occ. eigenvalues --   -0.74942  -0.74762  -0.74545  -0.72490  -0.70693
 Alpha  occ. eigenvalues --   -0.68643  -0.67064  -0.66138  -0.64915  -0.63783
 Alpha  occ. eigenvalues --   -0.63027  -0.62044  -0.61428  -0.60897  -0.59167
 Alpha  occ. eigenvalues --   -0.59087  -0.57500  -0.57024  -0.56833  -0.55922
 Alpha  occ. eigenvalues --   -0.55627  -0.55354  -0.55242  -0.54699  -0.53424
 Alpha  occ. eigenvalues --   -0.53187  -0.51933  -0.51794  -0.51405  -0.51096
 Alpha  occ. eigenvalues --   -0.50781  -0.50404  -0.50047  -0.49025  -0.48759
 Alpha  occ. eigenvalues --   -0.48409  -0.48131  -0.47904  -0.47584  -0.47519
 Alpha  occ. eigenvalues --   -0.46964  -0.46836  -0.46644  -0.46545  -0.46287
 Alpha  occ. eigenvalues --   -0.45718  -0.45598  -0.45269  -0.45188  -0.44557
 Alpha  occ. eigenvalues --   -0.44250  -0.44017  -0.43858  -0.43362  -0.43273
 Alpha  occ. eigenvalues --   -0.42975  -0.42522  -0.42197  -0.42082  -0.41981
 Alpha  occ. eigenvalues --   -0.41839  -0.41278  -0.41206  -0.40945  -0.40325
 Alpha  occ. eigenvalues --   -0.39452  -0.39388  -0.39193  -0.39130  -0.38760
 Alpha  occ. eigenvalues --   -0.38587  -0.38430  -0.37950  -0.37784  -0.37181
 Alpha  occ. eigenvalues --   -0.36823  -0.36623  -0.36239  -0.35955  -0.35221
 Alpha  occ. eigenvalues --   -0.34852  -0.34359  -0.33413  -0.32434  -0.31176
 Alpha  occ. eigenvalues --   -0.31088  -0.30383  -0.27930  -0.26546  -0.23567
 Alpha  occ. eigenvalues --   -0.18657
 Alpha virt. eigenvalues --   -0.06556  -0.00904   0.02700   0.06305   0.07952
 Alpha virt. eigenvalues --    0.08938   0.09346   0.10303   0.10659   0.11049
 Alpha virt. eigenvalues --    0.11296   0.12083   0.12349   0.12442   0.12659

 Mulliken charges:
               1
     1  O   -0.573138
     2  O   -0.571674
     3  C   -0.034402
     4  C   -0.008407
     5  C   -0.163933
     6  C   -0.205677
     7  C    0.165177
     8  C    0.203855
     9  C    0.072793
    10  C    0.000750
    11  C   -0.228803
    12  C   -0.220931
    13  C    0.085163
    14  C    0.058763
    15  C   -0.306752
    16  C   -0.288825
    17  C   -0.296714
    18  C   -0.291782
    19  C   -0.109955
    20  C   -0.126971
    21  C   -0.369236
    22  C   -0.363120
    23  C   -0.139193
    24  C   -0.058680
    25  C    0.137426
    26  C    0.074062
    27  C   -0.351827
    28  C   -0.389017
    29  C   -0.111867
    30  C   -0.116104
    31  C   -0.129310
    32  C   -0.056027
    33  C   -0.107404
    34  C   -0.105486
    35  C    0.115894
    36  C    0.109413
    37  C   -0.332504
    38  C   -0.329292
    39  C   -0.135088
    40  C   -0.120098
    41  C   -0.073716
    42  C   -0.086574
    43  H    0.110273
    44  H    0.078131
    45  H    0.071309
    46  H    0.109981
    47  H    0.052711
    48  H    0.071990
    49  H    0.124712
    50  H    0.113556
    51  H    0.120281
    52  H    0.119386
    53  H    0.096959
    54  H    0.094888
    55  H    0.097253
    56  H    0.100648
    57  H    0.090759
    58  H    0.108972
    59  H    0.117225
    60  H    0.101487
    61  H    0.086098
    62  H    0.092304
    63  H    0.104114
    64  H    0.096670
    65  H    0.092341
    66  H    0.086645
    67  H    0.121896
    68  H    0.094512
    69  H    0.107250
    70  H    0.090004
    71  H    0.129094
    72  H    0.099694
    73  H    0.311375
    74  H    0.302422
    75  H    0.063904
    76  H    0.082305
    77  H    0.079160
    78  H    0.133759
    79  H    0.122187
    80  H    0.111005
    81  H    0.134251
    82  H    0.107657
    83  H    0.051048
    84  H    0.057918
    85  H    0.069525
    86  H    0.070764
    87  H    0.089216
    88  H    0.081786
    89  H    0.122917
    90  H    0.086993
    91  H    0.084760
    92  H    0.119268
    93  H    0.105972
    94  H    0.069777
    95  H    0.071073
    96  H    0.085496
    97  H    0.087946
    98  H    0.095583
 Sum of Mulliken charges =  -0.00000

 Dipole moment (field-independent basis, Debye):
    X=             -0.8351    Y=             -2.4225    Z=              0.8072  Tot=              2.6865
 Quadrupole moment (field-independent basis, Debye-Ang):
   XX=           -262.7454   YY=           -245.7703   ZZ=           -260.8504
   XY=             -1.8982   XZ=            -12.6845   YZ=              4.3308

 Normal termination of Gaussian 16 at Fri Jul 19 21:17:04 2019.
