 Gaussian 16, Revision A.03,
 Gaussian 16:  ES64L-G16RevA.03 25-Dec-2016

 -------------------------------------
 # td=(NStates=1) CAM-B3LYP/6-31G(d,p)
 -------------------------------------

 --
 TD
 --
 Symbolic Z-matrix:
 Charge =  0 Multiplicity = 1

                         Standard orientation:
 ---------------------------------------------------------------------
 Center     Atomic      Atomic             Coordinates (Angstroms)
 Number     Number       Type             X           Y           Z
 ---------------------------------------------------------------------
      1          8           0       14.755825   -2.232729   -0.421811
      2          8           0      -14.864771    1.815760    0.709325
      3          6           0       11.324236   -1.429666    1.008574
      4          6           0      -12.445131   -1.102891    0.525838
      5          6           0       12.901023   -1.729586    0.987269
      6          6           0      -13.843699   -0.330211    0.539036
      7          6           0       13.410295   -1.921843   -0.473173
      8          6           0      -13.631532    1.146158    0.815043
      9          6           0       11.004989   -0.300415    0.014031
     10          6           0      -11.378526   -0.206175   -0.119738
     11          6           0       13.328269   -0.555894   -1.171395
     12          6           0      -12.834937    1.803702   -0.329687
     13          6           0       11.928052    0.084732   -1.003299
     14          6           0      -11.578087    1.060697   -0.610579
     15          6           0       11.033557   -1.004712    2.444712
     16          6           0       10.462323   -2.603917    0.651295
     17          6           0      -11.928398   -1.399352    1.998314
     18          6           0      -12.491094   -2.401401   -0.274381
     19          6           0        9.673775    0.331872    0.179460
     20          6           0      -10.099847   -0.886683   -0.411306
     21          6           0       11.654747    1.103271   -2.042869
     22          6           0      -10.642517    1.819457   -1.345718
     23          6           0        9.318952    1.646768    0.022404
     24          6           0       -8.798339   -0.534591   -0.177834
     25          6           0        8.012494    2.192828    0.144791
     26          6           0       -7.653536   -1.192909   -0.624048
     27          6           0        7.951721    3.725961    0.244891
     28          6           0       -7.748901   -2.624478   -1.057113
     29          6           0        6.901930    1.448985    0.071466
     30          6           0       -6.462911   -0.562515   -0.379374
     31          6           0        5.583851    1.914030    0.180594
     32          6           0       -5.135724   -1.066741   -0.419493
     33          6           0        4.427128    1.211054    0.097633
     34          6           0       -3.937836   -0.274727   -0.128185
     35          6           0        3.155525    1.695978    0.317815
     36          6           0       -2.680810   -0.704681   -0.295800
     37          6           0        2.899516    3.161156    0.655206
     38          6           0       -2.284303   -2.107336   -0.816758
     39          6           0        2.049204    0.814813   -0.010992
     40          6           0       -1.599701    0.161696   -0.016633
     41          6           0        0.713354    1.018656    0.223434
     42          6           0       -0.265364    0.109772   -0.117059
     43          1           0       13.551578   -1.146945    1.563029
     44          1           0       13.162955   -2.668867    1.447608
     45          1           0      -14.515715   -0.807439    1.281882
     46          1           0      -14.323811   -0.533326   -0.401850
     47          1           0       12.975140   -2.880817   -0.970756
     48          1           0      -13.004717    1.296477    1.717134
     49          1           0       14.099642    0.242328   -0.705746
     50          1           0       13.688017   -0.613008   -2.194860
     51          1           0      -13.282909    1.653223   -1.253146
     52          1           0      -12.666089    2.774547   -0.121404
     53          1           0       11.490770   -1.681754    3.294058
     54          1           0        9.861833   -0.942440    2.577413
     55          1           0       11.472663   -0.049166    2.711121
     56          1           0       10.838576   -2.732621   -0.375183
     57          1           0       10.810480   -3.455000    1.231025
     58          1           0        9.410001   -2.430985    0.582437
     59          1           0      -11.945844   -0.534231    2.707660
     60          1           0      -11.089557   -1.955609    2.031097
     61          1           0      -12.680397   -2.043359    2.429870
     62          1           0      -13.608780   -2.910144   -0.102846
     63          1           0      -11.786517   -3.091843   -0.010377
     64          1           0      -12.137783   -2.332361   -1.526774
     65          1           0        9.014938   -0.248045    0.653646
     66          1           0      -10.033007   -1.952622   -0.797756
     67          1           0       10.577834    1.486829   -2.218041
     68          1           0       12.134089    2.021847   -1.774987
     69          1           0       12.127459    0.930583   -3.123093
     70          1           0      -11.078822    2.386187   -2.155431
     71          1           0       -9.819606    1.159569   -1.736858
     72          1           0      -10.215203    2.771001   -0.783701
     73          1           0       14.784530   -3.070028   -0.027316
     74          1           0      -15.470588    1.470907    1.351158
     75          1           0       10.328042    2.276299   -0.212948
     76          1           0       -8.566803    0.367473    0.138367
     77          1           0        8.929366    4.126970    0.065155
     78          1           0        7.161926    4.087305   -0.436525
     79          1           0        7.647174    3.912022    1.301989
     80          1           0       -8.116905   -3.531834   -0.543060
     81          1           0       -8.135482   -2.590579   -2.009358
     82          1           0       -6.852367   -2.932853   -1.302515
     83          1           0        7.080304    0.331086   -0.059924
     84          1           0       -6.453126    0.324954    0.027929
     85          1           0        5.571268    2.985856    0.365134
     86          1           0       -5.206534   -2.079744   -0.672998
     87          1           0        4.556631    0.151507   -0.109807
     88          1           0       -4.269964    0.910191    0.011930
     89          1           0        3.556342    3.362423    1.645499
     90          1           0        1.888932    3.434794    1.048705
     91          1           0        3.275819    4.073413    0.075148
     92          1           0       -2.764146   -2.764105   -0.130086
     93          1           0       -2.757218   -2.308481   -1.701344
     94          1           0       -1.336746   -2.313983   -0.947226
     95          1           0        2.434287   -0.163113   -0.346592
     96          1           0       -1.904500    1.211376    0.302479
     97          1           0        0.452654    2.087460    0.459976
     98          1           0        0.248939   -0.800733   -0.347304
 ---------------------------------------------------------------------

 SCF Done:  E(RCAM-B3LYP) =  -1706.99973299     A.U. after   16 cycles

 Excitation energies and oscillator strengths:

 Excited State   1:      Singlet-A      1.8069 eV  686.16 nm  f=3.9932  <S**2>=0.000
     155 ->158         0.13303
     156 ->157         0.70185
     156 <-157        -0.12740
 This state for optimization and/or second-order correction.
 Total Energy, E(TD-HF/TD-DFT) =  -1706.93332954
 Copying the excited state density for this state as the 1-particle RhoCI density.

 The electronic state is 1-A.
 Alpha  occ. eigenvalues --  -19.21129 -19.20500 -10.31128 -10.30490 -10.28208
 Alpha  occ. eigenvalues --  -10.28024 -10.27883 -10.27875 -10.27553 -10.27530
 Alpha  occ. eigenvalues --  -10.27201 -10.27187 -10.26885 -10.26770 -10.26716
 Alpha  occ. eigenvalues --  -10.26625 -10.26613 -10.26519 -10.26404 -10.26129
 Alpha  occ. eigenvalues --  -10.25903 -10.25837 -10.25804 -10.25735 -10.25623
 Alpha  occ. eigenvalues --  -10.25463 -10.25435 -10.25389 -10.25370 -10.25365
 Alpha  occ. eigenvalues --  -10.25335 -10.25266 -10.25136 -10.24798 -10.24700
 Alpha  occ. eigenvalues --  -10.24417 -10.24102 -10.23980 -10.23770 -10.23741
 Alpha  occ. eigenvalues --  -10.23559 -10.23047  -1.11844  -1.10339  -0.93567
 Alpha  occ. eigenvalues --   -0.92935  -0.92338  -0.91942  -0.91276  -0.90103
 Alpha  occ. eigenvalues --   -0.87672  -0.87595  -0.86569  -0.85270  -0.84560
 Alpha  occ. eigenvalues --   -0.83066  -0.82015  -0.80767  -0.80110  -0.78833
 Alpha  occ. eigenvalues --   -0.78355  -0.76724  -0.76496  -0.76257  -0.76122
 Alpha  occ. eigenvalues --   -0.75595  -0.75505  -0.74827  -0.73263  -0.71416
 Alpha  occ. eigenvalues --   -0.69004  -0.67833  -0.66399  -0.65243  -0.63985
 Alpha  occ. eigenvalues --   -0.63454  -0.62904  -0.61937  -0.61506  -0.60647
 Alpha  occ. eigenvalues --   -0.59813  -0.59432  -0.58962  -0.58056  -0.56607
 Alpha  occ. eigenvalues --   -0.55638  -0.55438  -0.55276  -0.54286  -0.54203
 Alpha  occ. eigenvalues --   -0.53545  -0.52631  -0.52167  -0.51941  -0.50706
 Alpha  occ. eigenvalues --   -0.50398  -0.50030  -0.49910  -0.49469  -0.49305
 Alpha  occ. eigenvalues --   -0.49034  -0.48854  -0.48641  -0.48481  -0.48116
 Alpha  occ. eigenvalues --   -0.47918  -0.47625  -0.47264  -0.46328  -0.46248
 Alpha  occ. eigenvalues --   -0.46001  -0.45897  -0.45831  -0.45572  -0.44856
 Alpha  occ. eigenvalues --   -0.44726  -0.44512  -0.44282  -0.43880  -0.43782
 Alpha  occ. eigenvalues --   -0.43190  -0.43125  -0.43022  -0.42618  -0.42475
 Alpha  occ. eigenvalues --   -0.41911  -0.41402  -0.41313  -0.41201  -0.40925
 Alpha  occ. eigenvalues --   -0.40706  -0.40406  -0.39867  -0.39669  -0.39095
 Alpha  occ. eigenvalues --   -0.38981  -0.38731  -0.38389  -0.38282  -0.37840
 Alpha  occ. eigenvalues --   -0.37768  -0.37401  -0.36913  -0.36845  -0.36490
 Alpha  occ. eigenvalues --   -0.35926  -0.35131  -0.34407  -0.32846  -0.32007
 Alpha  occ. eigenvalues --   -0.31060  -0.29802  -0.27711  -0.25710  -0.23057
 Alpha  occ. eigenvalues --   -0.17902
 Alpha virt. eigenvalues --   -0.07180  -0.01183   0.02481   0.05807   0.08000
 Alpha virt. eigenvalues --    0.09826   0.11515   0.12002   0.12301   0.13184
 Alpha virt. eigenvalues --    0.13230   0.13409   0.13634   0.13849   0.14156

 Mulliken charges:
               1
     1  O   -0.540533
     2  O   -0.550452
     3  C   -0.023968
     4  C   -0.005609
     5  C   -0.191509
     6  C   -0.204654
     7  C    0.152926
     8  C    0.160058
     9  C    0.039903
    10  C    0.066009
    11  C   -0.205780
    12  C   -0.193898
    13  C    0.060718
    14  C    0.074701
    15  C   -0.291218
    16  C   -0.291807
    17  C   -0.306225
    18  C   -0.294505
    19  C   -0.079973
    20  C   -0.164729
    21  C   -0.387126
    22  C   -0.378289
    23  C   -0.133889
    24  C   -0.068822
    25  C    0.081747
    26  C    0.095444
    27  C   -0.369253
    28  C   -0.383489
    29  C   -0.100121
    30  C   -0.107559
    31  C   -0.092165
    32  C   -0.090358
    33  C   -0.111584
    34  C   -0.149306
    35  C    0.121619
    36  C    0.126288
    37  C   -0.383695
    38  C   -0.354893
    39  C   -0.122221
    40  C   -0.128416
    41  C   -0.078763
    42  C   -0.074226
    43  H    0.116566
    44  H    0.064825
    45  H    0.076771
    46  H    0.112997
    47  H    0.075980
    48  H    0.083735
    49  H    0.108574
    50  H    0.113561
    51  H    0.129054
    52  H    0.113408
    53  H    0.082169
    54  H    0.079377
    55  H    0.110309
    56  H    0.102467
    57  H    0.102156
    58  H    0.113707
    59  H    0.101599
    60  H    0.120926
    61  H    0.092409
    62  H    0.073780
    63  H    0.124925
    64  H    0.074997
    65  H    0.074174
    66  H    0.068950
    67  H    0.121153
    68  H    0.125782
    69  H    0.092014
    70  H    0.110562
    71  H    0.117219
    72  H    0.095790
    73  H    0.293913
    74  H    0.296922
    75  H    0.082233
    76  H    0.064043
    77  H    0.114958
    78  H    0.123518
    79  H    0.125078
    80  H    0.126253
    81  H    0.130987
    82  H    0.108002
    83  H    0.071055
    84  H    0.061335
    85  H    0.072474
    86  H    0.071215
    87  H    0.080363
    88  H    0.088263
    89  H    0.092564
    90  H    0.115657
    91  H    0.125427
    92  H    0.123257
    93  H    0.127029
    94  H    0.117699
    95  H    0.077637
    96  H    0.063151
    97  H    0.076944
    98  H    0.069712
 Sum of Mulliken charges =  -0.00000

 Dipole moment (field-independent basis, Debye):
    X=             -0.9536    Y=             -1.8570    Z=              1.0448  Tot=              2.3344
 Quadrupole moment (field-independent basis, Debye-Ang):
   XX=           -249.0963   YY=           -240.3533   ZZ=           -261.5995
   XY=              8.9060   XZ=             -5.7151   YZ=              1.8598

 Normal termination of Gaussian 16 at Mon Jul 15 16:56:07 2019.
