 Gaussian 16, Revision A.03,
 Gaussian 16:  ES64L-G16RevA.03 25-Dec-2016

 -------------------------------------
 # td=(NStates=1) CAM-B3LYP/6-31G(d,p)
 -------------------------------------

 --
 TD
 --
 Symbolic Z-matrix:
 Charge =  0 Multiplicity = 1

                         Standard orientation:
 ---------------------------------------------------------------------
 Center     Atomic      Atomic             Coordinates (Angstroms)
 Number     Number       Type             X           Y           Z
 ---------------------------------------------------------------------
      1          8           0       14.778795   -1.930053   -0.327415
      2          8           0      -14.680939    2.115268    0.722721
      3          6           0       11.297531   -1.359179    0.987065
      4          6           0      -12.333210   -0.885910    0.637434
      5          6           0       12.804459   -1.548002    1.049960
      6          6           0      -13.680347   -0.086445    0.539192
      7          6           0       13.383157   -1.647947   -0.353563
      8          6           0      -13.549813    1.399687    0.732646
      9          6           0       10.993653   -0.244541   -0.078150
     10          6           0      -11.271427   -0.179598   -0.148910
     11          6           0       13.264046   -0.309878   -0.969443
     12          6           0      -12.666217    1.825768   -0.361192
     13          6           0       11.903842    0.263671   -0.921577
     14          6           0      -11.460777    1.032090   -0.624153
     15          6           0       10.793334   -1.031400    2.411865
     16          6           0       10.593935   -2.641526    0.468342
     17          6           0      -11.932225   -0.983846    2.111209
     18          6           0      -12.660218   -2.230264   -0.028275
     19          6           0        9.581751    0.307409    0.058412
     20          6           0      -10.034714   -0.937489   -0.401181
     21          6           0       11.634794    1.220655   -2.020469
     22          6           0      -10.489541    1.776024   -1.538071
     23          6           0        9.267153    1.610514   -0.019609
     24          6           0       -8.678093   -0.544743   -0.357174
     25          6           0        7.986843    2.205401    0.204059
     26          6           0       -7.523429   -1.299672   -0.580220
     27          6           0        7.953577    3.749824    0.389269
     28          6           0       -7.744941   -2.855746   -0.824512
     29          6           0        6.794579    1.462721    0.147399
     30          6           0       -6.293980   -0.720555   -0.462366
     31          6           0        5.518725    2.011650    0.338805
     32          6           0       -5.064672   -1.305618   -0.577289
     33          6           0        4.387589    1.162538    0.045948
     34          6           0       -3.986781   -0.597963   -0.373902
     35          6           0        3.049080    1.461132    0.248567
     36          6           0       -2.616971   -1.065484   -0.343756
     37          6           0        2.627865    2.925981    0.687853
     38          6           0       -2.279731   -2.476281   -0.635624
     39          6           0        2.042221    0.602572   -0.064315
     40          6           0       -1.595172   -0.064537   -0.144714
     41          6           0        0.750295    0.768392   -0.044566
     42          6           0       -0.260128   -0.210160   -0.114816
     43          1           0       13.313270   -0.856470    1.542944
     44          1           0       12.892607   -2.733579    1.446008
     45          1           0      -14.432121   -0.587578    1.146068
     46          1           0      -14.311767   -0.153784   -0.436611
     47          1           0       12.919339   -2.505054   -1.205624
     48          1           0      -12.920019    1.420885    1.639883
     49          1           0       13.959762    0.349009   -0.668558
     50          1           0       13.538277   -0.633965   -1.846675
     51          1           0      -13.174483    1.881547   -1.264713
     52          1           0      -12.559903    2.883181   -0.066844
     53          1           0       10.983693   -1.659515    3.076960
     54          1           0        9.587251   -0.780099    2.169726
     55          1           0       11.007735   -0.094798    2.695745
     56          1           0       10.806400   -2.856499   -0.438148
     57          1           0       10.902902   -3.480486    0.918277
     58          1           0        9.465951   -2.633960    0.416296
     59          1           0      -12.009250    0.097022    2.500658
     60          1           0      -10.875533   -1.332225    2.359753
     61          1           0      -12.723048   -1.486572    2.699438
     62          1           0      -13.384110   -2.760112    0.570949
     63          1           0      -11.782163   -2.914687   -0.010897
     64          1           0      -13.083532   -2.224340   -1.017043
     65          1           0        8.884504   -0.377791    0.311927
     66          1           0      -10.180728   -1.924923   -0.643612
     67          1           0       10.656029    1.316436   -2.316224
     68          1           0       11.965624    2.303106   -1.892367
     69          1           0       12.170988    0.953044   -2.941657
     70          1           0      -10.920471    2.196803   -2.430860
     71          1           0       -9.765367    1.120932   -2.132943
     72          1           0       -9.865351    2.404474   -0.874961
     73          1           0       14.938381   -2.744729    0.237484
     74          1           0      -15.334690    2.014824    1.410802
     75          1           0       10.209564    2.255911   -0.267685
     76          1           0       -8.422234    0.536228   -0.151672
     77          1           0        8.969220    4.397772    0.739200
     78          1           0        7.534958    4.194203   -0.252107
     79          1           0        7.220722    3.928358    1.212988
     80          1           0       -8.449576   -3.253304   -0.122719
     81          1           0       -8.243521   -2.828248   -1.844374
     82          1           0       -6.780920   -3.211356   -0.823585
     83          1           0        6.965377    0.373091   -0.116800
     84          1           0       -6.301581    0.293160   -0.405179
     85          1           0        5.286816    3.138760    0.330640
     86          1           0       -5.080703   -2.390240   -0.724836
     87          1           0        4.674278    0.208106   -0.119468
     88          1           0       -4.149389    0.514341   -0.306713
     89          1           0        2.997075    3.161107    1.740860
     90          1           0        1.510957    3.243385    0.517672
     91          1           0        3.169679    3.690294   -0.058800
     92          1           0       -3.079807   -3.043325   -0.015533
     93          1           0       -2.298098   -2.671131   -1.670384
     94          1           0       -1.141774   -2.699134   -0.218836
     95          1           0        2.334728   -0.391969   -0.152426
     96          1           0       -1.826161    1.061112    0.025044
     97          1           0        0.348455    1.762934    0.309704
     98          1           0        0.062639   -1.307318   -0.163703
 ---------------------------------------------------------------------

 SCF Done:  E(RCAM-B3LYP) =  -1706.92056614     A.U. after   16 cycles

 Excitation energies and oscillator strengths:

 Excited State   1:      Singlet-A      1.8772 eV  660.46 nm  f=3.8166  <S**2>=0.000
     155 ->158         0.12806
     156 ->157         0.70211
     156 <-157        -0.12218
 This state for optimization and/or second-order correction.
 Total Energy, E(TD-HF/TD-DFT) =  -1706.85157909
 Copying the excited state density for this state as the 1-particle RhoCI density.

 The electronic state is 1-A.
 Alpha  occ. eigenvalues --  -19.21724 -19.21034 -10.31198 -10.29202 -10.28343
 Alpha  occ. eigenvalues --  -10.27781 -10.27648 -10.27635 -10.27348 -10.27337
 Alpha  occ. eigenvalues --  -10.27328 -10.27222 -10.26667 -10.26653 -10.26585
 Alpha  occ. eigenvalues --  -10.26320 -10.26092 -10.26057 -10.26031 -10.26012
 Alpha  occ. eigenvalues --  -10.25886 -10.25754 -10.25618 -10.25589 -10.25558
 Alpha  occ. eigenvalues --  -10.25507 -10.25494 -10.25296 -10.25270 -10.25066
 Alpha  occ. eigenvalues --  -10.25062 -10.24792 -10.24686 -10.24491 -10.24333
 Alpha  occ. eigenvalues --  -10.24279 -10.24267 -10.24126 -10.23234 -10.23146
 Alpha  occ. eigenvalues --  -10.22352 -10.21767  -1.12199  -1.08609  -0.94179
 Alpha  occ. eigenvalues --   -0.93854  -0.92907  -0.92245  -0.90630  -0.89905
 Alpha  occ. eigenvalues --   -0.87853  -0.87615  -0.86983  -0.86092  -0.84936
 Alpha  occ. eigenvalues --   -0.83928  -0.82221  -0.80723  -0.79336  -0.78708
 Alpha  occ. eigenvalues --   -0.78441  -0.77108  -0.76925  -0.76591  -0.76456
 Alpha  occ. eigenvalues --   -0.75752  -0.75144  -0.74918  -0.73234  -0.71645
 Alpha  occ. eigenvalues --   -0.69659  -0.68056  -0.66247  -0.65423  -0.64992
 Alpha  occ. eigenvalues --   -0.64356  -0.63301  -0.61958  -0.60999  -0.60813
 Alpha  occ. eigenvalues --   -0.60302  -0.59393  -0.58455  -0.57701  -0.56343
 Alpha  occ. eigenvalues --   -0.55972  -0.55764  -0.54946  -0.54660  -0.54071
 Alpha  occ. eigenvalues --   -0.53479  -0.52821  -0.52669  -0.52115  -0.51920
 Alpha  occ. eigenvalues --   -0.50881  -0.50146  -0.50116  -0.49962  -0.49894
 Alpha  occ. eigenvalues --   -0.49519  -0.48948  -0.48845  -0.48375  -0.48009
 Alpha  occ. eigenvalues --   -0.47742  -0.47641  -0.47345  -0.47183  -0.47113
 Alpha  occ. eigenvalues --   -0.46495  -0.45840  -0.45611  -0.45208  -0.44957
 Alpha  occ. eigenvalues --   -0.44822  -0.44372  -0.44221  -0.43756  -0.43511
 Alpha  occ. eigenvalues --   -0.43250  -0.42645  -0.42526  -0.41953  -0.41837
 Alpha  occ. eigenvalues --   -0.41548  -0.41407  -0.41240  -0.40892  -0.40655
 Alpha  occ. eigenvalues --   -0.40543  -0.40335  -0.40274  -0.39831  -0.39517
 Alpha  occ. eigenvalues --   -0.39358  -0.39179  -0.38604  -0.38519  -0.38293
 Alpha  occ. eigenvalues --   -0.37745  -0.37407  -0.36731  -0.36090  -0.35271
 Alpha  occ. eigenvalues --   -0.35099  -0.34521  -0.33823  -0.32671  -0.31592
 Alpha  occ. eigenvalues --   -0.31175  -0.30098  -0.28914  -0.26215  -0.23316
 Alpha  occ. eigenvalues --   -0.18248
 Alpha virt. eigenvalues --   -0.07037  -0.00891   0.02465   0.06542   0.09071
 Alpha virt. eigenvalues --    0.10144   0.11041   0.11849   0.12583   0.12835
 Alpha virt. eigenvalues --    0.12949   0.13645   0.13873   0.14280   0.14359

 Mulliken charges:
               1
     1  O   -0.574394
     2  O   -0.556640
     3  C   -0.022203
     4  C   -0.026373
     5  C   -0.168129
     6  C   -0.201965
     7  C    0.160091
     8  C    0.196210
     9  C    0.049880
    10  C    0.099013
    11  C   -0.194935
    12  C   -0.210811
    13  C    0.043491
    14  C    0.042419
    15  C   -0.267186
    16  C   -0.297665
    17  C   -0.299793
    18  C   -0.309326
    19  C   -0.108222
    20  C   -0.151528
    21  C   -0.382174
    22  C   -0.363391
    23  C   -0.107366
    24  C   -0.093207
    25  C    0.064725
    26  C    0.078740
    27  C   -0.347303
    28  C   -0.349961
    29  C   -0.112154
    30  C   -0.113919
    31  C   -0.100841
    32  C   -0.060528
    33  C   -0.113768
    34  C   -0.103419
    35  C    0.108839
    36  C    0.068572
    37  C   -0.371572
    38  C   -0.356025
    39  C   -0.090829
    40  C   -0.102763
    41  C   -0.086508
    42  C   -0.083538
    43  H    0.113129
    44  H    0.040564
    45  H    0.068943
    46  H    0.076101
    47  H    0.043110
    48  H    0.059001
    49  H    0.122872
    50  H    0.121900
    51  H    0.118960
    52  H    0.105047
    53  H    0.106535
    54  H    0.061551
    55  H    0.117259
    56  H    0.115907
    57  H    0.100480
    58  H    0.090435
    59  H    0.096141
    60  H    0.111801
    61  H    0.099330
    62  H    0.097382
    63  H    0.090809
    64  H    0.115246
    65  H    0.079513
    66  H    0.075989
    67  H    0.132714
    68  H    0.103817
    69  H    0.106356
    70  H    0.110229
    71  H    0.105724
    72  H    0.120287
    73  H    0.304013
    74  H    0.311976
    75  H    0.088594
    76  H    0.067539
    77  H    0.087221
    78  H    0.135482
    79  H    0.110970
    80  H    0.127251
    81  H    0.121010
    82  H    0.104818
    83  H    0.091737
    84  H    0.069814
    85  H    0.093060
    86  H    0.080893
    87  H    0.076647
    88  H    0.085658
    89  H    0.123348
    90  H    0.108234
    91  H    0.094783
    92  H    0.113126
    93  H    0.145637
    94  H    0.095649
    95  H    0.074004
    96  H    0.069741
    97  H    0.069566
    98  H    0.058553
 Sum of Mulliken charges =  -0.00000

 Dipole moment (field-independent basis, Debye):
    X=             -1.6601    Y=             -1.1920    Z=              1.2228  Tot=              2.3816
 Quadrupole moment (field-independent basis, Debye-Ang):
   XX=           -248.9372   YY=           -244.3304   ZZ=           -260.5654
   XY=              2.6198   XZ=             -5.7135   YZ=              1.4703

 Normal termination of Gaussian 16 at Thu Jul 18 18:22:09 2019.
