 Gaussian 16, Revision A.03,
 Gaussian 16:  ES64L-G16RevA.03 25-Dec-2016

 -------------------------------------
 # td=(NStates=1) CAM-B3LYP/6-31G(d,p)
 -------------------------------------

 --
 TD
 --
 Symbolic Z-matrix:
 Charge =  0 Multiplicity = 1

                         Standard orientation:
 ---------------------------------------------------------------------
 Center     Atomic      Atomic             Coordinates (Angstroms)
 Number     Number       Type             X           Y           Z
 ---------------------------------------------------------------------
      1          8           0       14.725519   -2.147285   -0.024170
      2          8           0      -14.827849    1.921249    1.045891
      3          6           0       11.221869   -1.459258    1.116706
      4          6           0      -12.494778   -1.137863    0.644926
      5          6           0       12.723457   -1.684173    1.064415
      6          6           0      -13.742127   -0.270776    0.701413
      7          6           0       13.387537   -1.918398   -0.208935
      8          6           0      -13.512296    1.245756    1.074249
      9          6           0       10.954925   -0.243195    0.065552
     10          6           0      -11.268433   -0.219706   -0.044263
     11          6           0       13.251582   -0.557173   -0.999669
     12          6           0      -12.650958    1.895672   -0.015822
     13          6           0       11.837154    0.141763   -0.810686
     14          6           0      -11.501825    1.103599   -0.398934
     15          6           0       10.826951   -0.953738    2.606273
     16          6           0       10.469165   -2.736049    0.690064
     17          6           0      -11.897403   -1.418467    2.051715
     18          6           0      -12.545316   -2.406380   -0.114741
     19          6           0        9.547410    0.284652    0.192169
     20          6           0      -10.126802   -1.045665   -0.374554
     21          6           0       11.610886    1.140675   -1.884500
     22          6           0      -10.499176    1.903436   -1.225336
     23          6           0        9.334577    1.570294    0.012113
     24          6           0       -8.860150   -0.513764   -0.301409
     25          6           0        8.056552    2.153880    0.078854
     26          6           0       -7.590595   -1.229041   -0.612399
     27          6           0        7.977292    3.644330    0.366861
     28          6           0       -7.781885   -2.718666   -0.986420
     29          6           0        6.907186    1.505101   -0.119678
     30          6           0       -6.324596   -0.610315   -0.464104
     31          6           0        5.610659    2.071091    0.097833
     32          6           0       -5.044884   -1.095177   -0.793432
     33          6           0        4.454617    1.268717   -0.177500
     34          6           0       -3.943981   -0.342687   -0.416700
     35          6           0        3.168258    1.716173    0.089500
     36          6           0       -2.657726   -0.733123   -0.736571
     37          6           0        2.858390    3.154252    0.538100
     38          6           0       -2.320781   -2.150940   -1.318820
     39          6           0        2.142702    0.755231   -0.126828
     40          6           0       -1.530993    0.158228   -0.392269
     41          6           0        0.734499    1.031561   -0.159124
     42          6           0       -0.261345    0.019879   -0.629085
     43          1           0       13.186427   -0.792470    1.605096
     44          1           0       12.872828   -2.501821    1.862308
     45          1           0      -14.476143   -0.997200    1.289704
     46          1           0      -14.181244   -0.333916   -0.479382
     47          1           0       12.934626   -2.650364   -0.886178
     48          1           0      -13.176487    1.367890    2.123900
     49          1           0       13.933695    0.005531   -0.441087
     50          1           0       13.334544   -0.696948   -1.936378
     51          1           0      -13.047836    2.198760   -0.757702
     52          1           0      -12.102571    2.804427    0.318085
     53          1           0       10.880390   -1.933637    3.068015
     54          1           0        9.694516   -0.662378    2.779061
     55          1           0       11.446919   -0.085609    2.926293
     56          1           0       10.947354   -2.931667   -0.234267
     57          1           0       10.670224   -3.358687    1.656507
     58          1           0        9.398203   -2.308231    0.664176
     59          1           0      -11.725213   -0.475212    2.715661
     60          1           0      -10.697749   -1.764650    2.160841
     61          1           0      -12.621482   -2.093482    2.541336
     62          1           0      -13.467504   -3.149863    0.121623
     63          1           0      -11.587808   -2.804311   -0.263874
     64          1           0      -12.704342   -1.992598   -1.228223
     65          1           0        8.807934   -0.519902    0.605279
     66          1           0      -10.189481   -2.156941   -0.656729
     67          1           0       10.569420    1.236721   -1.772022
     68          1           0       12.289884    2.039319   -1.606865
     69          1           0       12.002480    0.678021   -2.837191
     70          1           0      -11.090289    2.521628   -1.898543
     71          1           0       -9.998531    1.301563   -1.982585
     72          1           0       -9.904912    2.615567   -0.617347
     73          1           0       14.821206   -3.085207    0.238294
     74          1           0      -15.501195    1.455825    1.584647
     75          1           0       10.204181    2.160769   -0.133901
     76          1           0       -8.688169    0.475044    0.095033
     77          1           0        8.802601    4.198266   -0.165207
     78          1           0        7.071120    4.242836   -0.104990
     79          1           0        7.872166    3.920122    1.545620
     80          1           0       -8.390227   -3.268115   -0.270178
     81          1           0       -8.181305   -2.693833   -1.904580
     82          1           0       -6.693408   -3.146302   -1.068977
     83          1           0        6.891355    0.342782   -0.248774
     84          1           0       -6.301936    0.224204    0.138100
     85          1           0        5.886068    3.187143    0.366342
     86          1           0       -5.125260   -2.306230   -1.134183
     87          1           0        4.584709    0.307510   -0.355403
     88          1           0       -4.052322    0.650629    0.335566
     89          1           0        3.231104    3.263657    1.531922
     90          1           0        1.741426    3.276483    0.126058
     91          1           0        3.325756    3.640630   -0.281725
     92          1           0       -2.911527   -2.919234   -0.853103
     93          1           0       -2.687495   -2.475135   -2.301382
     94          1           0       -1.342244   -2.064514   -1.721053
     95          1           0        2.602760   -0.193682   -0.537948
     96          1           0       -2.096754    1.067135    0.295860
     97          1           0        0.313867    1.956541    0.342718
     98          1           0        0.326588   -0.886974   -1.005831
 ---------------------------------------------------------------------

 SCF Done:  E(RCAM-B3LYP) =  -1706.81292568     A.U. after   17 cycles

 Excitation energies and oscillator strengths:

 Excited State   1:      Singlet-A      1.7242 eV  719.08 nm  f=3.6318  <S**2>=0.000
     155 ->158         0.11585
     156 ->157         0.70964
     156 <-157        -0.14830
 This state for optimization and/or second-order correction.
 Total Energy, E(TD-HF/TD-DFT) =  -1706.74956210
 Copying the excited state density for this state as the 1-particle RhoCI density.

 The electronic state is 1-A.
 Alpha  occ. eigenvalues --  -19.21764 -19.20269 -10.32263 -10.30147 -10.27988
 Alpha  occ. eigenvalues --  -10.27959 -10.27945 -10.27765 -10.27623 -10.27608
 Alpha  occ. eigenvalues --  -10.27568 -10.27542 -10.27531 -10.27475 -10.27180
 Alpha  occ. eigenvalues --  -10.27118 -10.26999 -10.26794 -10.26694 -10.26678
 Alpha  occ. eigenvalues --  -10.26567 -10.26391 -10.26122 -10.26120 -10.26109
 Alpha  occ. eigenvalues --  -10.26088 -10.25967 -10.25861 -10.25716 -10.25706
 Alpha  occ. eigenvalues --  -10.25575 -10.25554 -10.25273 -10.25209 -10.25183
 Alpha  occ. eigenvalues --  -10.25060 -10.24995 -10.24980 -10.24885 -10.24882
 Alpha  occ. eigenvalues --  -10.24062 -10.23499  -1.11554  -1.06767  -0.93584
 Alpha  occ. eigenvalues --   -0.93029  -0.92010  -0.91137  -0.90557  -0.89121
 Alpha  occ. eigenvalues --   -0.88234  -0.87515  -0.86662  -0.85567  -0.84234
 Alpha  occ. eigenvalues --   -0.82661  -0.81566  -0.80192  -0.79381  -0.78362
 Alpha  occ. eigenvalues --   -0.76787  -0.76350  -0.76213  -0.76068  -0.75711
 Alpha  occ. eigenvalues --   -0.75416  -0.74886  -0.74413  -0.72321  -0.70748
 Alpha  occ. eigenvalues --   -0.68981  -0.67999  -0.66370  -0.65333  -0.63579
 Alpha  occ. eigenvalues --   -0.61659  -0.61225  -0.60519  -0.60234  -0.59781
 Alpha  occ. eigenvalues --   -0.59173  -0.58551  -0.57826  -0.56993  -0.55685
 Alpha  occ. eigenvalues --   -0.55624  -0.55298  -0.54989  -0.54500  -0.53737
 Alpha  occ. eigenvalues --   -0.53262  -0.52488  -0.52331  -0.51998  -0.51550
 Alpha  occ. eigenvalues --   -0.51308  -0.50863  -0.50233  -0.49803  -0.49762
 Alpha  occ. eigenvalues --   -0.49395  -0.49109  -0.48862  -0.48571  -0.48204
 Alpha  occ. eigenvalues --   -0.47801  -0.47667  -0.47159  -0.46849  -0.46260
 Alpha  occ. eigenvalues --   -0.46002  -0.45784  -0.45190  -0.45066  -0.44812
 Alpha  occ. eigenvalues --   -0.44564  -0.44356  -0.44092  -0.43715  -0.43355
 Alpha  occ. eigenvalues --   -0.43032  -0.42932  -0.42440  -0.42300  -0.41974
 Alpha  occ. eigenvalues --   -0.41138  -0.41019  -0.40494  -0.40311  -0.39916
 Alpha  occ. eigenvalues --   -0.39653  -0.39525  -0.39228  -0.38873  -0.38596
 Alpha  occ. eigenvalues --   -0.38232  -0.38061  -0.37827  -0.37499  -0.37430
 Alpha  occ. eigenvalues --   -0.37218  -0.36727  -0.36362  -0.35728  -0.35647
 Alpha  occ. eigenvalues --   -0.34895  -0.33208  -0.32927  -0.32635  -0.32208
 Alpha  occ. eigenvalues --   -0.32088  -0.30001  -0.28436  -0.25781  -0.23368
 Alpha  occ. eigenvalues --   -0.17408
 Alpha virt. eigenvalues --   -0.07266  -0.00704   0.02604   0.06066   0.08226
 Alpha virt. eigenvalues --    0.08716   0.10661   0.11019   0.11680   0.11763
 Alpha virt. eigenvalues --    0.12633   0.12864   0.12983   0.13217   0.13561

 Mulliken charges:
               1
     1  O   -0.541714
     2  O   -0.586437
     3  C   -0.064053
     4  C    0.014868
     5  C   -0.166343
     6  C   -0.197818
     7  C    0.151019
     8  C    0.177762
     9  C    0.066485
    10  C    0.034480
    11  C   -0.183135
    12  C   -0.161053
    13  C   -0.018013
    14  C    0.016211
    15  C   -0.298000
    16  C   -0.264941
    17  C   -0.287812
    18  C   -0.291785
    19  C   -0.090960
    20  C   -0.134213
    21  C   -0.349671
    22  C   -0.373536
    23  C   -0.129489
    24  C   -0.090005
    25  C    0.100488
    26  C    0.045383
    27  C   -0.395784
    28  C   -0.357595
    29  C   -0.102870
    30  C   -0.107735
    31  C   -0.091563
    32  C   -0.084513
    33  C   -0.112290
    34  C   -0.130977
    35  C    0.082637
    36  C    0.101609
    37  C   -0.353453
    38  C   -0.368855
    39  C   -0.125812
    40  C   -0.088090
    41  C   -0.117088
    42  C   -0.114110
    43  H    0.095001
    44  H    0.053592
    45  H    0.073248
    46  H    0.078307
    47  H    0.072505
    48  H    0.100592
    49  H    0.128440
    50  H    0.095448
    51  H    0.124013
    52  H    0.108351
    53  H    0.099091
    54  H    0.089276
    55  H    0.116199
    56  H    0.116560
    57  H    0.092780
    58  H    0.092540
    59  H    0.087745
    60  H    0.087640
    61  H    0.089933
    62  H    0.088126
    63  H    0.118755
    64  H    0.083328
    65  H    0.091277
    66  H    0.090285
    67  H    0.128688
    68  H    0.106668
    69  H    0.100705
    70  H    0.100677
    71  H    0.130841
    72  H    0.118405
    73  H    0.308340
    74  H    0.305375
    75  H    0.110641
    76  H    0.083404
    77  H    0.112086
    78  H    0.111267
    79  H    0.112331
    80  H    0.126484
    81  H    0.140374
    82  H    0.079496
    83  H    0.064757
    84  H    0.076200
    85  H    0.085957
    86  H    0.072603
    87  H    0.079665
    88  H    0.084579
    89  H    0.140696
    90  H    0.102395
    91  H    0.136517
    92  H    0.131432
    93  H    0.109126
    94  H    0.117025
    95  H    0.076633
    96  H    0.063687
    97  H    0.097585
    98  H    0.101101
 Sum of Mulliken charges =  -0.00000

 Dipole moment (field-independent basis, Debye):
    X=              1.4057    Y=             -1.7805    Z=              0.8328  Tot=              2.4165
 Quadrupole moment (field-independent basis, Debye-Ang):
   XX=           -264.0617   YY=           -245.7212   ZZ=           -261.6340
   XY=              5.4770   XZ=             -6.7366   YZ=              4.7723

 Normal termination of Gaussian 16 at Wed Jul 10 21:10:23 2019.
