 Gaussian 16, Revision A.03,
 Gaussian 16:  ES64L-G16RevA.03 25-Dec-2016

 -------------------------------------
 # td=(NStates=1) CAM-B3LYP/6-31G(d,p)
 -------------------------------------

 --
 TD
 --
 Symbolic Z-matrix:
 Charge =  0 Multiplicity = 1

                         Standard orientation:
 ---------------------------------------------------------------------
 Center     Atomic      Atomic             Coordinates (Angstroms)
 Number     Number       Type             X           Y           Z
 ---------------------------------------------------------------------
      1          8           0       14.682914   -2.204771   -0.291998
      2          8           0      -14.726015    1.878665    1.172577
      3          6           0       11.206855   -1.385944    1.136695
      4          6           0      -12.332406   -0.961257    0.769492
      5          6           0       12.706655   -1.863780    1.036108
      6          6           0      -13.616257   -0.265525    0.852126
      7          6           0       13.380012   -1.795364   -0.285204
      8          6           0      -13.447202    1.161957    1.003076
      9          6           0       10.984946   -0.211051    0.108892
     10          6           0      -11.259523   -0.179521   -0.107651
     11          6           0       13.281464   -0.540192   -0.842183
     12          6           0      -12.678689    1.767483   -0.246122
     13          6           0       11.915151    0.124530   -0.764580
     14          6           0      -11.399476    1.109371   -0.551579
     15          6           0       10.774317   -1.082185    2.503622
     16          6           0       10.379475   -2.652145    0.583564
     17          6           0      -11.664540   -1.371161    2.107801
     18          6           0      -12.628027   -2.378388    0.099191
     19          6           0        9.608354    0.388338    0.047948
     20          6           0      -10.021662   -1.012025   -0.423866
     21          6           0       11.594569    1.138054   -1.890164
     22          6           0      -10.577484    1.775272   -1.474030
     23          6           0        9.322317    1.740841    0.016038
     24          6           0       -8.806130   -0.505771   -0.467078
     25          6           0        8.024136    2.234897    0.171547
     26          6           0       -7.628035   -1.215384   -0.706882
     27          6           0        7.847982    3.649436    0.592300
     28          6           0       -7.683196   -2.571917   -1.013022
     29          6           0        6.892666    1.470937   -0.077873
     30          6           0       -6.318622   -0.595868   -0.510674
     31          6           0        5.611434    1.996084    0.169620
     32          6           0       -5.100877   -1.175966   -0.883151
     33          6           0        4.502922    1.199169   -0.034416
     34          6           0       -4.019410   -0.384406   -0.667204
     35          6           0        3.153248    1.725889    0.126221
     36          6           0       -2.623316   -0.700276   -0.760753
     37          6           0        2.835395    3.050592    0.536829
     38          6           0       -2.288411   -2.208088   -1.149470
     39          6           0        2.064435    0.828970   -0.162741
     40          6           0       -1.636294    0.270410   -0.432606
     41          6           0        0.651895    1.007786   -0.167199
     42          6           0       -0.290369    0.078768   -0.376761
     43          1           0       13.140472   -1.087843    1.807676
     44          1           0       12.723328   -2.896819    1.445621
     45          1           0      -14.177418   -0.817976    1.679022
     46          1           0      -14.170811   -0.525514    0.074694
     47          1           0       12.841647   -2.678531   -0.896116
     48          1           0      -12.815873    1.336241    1.831204
     49          1           0       14.047502    0.197999   -0.235660
     50          1           0       13.648304   -0.554832   -1.796247
     51          1           0      -13.444541    1.733078   -0.894571
     52          1           0      -12.560979    2.943427    0.119281
     53          1           0       10.876732   -1.921591    3.205425
     54          1           0        9.744202   -0.880560    2.551485
     55          1           0       11.318408   -0.224735    2.709933
     56          1           0       10.784606   -3.111051   -0.258571
     57          1           0       10.483694   -3.674602    1.273640
     58          1           0        9.112603   -2.360163    0.531456
     59          1           0      -11.534341   -0.433869    2.826790
     60          1           0      -10.817754   -1.916601    2.067305
     61          1           0      -12.238179   -2.122412    2.774830
     62          1           0      -13.283736   -2.971946    0.815112
     63          1           0      -11.579033   -3.059155   -0.076880
     64          1           0      -13.463468   -2.168226   -0.868957
     65          1           0        8.839711   -0.356361    0.330485
     66          1           0      -10.195639   -2.070992   -0.672180
     67          1           0       10.438504    1.382018   -1.893614
     68          1           0       12.196599    2.128066   -1.618189
     69          1           0       11.847860    0.804371   -2.879849
     70          1           0      -11.310692    2.456495   -2.200679
     71          1           0       -9.964270    1.221293   -2.132956
     72          1           0       -9.952110    2.717137   -0.932328
     73          1           0       14.753596   -2.984894    0.222137
     74          1           0      -15.179871    1.425014    1.781504
     75          1           0       10.265844    2.394265    0.115237
     76          1           0       -8.932383    0.577440   -0.117126
     77          1           0        8.958490    4.241991    0.679683
     78          1           0        7.070140    4.189864    0.038503
     79          1           0        7.808948    3.502601    1.789952
     80          1           0       -8.214631   -3.301669   -0.077031
     81          1           0       -8.407867   -2.770199   -1.891132
     82          1           0       -6.730281   -3.123839   -1.121929
     83          1           0        7.009961    0.403022   -0.293380
     84          1           0       -6.500741    0.542816   -0.276607
     85          1           0        5.363331    3.017545    0.482902
     86          1           0       -5.078182   -2.298456   -1.026550
     87          1           0        4.883304    0.320830   -0.276861
     88          1           0       -4.218126    0.602605   -0.168470
     89          1           0        3.674363    3.242063    1.253727
     90          1           0        1.903746    3.123648    1.356677
     91          1           0        3.020667    3.751256   -0.471018
     92          1           0       -2.244279   -2.645506   -0.168621
     93          1           0       -3.315857   -2.391639   -1.867305
     94          1           0       -1.215680   -2.279647   -1.494019
     95          1           0        2.450489   -0.210985   -0.407910
     96          1           0       -1.936816    1.178662   -0.100354
     97          1           0        0.459477    1.966171   -0.029813
     98          1           0       -0.147997   -0.925881   -0.859154
 ---------------------------------------------------------------------

 SCF Done:  E(RCAM-B3LYP) =  -1706.83654470     A.U. after   15 cycles

 Excitation energies and oscillator strengths:

 Excited State   1:      Singlet-A      2.0530 eV  603.92 nm  f=3.7872  <S**2>=0.000
     155 ->158         0.16006
     156 ->157         0.68845
 This state for optimization and/or second-order correction.
 Total Energy, E(TD-HF/TD-DFT) =  -1706.76109895
 Copying the excited state density for this state as the 1-particle RhoCI density.

 The electronic state is 1-A.
 Alpha  occ. eigenvalues --  -19.21242 -19.20086 -10.30446 -10.29628 -10.28723
 Alpha  occ. eigenvalues --  -10.28408 -10.28314 -10.28305 -10.28161 -10.27935
 Alpha  occ. eigenvalues --  -10.27865 -10.27741 -10.27514 -10.27341 -10.27110
 Alpha  occ. eigenvalues --  -10.27086 -10.27010 -10.26939 -10.26835 -10.26824
 Alpha  occ. eigenvalues --  -10.26808 -10.26806 -10.26720 -10.26683 -10.26359
 Alpha  occ. eigenvalues --  -10.26120 -10.26108 -10.26107 -10.26014 -10.25805
 Alpha  occ. eigenvalues --  -10.25696 -10.25630 -10.25429 -10.25354 -10.25324
 Alpha  occ. eigenvalues --  -10.25259 -10.25160 -10.25139 -10.25134 -10.25089
 Alpha  occ. eigenvalues --  -10.23892 -10.23693  -1.12596  -1.09442  -0.94303
 Alpha  occ. eigenvalues --   -0.94142  -0.92577  -0.92275  -0.91353  -0.90341
 Alpha  occ. eigenvalues --   -0.88647  -0.88044  -0.87683  -0.86380  -0.85172
 Alpha  occ. eigenvalues --   -0.84095  -0.82815  -0.80622  -0.80031  -0.78367
 Alpha  occ. eigenvalues --   -0.77662  -0.76853  -0.75390  -0.75375  -0.75354
 Alpha  occ. eigenvalues --   -0.74965  -0.74749  -0.73694  -0.72722  -0.70594
 Alpha  occ. eigenvalues --   -0.69331  -0.67644  -0.65894  -0.65209  -0.64124
 Alpha  occ. eigenvalues --   -0.63716  -0.62958  -0.62242  -0.61241  -0.60154
 Alpha  occ. eigenvalues --   -0.59691  -0.59375  -0.59075  -0.57792  -0.56666
 Alpha  occ. eigenvalues --   -0.56269  -0.55907  -0.55328  -0.54700  -0.53767
 Alpha  occ. eigenvalues --   -0.53557  -0.53053  -0.52558  -0.52263  -0.51904
 Alpha  occ. eigenvalues --   -0.51331  -0.50607  -0.50466  -0.49928  -0.49568
 Alpha  occ. eigenvalues --   -0.48876  -0.48490  -0.48171  -0.47961  -0.47847
 Alpha  occ. eigenvalues --   -0.47566  -0.47331  -0.47192  -0.46832  -0.46145
 Alpha  occ. eigenvalues --   -0.45937  -0.45562  -0.45215  -0.44788  -0.44751
 Alpha  occ. eigenvalues --   -0.44479  -0.43890  -0.43637  -0.43556  -0.43445
 Alpha  occ. eigenvalues --   -0.43259  -0.42970  -0.42662  -0.42376  -0.42062
 Alpha  occ. eigenvalues --   -0.41698  -0.41523  -0.41215  -0.40715  -0.40521
 Alpha  occ. eigenvalues --   -0.40043  -0.39996  -0.39836  -0.39514  -0.39118
 Alpha  occ. eigenvalues --   -0.39016  -0.38726  -0.38281  -0.37968  -0.37714
 Alpha  occ. eigenvalues --   -0.37037  -0.36966  -0.36796  -0.36169  -0.36126
 Alpha  occ. eigenvalues --   -0.34979  -0.34769  -0.34482  -0.32725  -0.32191
 Alpha  occ. eigenvalues --   -0.31832  -0.29889  -0.28505  -0.26262  -0.22871
 Alpha  occ. eigenvalues --   -0.18936
 Alpha virt. eigenvalues --   -0.06157  -0.01671   0.02049   0.05689   0.07370
 Alpha virt. eigenvalues --    0.08960   0.10479   0.10690   0.10986   0.11410
 Alpha virt. eigenvalues --    0.11507   0.12287   0.12344   0.13178   0.13413

 Mulliken charges:
               1
     1  O   -0.539822
     2  O   -0.560389
     3  C   -0.017343
     4  C   -0.010496
     5  C   -0.209886
     6  C   -0.174241
     7  C    0.220333
     8  C    0.135827
     9  C    0.059729
    10  C    0.044643
    11  C   -0.199659
    12  C   -0.231715
    13  C    0.045706
    14  C    0.118618
    15  C   -0.284901
    16  C   -0.283946
    17  C   -0.292115
    18  C   -0.286384
    19  C   -0.113858
    20  C   -0.127023
    21  C   -0.359879
    22  C   -0.375199
    23  C   -0.128349
    24  C   -0.101305
    25  C    0.104788
    26  C    0.135611
    27  C   -0.365796
    28  C   -0.379319
    29  C   -0.127380
    30  C   -0.129470
    31  C   -0.091788
    32  C   -0.099893
    33  C   -0.063881
    34  C   -0.094426
    35  C    0.091943
    36  C    0.042008
    37  C   -0.387442
    38  C   -0.357828
    39  C   -0.123952
    40  C   -0.092719
    41  C   -0.074329
    42  C   -0.055431
    43  H    0.077649
    44  H    0.078556
    45  H    0.076851
    46  H    0.106519
    47  H    0.041844
    48  H    0.091426
    49  H    0.095824
    50  H    0.117684
    51  H    0.134489
    52  H    0.084765
    53  H    0.103462
    54  H    0.109727
    55  H    0.108532
    56  H    0.120052
    57  H    0.061324
    58  H    0.059308
    59  H    0.085372
    60  H    0.125315
    61  H    0.080913
    62  H    0.102115
    63  H    0.086372
    64  H    0.069010
    65  H    0.085818
    66  H    0.077196
    67  H    0.121421
    68  H    0.093280
    69  H    0.112693
    70  H    0.088042
    71  H    0.139026
    72  H    0.088811
    73  H    0.300463
    74  H    0.293354
    75  H    0.103847
    76  H    0.092781
    77  H    0.081193
    78  H    0.135008
    79  H    0.119468
    80  H    0.067733
    81  H    0.114444
    82  H    0.107828
    83  H    0.087804
    84  H    0.084338
    85  H    0.080319
    86  H    0.107165
    87  H    0.065460
    88  H    0.091428
    89  H    0.117974
    90  H    0.116766
    91  H    0.119935
    92  H    0.145168
    93  H    0.107164
    94  H    0.115966
    95  H    0.062246
    96  H    0.066208
    97  H    0.072926
    98  H    0.060575
 Sum of Mulliken charges =  -0.00000

 Dipole moment (field-independent basis, Debye):
    X=              1.6049    Y=             -1.8876    Z=              2.0791  Tot=              3.2345
 Quadrupole moment (field-independent basis, Debye-Ang):
   XX=           -277.6393   YY=           -248.2622   ZZ=           -262.8207
   XY=             16.9486   XZ=              3.4162   YZ=             -0.6023

 Normal termination of Gaussian 16 at Sat Jul 13 15:51:26 2019.
