 Gaussian 16, Revision A.03,
 Gaussian 16:  ES64L-G16RevA.03 25-Dec-2016

 -------------------------------------
 # td=(NStates=1) CAM-B3LYP/6-31G(d,p)
 -------------------------------------

 --
 TD
 --
 Symbolic Z-matrix:
 Charge =  0 Multiplicity = 1

                         Standard orientation:
 ---------------------------------------------------------------------
 Center     Atomic      Atomic             Coordinates (Angstroms)
 Number     Number       Type             X           Y           Z
 ---------------------------------------------------------------------
      1          8           0       14.659619   -2.139830    0.009533
      2          8           0      -14.592691    2.100535    1.108400
      3          6           0       11.135668   -1.392432    0.997206
      4          6           0      -12.370002   -0.964692    0.672946
      5          6           0       12.655340   -1.565888    1.122952
      6          6           0      -13.665478   -0.107335    0.822856
      7          6           0       13.269496   -1.764923   -0.148790
      8          6           0      -13.406498    1.364564    1.056731
      9          6           0       10.923998   -0.227501    0.022320
     10          6           0      -11.287851   -0.324297   -0.145402
     11          6           0       13.292006   -0.575189   -0.968174
     12          6           0      -12.675646    1.902484   -0.240638
     13          6           0       11.871104    0.046105   -0.864814
     14          6           0      -11.393613    0.998119   -0.588701
     15          6           0       10.539688   -1.096966    2.467979
     16          6           0       10.350679   -2.689403    0.670855
     17          6           0      -11.786746   -1.128559    2.114556
     18          6           0      -12.681007   -2.314644    0.126466
     19          6           0        9.620609    0.508780    0.126503
     20          6           0      -10.037263   -1.095502   -0.368564
     21          6           0       11.697075    1.099663   -2.013433
     22          6           0      -10.392767    1.820232   -1.547755
     23          6           0        9.392828    1.766954    0.003220
     24          6           0       -8.768165   -0.552699   -0.449492
     25          6           0        8.020227    2.346574    0.115471
     26          6           0       -7.543459   -1.354273   -0.691219
     27          6           0        7.897620    3.773108    0.584681
     28          6           0       -7.742351   -2.733494   -1.104903
     29          6           0        6.907982    1.611205    0.007167
     30          6           0       -6.445639   -0.604011   -0.575291
     31          6           0        5.586929    2.090988    0.154116
     32          6           0       -5.095979   -1.096318   -0.709976
     33          6           0        4.539036    1.271529   -0.073215
     34          6           0       -3.930034   -0.466893   -0.439192
     35          6           0        3.143582    1.619873    0.056516
     36          6           0       -2.648538   -0.904742   -0.566092
     37          6           0        2.827011    2.910196    0.441679
     38          6           0       -2.461293   -2.422041   -0.818676
     39          6           0        2.124987    0.666541   -0.217692
     40          6           0       -1.580491    0.007408   -0.480857
     41          6           0        0.732546    0.776160   -0.172777
     42          6           0       -0.166437   -0.204889   -0.538631
     43          1           0       13.136550   -0.942285    1.797664
     44          1           0       12.987533   -2.465417    1.643519
     45          1           0      -14.088849   -0.487940    1.657204
     46          1           0      -14.205288   -0.131827   -0.078157
     47          1           0       12.945361   -2.673809   -0.786069
     48          1           0      -12.789737    1.734406    1.957092
     49          1           0       13.854954    0.015287   -0.269405
     50          1           0       13.704211   -0.655186   -2.045906
     51          1           0      -13.434996    2.070699   -0.948581
     52          1           0      -12.173784    2.961133   -0.028854
     53          1           0       11.022331   -1.687313    3.149897
     54          1           0        9.357637   -1.375961    2.313275
     55          1           0       10.720465   -0.050534    2.838466
     56          1           0       10.559456   -2.968746   -0.385927
     57          1           0       10.467509   -3.316929    1.462680
     58          1           0        9.251639   -2.761176    0.674662
     59          1           0      -11.426588   -0.074021    2.657023
     60          1           0      -10.879472   -1.481195    2.272761
     61          1           0      -12.506032   -1.538037    2.880180
     62          1           0      -13.449760   -2.870914    0.575885
     63          1           0      -11.971772   -3.185284    0.318375
     64          1           0      -12.851691   -2.476531   -0.948681
     65          1           0        8.906729   -0.139762    0.334136
     66          1           0      -10.021781   -2.192424   -0.625697
     67          1           0       10.611120    1.358598   -2.223127
     68          1           0       12.317960    2.192796   -1.807349
     69          1           0       11.963251    0.565087   -2.861490
     70          1           0      -11.055043    2.503375   -2.119248
     71          1           0      -10.156221    0.998477   -2.321757
     72          1           0       -9.667145    2.318861   -1.001753
     73          1           0       14.760331   -2.985012    0.566284
     74          1           0      -15.133623    1.840983    1.874583
     75          1           0       10.328568    2.480343   -0.354828
     76          1           0       -8.713053    0.627926   -0.067416
     77          1           0        8.845700    4.160778    1.111792
     78          1           0        7.606218    4.480617   -0.127482
     79          1           0        7.208618    3.844804    1.370531
     80          1           0       -8.685514   -3.294027   -0.590128
     81          1           0       -7.979579   -2.715916   -2.311775
     82          1           0       -6.801661   -3.472283   -0.887742
     83          1           0        7.082910    0.689807   -0.631814
     84          1           0       -6.584944    0.498732   -0.220743
     85          1           0        5.539498    3.271106    0.398837
     86          1           0       -4.830348   -2.160571   -1.054945
     87          1           0        4.989327    0.317451   -0.403052
     88          1           0       -3.985416    0.802501   -0.330455
     89          1           0        3.191002    2.930183    1.540406
     90          1           0        1.813660    3.145916    0.452704
     91          1           0        3.142263    3.712944   -0.181903
     92          1           0       -2.920197   -3.057450   -0.032645
     93          1           0       -2.870376   -2.543612   -1.825499
     94          1           0       -1.245196   -2.701790   -0.871643
     95          1           0        2.413250   -0.211085   -0.713459
     96          1           0       -2.006689    1.055912   -0.274728
     97          1           0        0.226048    1.710575    0.269769
     98          1           0        0.250319   -1.320663   -0.768572
 ---------------------------------------------------------------------

 SCF Done:  E(RCAM-B3LYP) =  -1706.93539368     A.U. after   15 cycles

 Excitation energies and oscillator strengths:

 Excited State   1:      Singlet-A      2.4037 eV  515.79 nm  f=3.6372  <S**2>=0.000
     155 ->158         0.14375
     156 ->157         0.69051
 This state for optimization and/or second-order correction.
 Total Energy, E(TD-HF/TD-DFT) =  -1706.84705751
 Copying the excited state density for this state as the 1-particle RhoCI density.

 The electronic state is 1-A.
 Alpha  occ. eigenvalues --  -19.20598 -19.20089 -10.30181 -10.29548 -10.29220
 Alpha  occ. eigenvalues --  -10.28036 -10.27805 -10.27787 -10.27519 -10.27494
 Alpha  occ. eigenvalues --  -10.27317 -10.27261 -10.27111 -10.27057 -10.27037
 Alpha  occ. eigenvalues --  -10.26993 -10.26948 -10.26801 -10.26711 -10.26671
 Alpha  occ. eigenvalues --  -10.26576 -10.26506 -10.26427 -10.26267 -10.26170
 Alpha  occ. eigenvalues --  -10.26032 -10.25861 -10.25669 -10.25630 -10.25564
 Alpha  occ. eigenvalues --  -10.25467 -10.25464 -10.25286 -10.25155 -10.24796
 Alpha  occ. eigenvalues --  -10.24621 -10.24514 -10.24386 -10.24374 -10.24320
 Alpha  occ. eigenvalues --  -10.24317 -10.23808  -1.09527  -1.07548  -0.94049
 Alpha  occ. eigenvalues --   -0.92854  -0.92632  -0.91840  -0.90948  -0.90296
 Alpha  occ. eigenvalues --   -0.87542  -0.86633  -0.86316  -0.85199  -0.84061
 Alpha  occ. eigenvalues --   -0.83422  -0.81945  -0.81061  -0.79157  -0.78122
 Alpha  occ. eigenvalues --   -0.77598  -0.76565  -0.76225  -0.75862  -0.75690
 Alpha  occ. eigenvalues --   -0.75382  -0.75220  -0.74698  -0.73734  -0.70520
 Alpha  occ. eigenvalues --   -0.68283  -0.66688  -0.65405  -0.64814  -0.64798
 Alpha  occ. eigenvalues --   -0.64458  -0.62439  -0.60463  -0.60208  -0.59241
 Alpha  occ. eigenvalues --   -0.58705  -0.58083  -0.57782  -0.56937  -0.55683
 Alpha  occ. eigenvalues --   -0.55578  -0.55302  -0.54990  -0.54067  -0.53398
 Alpha  occ. eigenvalues --   -0.52798  -0.52405  -0.52156  -0.51204  -0.50643
 Alpha  occ. eigenvalues --   -0.50569  -0.50267  -0.50060  -0.49981  -0.49760
 Alpha  occ. eigenvalues --   -0.49539  -0.49356  -0.48959  -0.48513  -0.48009
 Alpha  occ. eigenvalues --   -0.47946  -0.47503  -0.47110  -0.46966  -0.46568
 Alpha  occ. eigenvalues --   -0.45744  -0.45218  -0.45015  -0.44589  -0.44401
 Alpha  occ. eigenvalues --   -0.44215  -0.43747  -0.43567  -0.43188  -0.42607
 Alpha  occ. eigenvalues --   -0.42405  -0.42078  -0.41928  -0.41675  -0.41478
 Alpha  occ. eigenvalues --   -0.41203  -0.41053  -0.40804  -0.40649  -0.40550
 Alpha  occ. eigenvalues --   -0.40139  -0.40031  -0.39933  -0.39070  -0.38823
 Alpha  occ. eigenvalues --   -0.38597  -0.38426  -0.38065  -0.38034  -0.37839
 Alpha  occ. eigenvalues --   -0.37207  -0.37030  -0.36248  -0.35904  -0.35265
 Alpha  occ. eigenvalues --   -0.35151  -0.34436  -0.33762  -0.32239  -0.31900
 Alpha  occ. eigenvalues --   -0.31678  -0.30134  -0.28414  -0.26344  -0.23936
 Alpha  occ. eigenvalues --   -0.19770
 Alpha virt. eigenvalues --   -0.05209  -0.00166   0.02966   0.05824   0.08209
 Alpha virt. eigenvalues --    0.10076   0.10903   0.11339   0.12011   0.12276
 Alpha virt. eigenvalues --    0.12696   0.12733   0.12830   0.13235   0.13488

 Mulliken charges:
               1
     1  O   -0.598268
     2  O   -0.561007
     3  C   -0.021780
     4  C   -0.001083
     5  C   -0.188184
     6  C   -0.161446
     7  C    0.168034
     8  C    0.163761
     9  C    0.067551
    10  C    0.083670
    11  C   -0.177218
    12  C   -0.219689
    13  C   -0.001559
    14  C   -0.020707
    15  C   -0.313280
    16  C   -0.311271
    17  C   -0.306693
    18  C   -0.324415
    19  C   -0.056672
    20  C   -0.141049
    21  C   -0.345917
    22  C   -0.350955
    23  C   -0.110717
    24  C   -0.097667
    25  C    0.068292
    26  C    0.167798
    27  C   -0.389789
    28  C   -0.374155
    29  C   -0.125862
    30  C   -0.127719
    31  C   -0.070121
    32  C   -0.119662
    33  C   -0.121042
    34  C   -0.089935
    35  C    0.110769
    36  C    0.121710
    37  C   -0.376594
    38  C   -0.368086
    39  C   -0.123864
    40  C   -0.137697
    41  C   -0.077651
    42  C   -0.089177
    43  H    0.118797
    44  H    0.068509
    45  H    0.087606
    46  H    0.111005
    47  H    0.077513
    48  H    0.073410
    49  H    0.129786
    50  H    0.108100
    51  H    0.125398
    52  H    0.083876
    53  H    0.111843
    54  H    0.082846
    55  H    0.103188
    56  H    0.101427
    57  H    0.116191
    58  H    0.101090
    59  H    0.065046
    60  H    0.125254
    61  H    0.091793
    62  H    0.103386
    63  H    0.090397
    64  H    0.109358
    65  H    0.076770
    66  H    0.076189
    67  H    0.110649
    68  H    0.084022
    69  H    0.115171
    70  H    0.108373
    71  H    0.125703
    72  H    0.129919
    73  H    0.297683
    74  H    0.301166
    75  H    0.086104
    76  H    0.073669
    77  H    0.097885
    78  H    0.130142
    79  H    0.132284
    80  H    0.112077
    81  H    0.117708
    82  H    0.102983
    83  H    0.085487
    84  H    0.089034
    85  H    0.084847
    86  H    0.075523
    87  H    0.085023
    88  H    0.043753
    89  H    0.115529
    90  H    0.112696
    91  H    0.127421
    92  H    0.130315
    93  H    0.134269
    94  H    0.080389
    95  H    0.077455
    96  H    0.078922
    97  H    0.083458
    98  H    0.080906
 Sum of Mulliken charges =  -0.00000

 Dipole moment (field-independent basis, Debye):
    X=             -0.1881    Y=             -1.9313    Z=              1.4685  Tot=              2.4334
 Quadrupole moment (field-independent basis, Debye-Ang):
   XX=           -273.1705   YY=           -242.7552   ZZ=           -257.9332
   XY=             11.8266   XZ=             -2.0565   YZ=              1.0558

 Normal termination of Gaussian 16 at Thu Jul 18 12:55:53 2019.
