 Gaussian 16, Revision A.03,
 Gaussian 16:  ES64L-G16RevA.03 25-Dec-2016

 -------------------------------------
 # td=(NStates=1) CAM-B3LYP/6-31G(d,p)
 -------------------------------------

 --
 TD
 --
 Symbolic Z-matrix:
 Charge =  0 Multiplicity = 1

                         Standard orientation:
 ---------------------------------------------------------------------
 Center     Atomic      Atomic             Coordinates (Angstroms)
 Number     Number       Type             X           Y           Z
 ---------------------------------------------------------------------
      1          8           0       14.830067   -2.079447   -0.039514
      2          8           0      -14.710266    1.988868    0.981872
      3          6           0       11.115484   -1.514176    0.971625
      4          6           0      -12.256972   -1.020898    0.725575
      5          6           0       12.697187   -1.752087    1.190467
      6          6           0      -13.562493   -0.218636    0.651645
      7          6           0       13.367343   -1.769320   -0.173125
      8          6           0      -13.439298    1.255910    0.983240
      9          6           0       10.900452   -0.250848    0.073417
     10          6           0      -11.279891   -0.205543   -0.114786
     11          6           0       13.216550   -0.460413   -0.837492
     12          6           0      -12.676120    1.827425   -0.139215
     13          6           0       11.858073    0.163287   -0.832349
     14          6           0      -11.433914    1.071442   -0.550518
     15          6           0       10.479937   -1.229447    2.384054
     16          6           0       10.413134   -2.730305    0.375857
     17          6           0      -11.802330   -1.358442    2.158269
     18          6           0      -12.453583   -2.349257   -0.036343
     19          6           0        9.564244    0.342038    0.071434
     20          6           0      -10.028738   -0.950546   -0.459364
     21          6           0       11.645271    1.258462   -1.890026
     22          6           0      -10.505896    1.896005   -1.404941
     23          6           0        9.325818    1.717576    0.064055
     24          6           0       -8.768824   -0.496275   -0.360204
     25          6           0        8.001972    2.286690    0.050109
     26          6           0       -7.601936   -1.344953   -0.609218
     27          6           0        8.020880    3.747880    0.413542
     28          6           0       -7.698265   -2.695416   -1.096700
     29          6           0        6.823341    1.488917   -0.061459
     30          6           0       -6.399142   -0.685428   -0.372378
     31          6           0        5.506140    2.083129    0.089386
     32          6           0       -5.053059   -1.158569   -0.690353
     33          6           0        4.442060    1.261346   -0.061213
     34          6           0       -3.978048   -0.349605   -0.397959
     35          6           0        3.080052    1.657792    0.188342
     36          6           0       -2.596637   -0.796505   -0.668303
     37          6           0        2.851071    3.042892    0.740137
     38          6           0       -2.363109   -2.270798   -1.194986
     39          6           0        2.030596    0.801843   -0.129312
     40          6           0       -1.546723    0.064648   -0.265888
     41          6           0        0.687474    0.944584   -0.079251
     42          6           0       -0.165208   -0.091216   -0.471745
     43          1           0       12.996529   -0.858100    1.785507
     44          1           0       12.955064   -2.660441    1.884222
     45          1           0      -14.228236   -0.473407    1.460203
     46          1           0      -14.253490   -0.374490   -0.195454
     47          1           0       13.110620   -2.651248   -0.679289
     48          1           0      -12.850157    1.393237    1.963794
     49          1           0       14.041059    0.251203   -0.423069
     50          1           0       13.444435   -0.800875   -1.997789
     51          1           0      -13.289891    2.088089   -0.944702
     52          1           0      -12.415767    2.988593    0.083819
     53          1           0       10.867687   -1.959283    3.151671
     54          1           0        9.394137   -1.228446    2.325190
     55          1           0       10.773816   -0.347209    2.844660
     56          1           0       10.743205   -3.126804   -0.609951
     57          1           0       10.609724   -3.719214    1.014763
     58          1           0        9.305616   -2.647812    0.251724
     59          1           0      -11.611888   -0.387790    2.799010
     60          1           0      -10.836786   -1.864007    2.312120
     61          1           0      -12.429329   -1.877541    2.848685
     62          1           0      -13.459555   -2.893212    0.254473
     63          1           0      -11.759306   -3.123264    0.249151
     64          1           0      -12.628626   -2.323580   -1.070652
     65          1           0        8.772881   -0.248171    0.513298
     66          1           0      -10.380626   -2.085902   -0.646943
     67          1           0       10.518388    1.531190   -1.700915
     68          1           0       12.399819    2.080162   -2.082512
     69          1           0       11.875833    0.653397   -2.813190
     70          1           0      -11.072019    2.579353   -2.105267
     71          1           0       -9.973188    1.395770   -2.242091
     72          1           0       -9.816362    2.240848   -0.926121
     73          1           0       15.190991   -2.899457    0.159003
     74          1           0      -15.282482    1.476330    1.610654
     75          1           0       10.147144    2.455137   -0.016162
     76          1           0       -8.726475    0.449779    0.159123
     77          1           0        8.946274    4.370114    0.340924
     78          1           0        7.365631    4.228105   -0.420321
     79          1           0        7.574664    4.151697    1.378043
     80          1           0       -8.590447   -3.176166   -0.560025
     81          1           0       -7.721227   -2.654217   -2.266938
     82          1           0       -6.701074   -3.347370   -0.817552
     83          1           0        6.832904    0.448270   -0.144548
     84          1           0       -6.513857    0.383575   -0.127370
     85          1           0        5.418567    3.171216    0.247945
     86          1           0       -4.941836   -2.175216   -1.180733
     87          1           0        4.620644    0.211443    0.016384
     88          1           0       -4.152673    0.510977    0.093468
     89          1           0        3.305609    3.227763    1.589034
     90          1           0        1.824827    3.349999    0.790047
     91          1           0        3.261827    3.796822   -0.128871
     92          1           0       -2.843066   -3.012367   -0.466928
     93          1           0       -3.139051   -2.399164   -2.187533
     94          1           0       -1.310687   -2.341398   -1.523307
     95          1           0        2.422320   -0.289019   -0.548664
     96          1           0       -1.955699    1.063414    0.227749
     97          1           0        0.294101    1.820581    0.431795
     98          1           0        0.409718   -0.926365   -0.902592
 ---------------------------------------------------------------------

 SCF Done:  E(RCAM-B3LYP) =  -1707.01235453     A.U. after   15 cycles

 Excitation energies and oscillator strengths:

 Excited State   1:      Singlet-A      2.2165 eV  559.36 nm  f=3.5846  <S**2>=0.000
     155 ->158         0.17395
     156 ->157         0.68208
 This state for optimization and/or second-order correction.
 Total Energy, E(TD-HF/TD-DFT) =  -1706.93089788
 Copying the excited state density for this state as the 1-particle RhoCI density.

 The electronic state is 1-A.
 Alpha  occ. eigenvalues --  -19.21783 -19.18178 -10.30431 -10.30253 -10.28922
 Alpha  occ. eigenvalues --  -10.28506 -10.28335 -10.28161 -10.27747 -10.27606
 Alpha  occ. eigenvalues --  -10.27404 -10.27275 -10.27234 -10.26923 -10.26880
 Alpha  occ. eigenvalues --  -10.26827 -10.26719 -10.26674 -10.26609 -10.26605
 Alpha  occ. eigenvalues --  -10.26393 -10.26330 -10.26237 -10.26181 -10.26126
 Alpha  occ. eigenvalues --  -10.25972 -10.25959 -10.25915 -10.25914 -10.25897
 Alpha  occ. eigenvalues --  -10.25844 -10.25670 -10.25658 -10.25599 -10.25571
 Alpha  occ. eigenvalues --  -10.25473 -10.25347 -10.25262 -10.25041 -10.24465
 Alpha  occ. eigenvalues --  -10.24199 -10.23563  -1.08090  -1.06114  -0.93895
 Alpha  occ. eigenvalues --   -0.92980  -0.91892  -0.90996  -0.90254  -0.89200
 Alpha  occ. eigenvalues --   -0.87421  -0.87134  -0.86163  -0.85301  -0.84722
 Alpha  occ. eigenvalues --   -0.83288  -0.81827  -0.80274  -0.79655  -0.77829
 Alpha  occ. eigenvalues --   -0.77133  -0.76690  -0.75957  -0.75906  -0.75887
 Alpha  occ. eigenvalues --   -0.75203  -0.75103  -0.74489  -0.72899  -0.70256
 Alpha  occ. eigenvalues --   -0.68851  -0.67198  -0.65780  -0.65214  -0.64701
 Alpha  occ. eigenvalues --   -0.63423  -0.62307  -0.61843  -0.61037  -0.60273
 Alpha  occ. eigenvalues --   -0.59170  -0.58251  -0.57808  -0.56983  -0.55303
 Alpha  occ. eigenvalues --   -0.55092  -0.54946  -0.54373  -0.54191  -0.53491
 Alpha  occ. eigenvalues --   -0.52696  -0.52549  -0.51755  -0.51501  -0.51233
 Alpha  occ. eigenvalues --   -0.50784  -0.50463  -0.49821  -0.49246  -0.49124
 Alpha  occ. eigenvalues --   -0.48821  -0.48549  -0.48307  -0.48049  -0.47614
 Alpha  occ. eigenvalues --   -0.47205  -0.46972  -0.46796  -0.46723  -0.46437
 Alpha  occ. eigenvalues --   -0.45707  -0.45423  -0.45341  -0.44806  -0.44470
 Alpha  occ. eigenvalues --   -0.44421  -0.44292  -0.43755  -0.43557  -0.43105
 Alpha  occ. eigenvalues --   -0.42800  -0.42369  -0.42207  -0.41985  -0.41730
 Alpha  occ. eigenvalues --   -0.41556  -0.41490  -0.40911  -0.40686  -0.40256
 Alpha  occ. eigenvalues --   -0.40061  -0.39798  -0.39674  -0.39539  -0.39228
 Alpha  occ. eigenvalues --   -0.39088  -0.39059  -0.38760  -0.38735  -0.38172
 Alpha  occ. eigenvalues --   -0.37726  -0.37449  -0.36612  -0.36042  -0.35631
 Alpha  occ. eigenvalues --   -0.34486  -0.34355  -0.33810  -0.32807  -0.32235
 Alpha  occ. eigenvalues --   -0.31020  -0.29635  -0.28441  -0.25542  -0.22915
 Alpha  occ. eigenvalues --   -0.19259
 Alpha virt. eigenvalues --   -0.05424  -0.01223   0.02133   0.06079   0.07846
 Alpha virt. eigenvalues --    0.09898   0.11393   0.11831   0.11854   0.12190
 Alpha virt. eigenvalues --    0.12394   0.12559   0.12962   0.13428   0.13668

 Mulliken charges:
               1
     1  O   -0.617619
     2  O   -0.564915
     3  C   -0.019646
     4  C    0.025820
     5  C   -0.191453
     6  C   -0.201191
     7  C    0.198465
     8  C    0.153617
     9  C    0.071918
    10  C    0.029241
    11  C   -0.211777
    12  C   -0.218247
    13  C    0.055654
    14  C    0.062108
    15  C   -0.309000
    16  C   -0.298308
    17  C   -0.324091
    18  C   -0.333757
    19  C   -0.136764
    20  C   -0.126681
    21  C   -0.351480
    22  C   -0.350447
    23  C   -0.129192
    24  C   -0.106107
    25  C    0.087669
    26  C    0.122575
    27  C   -0.385434
    28  C   -0.364464
    29  C   -0.111670
    30  C   -0.136802
    31  C   -0.072221
    32  C   -0.093135
    33  C   -0.120267
    34  C   -0.086730
    35  C    0.085783
    36  C    0.084988
    37  C   -0.361180
    38  C   -0.352118
    39  C   -0.123558
    40  C   -0.135226
    41  C   -0.061851
    42  C   -0.084148
    43  H    0.102018
    44  H    0.076130
    45  H    0.068642
    46  H    0.110968
    47  H    0.098606
    48  H    0.083077
    49  H    0.129130
    50  H    0.081149
    51  H    0.129085
    52  H    0.075974
    53  H    0.091974
    54  H    0.099858
    55  H    0.116563
    56  H    0.103692
    57  H    0.081219
    58  H    0.100632
    59  H    0.085973
    60  H    0.115391
    61  H    0.117526
    62  H    0.077452
    63  H    0.115263
    64  H    0.127341
    65  H    0.090759
    66  H    0.073493
    67  H    0.118189
    68  H    0.114259
    69  H    0.104343
    70  H    0.101226
    71  H    0.112627
    72  H    0.130988
    73  H    0.295357
    74  H    0.302687
    75  H    0.106412
    76  H    0.094720
    77  H    0.114317
    78  H    0.107409
    79  H    0.121942
    80  H    0.113962
    81  H    0.125530
    82  H    0.094507
    83  H    0.085216
    84  H    0.076938
    85  H    0.093360
    86  H    0.081119
    87  H    0.088506
    88  H    0.079018
    89  H    0.136001
    90  H    0.108910
    91  H    0.094486
    92  H    0.132108
    93  H    0.085524
    94  H    0.118202
    95  H    0.051922
    96  H    0.081257
    97  H    0.084617
    98  H    0.094067
 Sum of Mulliken charges =  -0.00000

 Dipole moment (field-independent basis, Debye):
    X=             -1.0777    Y=             -2.0791    Z=              1.5061  Tot=              2.7843
 Quadrupole moment (field-independent basis, Debye-Ang):
   XX=           -273.5244   YY=           -243.5851   ZZ=           -260.1002
   XY=             15.8376   XZ=             -5.2956   YZ=              3.0474

 Normal termination of Gaussian 16 at Tue Jul  9 13:23:01 2019.
