 Gaussian 16, Revision A.03,
 Gaussian 16:  ES64L-G16RevA.03 25-Dec-2016

 -------------------------------------
 # td=(NStates=1) CAM-B3LYP/6-31G(d,p)
 -------------------------------------

 --
 TD
 --
 Symbolic Z-matrix:
 Charge =  0 Multiplicity = 1

                         Standard orientation:
 ---------------------------------------------------------------------
 Center     Atomic      Atomic             Coordinates (Angstroms)
 Number     Number       Type             X           Y           Z
 ---------------------------------------------------------------------
      1          8           0       14.769741   -2.105331   -0.325667
      2          8           0      -14.792569    1.851604    0.906270
      3          6           0       11.239462   -1.369324    1.075144
      4          6           0      -12.388954   -0.977457    0.617177
      5          6           0       12.725276   -1.689315    1.030845
      6          6           0      -13.573798   -0.249752    0.650140
      7          6           0       13.311442   -1.897125   -0.295659
      8          6           0      -13.541176    1.283652    0.893511
      9          6           0       10.928802   -0.281610   -0.112221
     10          6           0      -11.329637   -0.252326   -0.265176
     11          6           0       13.237404   -0.513933   -1.130491
     12          6           0      -12.631192    1.900747   -0.218887
     13          6           0       11.866424    0.205575   -0.964391
     14          6           0      -11.517287    0.978142   -0.642634
     15          6           0       10.857142   -0.727262    2.426793
     16          6           0       10.384424   -2.612873    0.774839
     17          6           0      -11.766776   -1.199838    1.979253
     18          6           0      -12.692811   -2.408031    0.014768
     19          6           0        9.622339    0.285589    0.092938
     20          6           0      -10.048821   -0.934914   -0.464167
     21          6           0       11.600619    1.266254   -2.002230
     22          6           0      -10.580614    1.925098   -1.523619
     23          6           0        9.284662    1.611169   -0.056430
     24          6           0       -8.792131   -0.430155   -0.467970
     25          6           0        7.976037    2.158548    0.130960
     26          6           0       -7.577517   -1.192277   -0.660931
     27          6           0        8.058044    3.601436    0.341173
     28          6           0       -7.617360   -2.678711   -0.960895
     29          6           0        6.778993    1.436735   -0.017561
     30          6           0       -6.384639   -0.605616   -0.414005
     31          6           0        5.543205    1.976427    0.274910
     32          6           0       -5.000166   -1.234867   -0.499489
     33          6           0        4.417997    1.099307    0.192011
     34          6           0       -3.892875   -0.376732   -0.378296
     35          6           0        3.029723    1.487702    0.264933
     36          6           0       -2.621137   -0.765822   -0.475139
     37          6           0        2.726262    2.912188    0.778857
     38          6           0       -2.336375   -2.145586   -0.842993
     39          6           0        2.179966    0.662345   -0.058192
     40          6           0       -1.621304    0.147832   -0.118922
     41          6           0        0.722817    0.803932    0.036923
     42          6           0       -0.253788   -0.122147   -0.267379
     43          1           0       13.339882   -1.010507    1.608199
     44          1           0       12.850003   -2.815969    1.505310
     45          1           0      -14.205940   -0.515308    1.412226
     46          1           0      -14.231971   -0.129083   -0.350857
     47          1           0       12.527148   -2.649970   -0.754529
     48          1           0      -12.919282    1.502296    1.914849
     49          1           0       14.231176    0.228203   -0.851008
     50          1           0       13.294860   -0.587499   -2.238323
     51          1           0      -13.356872    1.981046   -1.100048
     52          1           0      -12.284319    2.884169    0.018160
     53          1           0       11.052445   -1.344580    3.240567
     54          1           0        9.902792   -0.415337    2.591489
     55          1           0       11.526395    0.051774    2.631317
     56          1           0       10.463945   -3.200200   -0.343477
     57          1           0       10.335304   -3.231202    1.494173
     58          1           0        9.328491   -2.308127    0.549607
     59          1           0      -11.797434   -0.242152    2.781332
     60          1           0      -10.828835   -1.586005    2.025943
     61          1           0      -12.378803   -2.114970    2.392972
     62          1           0      -13.536347   -2.940629    0.683082
     63          1           0      -11.813849   -2.903167    0.016663
     64          1           0      -12.844443   -2.416621   -0.966667
     65          1           0        8.913415   -0.447115    0.570010
     66          1           0      -10.140100   -2.029929   -0.839232
     67          1           0       10.659126    1.378450   -2.502112
     68          1           0       12.106847    2.142877   -1.672148
     69          1           0       12.264801    1.056147   -2.814416
     70          1           0      -11.177098    2.421233   -2.382681
     71          1           0       -9.717529    1.260277   -1.927262
     72          1           0      -10.076719    2.521488   -0.868621
     73          1           0       15.026007   -3.018213    0.312757
     74          1           0      -15.165557    1.573425    1.673288
     75          1           0       10.037290    2.469957   -0.254925
     76          1           0       -8.555270    0.684812   -0.159411
     77          1           0        9.053353    4.126608    0.543808
     78          1           0        7.795239    4.173024   -0.647299
     79          1           0        7.295222    3.984346    1.118405
     80          1           0       -8.175362   -3.418269   -0.344071
     81          1           0       -8.040662   -2.914987   -1.913494
     82          1           0       -6.678750   -3.168372   -1.342078
     83          1           0        7.146421    0.348475   -0.178931
     84          1           0       -6.248289    0.444000    0.029746
     85          1           0        5.413504    3.026126    0.412231
     86          1           0       -4.936635   -2.261113   -0.852269
     87          1           0        4.428715    0.188290   -0.260281
     88          1           0       -4.040203    0.709058   -0.372964
     89          1           0        2.968011    2.950574    1.938705
     90          1           0        1.740221    3.203316    0.647080
     91          1           0        3.378896    3.731471    0.407175
     92          1           0       -2.209339   -2.879604    0.175002
     93          1           0       -3.035726   -2.326149   -1.757434
     94          1           0       -1.415448   -2.257513   -1.338828
     95          1           0        2.420972   -0.368289   -0.359619
     96          1           0       -1.778738    1.334804   -0.000445
     97          1           0        0.353758    1.872853    0.422425
     98          1           0       -0.018187   -1.180436   -0.792895
 ---------------------------------------------------------------------

 SCF Done:  E(RCAM-B3LYP) =  -1706.89240119     A.U. after   15 cycles

 Excitation energies and oscillator strengths:

 Excited State   1:      Singlet-A      2.3923 eV  518.27 nm  f=3.6854  <S**2>=0.000
     155 ->158        -0.19088
     156 ->157         0.67676
 This state for optimization and/or second-order correction.
 Total Energy, E(TD-HF/TD-DFT) =  -1706.80448704
 Copying the excited state density for this state as the 1-particle RhoCI density.

 The electronic state is 1-A.
 Alpha  occ. eigenvalues --  -19.23311 -19.21486 -10.31858 -10.30684 -10.28830
 Alpha  occ. eigenvalues --  -10.27566 -10.27426 -10.27202 -10.27111 -10.27105
 Alpha  occ. eigenvalues --  -10.27058 -10.26917 -10.26809 -10.26754 -10.26706
 Alpha  occ. eigenvalues --  -10.26682 -10.26669 -10.26631 -10.26538 -10.26379
 Alpha  occ. eigenvalues --  -10.26301 -10.26278 -10.26154 -10.26087 -10.26031
 Alpha  occ. eigenvalues --  -10.25899 -10.25794 -10.25689 -10.25640 -10.25547
 Alpha  occ. eigenvalues --  -10.25547 -10.25531 -10.25399 -10.25387 -10.24965
 Alpha  occ. eigenvalues --  -10.24907 -10.24739 -10.24648 -10.24325 -10.23778
 Alpha  occ. eigenvalues --  -10.23775 -10.23265  -1.12893  -1.05819  -0.94108
 Alpha  occ. eigenvalues --   -0.93179  -0.92985  -0.92449  -0.90746  -0.90094
 Alpha  occ. eigenvalues --   -0.87318  -0.86994  -0.86438  -0.85024  -0.84265
 Alpha  occ. eigenvalues --   -0.83131  -0.81239  -0.80445  -0.79249  -0.77993
 Alpha  occ. eigenvalues --   -0.77923  -0.76868  -0.76565  -0.76345  -0.76131
 Alpha  occ. eigenvalues --   -0.75711  -0.75115  -0.74814  -0.73555  -0.70803
 Alpha  occ. eigenvalues --   -0.68843  -0.67464  -0.65634  -0.65510  -0.64231
 Alpha  occ. eigenvalues --   -0.63157  -0.62684  -0.60558  -0.60217  -0.59706
 Alpha  occ. eigenvalues --   -0.58859  -0.58475  -0.57708  -0.57399  -0.56131
 Alpha  occ. eigenvalues --   -0.55899  -0.55761  -0.54548  -0.53767  -0.53665
 Alpha  occ. eigenvalues --   -0.52979  -0.52491  -0.51808  -0.51478  -0.50460
 Alpha  occ. eigenvalues --   -0.50218  -0.50005  -0.49634  -0.49292  -0.49178
 Alpha  occ. eigenvalues --   -0.48980  -0.48758  -0.48623  -0.48503  -0.47771
 Alpha  occ. eigenvalues --   -0.47352  -0.46959  -0.46493  -0.46453  -0.45940
 Alpha  occ. eigenvalues --   -0.45531  -0.45403  -0.45361  -0.45106  -0.45047
 Alpha  occ. eigenvalues --   -0.44684  -0.44583  -0.43784  -0.43393  -0.43150
 Alpha  occ. eigenvalues --   -0.42871  -0.42698  -0.42326  -0.41846  -0.41622
 Alpha  occ. eigenvalues --   -0.41371  -0.41209  -0.41112  -0.41108  -0.40514
 Alpha  occ. eigenvalues --   -0.40415  -0.40265  -0.40141  -0.39569  -0.39086
 Alpha  occ. eigenvalues --   -0.38893  -0.38627  -0.38236  -0.38011  -0.37934
 Alpha  occ. eigenvalues --   -0.37568  -0.37397  -0.37297  -0.37006  -0.36026
 Alpha  occ. eigenvalues --   -0.35077  -0.33585  -0.33056  -0.32850  -0.32712
 Alpha  occ. eigenvalues --   -0.31186  -0.30121  -0.28319  -0.26499  -0.22797
 Alpha  occ. eigenvalues --   -0.19764
 Alpha virt. eigenvalues --   -0.04994  -0.01386   0.03037   0.05671   0.08681
 Alpha virt. eigenvalues --    0.08800   0.10452   0.11312   0.11529   0.11661
 Alpha virt. eigenvalues --    0.12703   0.12749   0.13063   0.13196   0.13957

 Mulliken charges:
               1
     1  O   -0.558732
     2  O   -0.512767
     3  C   -0.005724
     4  C    0.010835
     5  C   -0.168919
     6  C   -0.166621
     7  C    0.183006
     8  C    0.133619
     9  C    0.065112
    10  C    0.080692
    11  C   -0.211565
    12  C   -0.216843
    13  C    0.022578
    14  C    0.019443
    15  C   -0.315263
    16  C   -0.296903
    17  C   -0.286963
    18  C   -0.297640
    19  C   -0.138622
    20  C   -0.152707
    21  C   -0.366312
    22  C   -0.358739
    23  C   -0.109545
    24  C   -0.094407
    25  C    0.103637
    26  C    0.129509
    27  C   -0.398628
    28  C   -0.393783
    29  C   -0.086119
    30  C   -0.142402
    31  C   -0.101553
    32  C   -0.109488
    33  C   -0.128643
    34  C   -0.100176
    35  C    0.177004
    36  C    0.114044
    37  C   -0.369966
    38  C   -0.363358
    39  C   -0.148123
    40  C   -0.121223
    41  C   -0.116513
    42  C   -0.075999
    43  H    0.104985
    44  H    0.047498
    45  H    0.072711
    46  H    0.088313
    47  H    0.079591
    48  H    0.036141
    49  H    0.088097
    50  H    0.112290
    51  H    0.106123
    52  H    0.112474
    53  H    0.103709
    54  H    0.120000
    55  H    0.116028
    56  H    0.079038
    57  H    0.115782
    58  H    0.097862
    59  H    0.077668
    60  H    0.127799
    61  H    0.074687
    62  H    0.087555
    63  H    0.104059
    64  H    0.113657
    65  H    0.092677
    66  H    0.076735
    67  H    0.134371
    68  H    0.123845
    69  H    0.099285
    70  H    0.106789
    71  H    0.101296
    72  H    0.129836
    73  H    0.291333
    74  H    0.301010
    75  H    0.093047
    76  H    0.083853
    77  H    0.111979
    78  H    0.112566
    79  H    0.107385
    80  H    0.124141
    81  H    0.119100
    82  H    0.100058
    83  H    0.078769
    84  H    0.081319
    85  H    0.098034
    86  H    0.094595
    87  H    0.079034
    88  H    0.086971
    89  H    0.107958
    90  H    0.114770
    91  H    0.112819
    92  H    0.112246
    93  H    0.111611
    94  H    0.116474
    95  H    0.080395
    96  H    0.079716
    97  H    0.069244
    98  H    0.075435
 Sum of Mulliken charges =  -0.00000

 Dipole moment (field-independent basis, Debye):
    X=              1.9274    Y=             -1.1785    Z=              1.3356  Tot=              2.6245
 Quadrupole moment (field-independent basis, Debye-Ang):
   XX=           -284.0718   YY=           -241.3161   ZZ=           -259.4596
   XY=             10.6600   XZ=              0.7330   YZ=              1.5942

 Normal termination of Gaussian 16 at Fri Jul 19 15:15:35 2019.
