 Gaussian 16, Revision A.03,
 Gaussian 16:  ES64L-G16RevA.03 25-Dec-2016

 -------------------------------------
 # td=(NStates=1) CAM-B3LYP/6-31G(d,p)
 -------------------------------------

 --
 TD
 --
 Symbolic Z-matrix:
 Charge =  0 Multiplicity = 1

                         Standard orientation:
 ---------------------------------------------------------------------
 Center     Atomic      Atomic             Coordinates (Angstroms)
 Number     Number       Type             X           Y           Z
 ---------------------------------------------------------------------
      1          8           0       14.595268   -2.347291   -0.249542
      2          8           0      -14.671447    1.793243    1.041543
      3          6           0       11.185226   -1.356190    1.099485
      4          6           0      -12.322294   -1.028135    0.574719
      5          6           0       12.624506   -1.847787    1.095422
      6          6           0      -13.632805   -0.285512    0.705926
      7          6           0       13.223672   -2.020120   -0.345024
      8          6           0      -13.375352    1.166356    1.069312
      9          6           0       10.830143   -0.255747    0.132819
     10          6           0      -11.212072   -0.248364   -0.243910
     11          6           0       13.105586   -0.648050   -0.955446
     12          6           0      -12.701224    1.817880   -0.146140
     13          6           0       11.778360    0.023594   -0.836919
     14          6           0      -11.393820    1.063906   -0.513562
     15          6           0       10.602279   -1.006544    2.428084
     16          6           0       10.261523   -2.674044    0.629467
     17          6           0      -11.712286   -1.460857    1.899481
     18          6           0      -12.683533   -2.404204   -0.115074
     19          6           0        9.519717    0.336702    0.280140
     20          6           0       -9.976877   -1.032547   -0.469365
     21          6           0       11.542652    1.027909   -1.956251
     22          6           0      -10.403528    1.877832   -1.351992
     23          6           0        9.424505    1.706577    0.067407
     24          6           0       -8.709661   -0.554540   -0.321722
     25          6           0        8.132387    2.413638    0.061819
     26          6           0       -7.519613   -1.274937   -0.571634
     27          6           0        7.920738    3.895319    0.269596
     28          6           0       -7.610485   -2.674682   -1.210734
     29          6           0        6.931304    1.627976   -0.018358
     30          6           0       -6.394622   -0.556998   -0.319601
     31          6           0        5.651591    2.059948    0.270752
     32          6           0       -5.079882   -1.036388   -0.490169
     33          6           0        4.487284    1.297898    0.018459
     34          6           0       -3.881074   -0.348653   -0.371557
     35          6           0        3.130702    1.674160    0.111434
     36          6           0       -2.588030   -0.712824   -0.530561
     37          6           0        2.768156    3.074280    0.621270
     38          6           0       -2.299359   -2.058393   -1.012331
     39          6           0        2.096318    0.683969   -0.269700
     40          6           0       -1.575885    0.268199   -0.303696
     41          6           0        0.681088    1.020125   -0.148916
     42          6           0       -0.179241    0.079300   -0.358072
     43          1           0       13.254764   -1.265017    1.646210
     44          1           0       12.793113   -2.632957    1.826723
     45          1           0      -14.224264   -0.666635    1.418361
     46          1           0      -14.332532   -0.022380   -0.187138
     47          1           0       12.717335   -2.672274   -0.887729
     48          1           0      -13.035934    1.363640    1.887806
     49          1           0       13.835591    0.082988   -0.542577
     50          1           0       13.746628   -0.444848   -1.914454
     51          1           0      -13.414468    1.918788   -0.997149
     52          1           0      -12.465625    3.065208   -0.143375
     53          1           0       10.664958   -1.547777    3.468060
     54          1           0        9.655750   -0.971960    2.409315
     55          1           0       11.336028   -0.147734    2.680590
     56          1           0       10.588543   -3.004034   -0.391099
     57          1           0       10.597738   -3.489259    1.339991
     58          1           0        9.233610   -2.370143    0.692605
     59          1           0      -11.560208   -0.591328    2.497292
     60          1           0      -10.786495   -1.836415    1.904048
     61          1           0      -12.310582   -2.085910    2.442476
     62          1           0      -13.648015   -2.906380    0.366550
     63          1           0      -11.920155   -3.244755    0.149185
     64          1           0      -12.789054   -2.514803   -1.211091
     65          1           0        8.699970   -0.203840    0.567466
     66          1           0      -10.162240   -2.192613   -0.579204
     67          1           0       10.461753    1.126386   -2.233353
     68          1           0       11.954773    2.077610   -1.700038
     69          1           0       12.110183    0.594398   -2.871012
     70          1           0      -11.046248    2.481764   -2.261387
     71          1           0       -9.930289    1.168060   -2.115965
     72          1           0       -9.766491    2.584078   -0.814827
     73          1           0       14.542166   -3.206189    0.033122
     74          1           0      -14.847258    1.969768    2.167288
     75          1           0       10.344362    2.233945   -0.004359
     76          1           0       -8.545855    0.587444   -0.020597
     77          1           0        8.874548    4.455873   -0.100819
     78          1           0        7.137483    4.268194   -0.450856
     79          1           0        7.815967    3.912270    1.254126
     80          1           0       -8.449088   -3.192769   -0.611070
     81          1           0       -8.021069   -2.785777   -2.250919
     82          1           0       -6.570137   -3.147707   -1.054193
     83          1           0        6.909146    0.480996   -0.213395
     84          1           0       -6.242461    0.485086    0.047686
     85          1           0        5.399003    3.307838    0.296609
     86          1           0       -4.977691   -1.954119   -0.776901
     87          1           0        4.574816    0.325635   -0.343730
     88          1           0       -4.025953    0.638804    0.146820
     89          1           0        3.370839    3.257731    1.455804
     90          1           0        1.770993    2.913294    0.851161
     91          1           0        3.074400    3.960160   -0.028449
     92          1           0       -3.219139   -2.765702   -0.505325
     93          1           0       -2.209725   -2.183315   -2.290177
     94          1           0       -1.163103   -2.568572   -0.539792
     95          1           0        2.395611   -0.294493   -0.512273
     96          1           0       -1.888091    1.257516    0.247343
     97          1           0        0.103493    1.944372    0.103107
     98          1           0        0.321494   -0.900048   -0.531650
 ---------------------------------------------------------------------

 SCF Done:  E(RCAM-B3LYP) =  -1706.82191228     A.U. after   16 cycles

 Excitation energies and oscillator strengths:

 Excited State   1:      Singlet-A      1.9895 eV  623.18 nm  f=3.6473  <S**2>=0.000
     155 ->158        -0.16079
     156 ->157         0.68868
 This state for optimization and/or second-order correction.
 Total Energy, E(TD-HF/TD-DFT) =  -1706.74879771
 Copying the excited state density for this state as the 1-particle RhoCI density.

 The electronic state is 1-A.
 Alpha  occ. eigenvalues --  -19.21738 -19.21317 -10.30399 -10.30251 -10.28176
 Alpha  occ. eigenvalues --  -10.28127 -10.28074 -10.27726 -10.27711 -10.27651
 Alpha  occ. eigenvalues --  -10.27590 -10.27555 -10.27350 -10.27217 -10.27210
 Alpha  occ. eigenvalues --  -10.27131 -10.26554 -10.26543 -10.26523 -10.26520
 Alpha  occ. eigenvalues --  -10.26494 -10.26409 -10.26393 -10.26230 -10.26135
 Alpha  occ. eigenvalues --  -10.26075 -10.25999 -10.25983 -10.25917 -10.25852
 Alpha  occ. eigenvalues --  -10.25836 -10.25814 -10.25749 -10.25734 -10.25239
 Alpha  occ. eigenvalues --  -10.25088 -10.24748 -10.24402 -10.24198 -10.23982
 Alpha  occ. eigenvalues --  -10.23952 -10.22316  -1.11958  -1.06933  -0.93892
 Alpha  occ. eigenvalues --   -0.92885  -0.92499  -0.91424  -0.90715  -0.89795
 Alpha  occ. eigenvalues --   -0.88064  -0.86885  -0.86093  -0.85717  -0.84579
 Alpha  occ. eigenvalues --   -0.82740  -0.82079  -0.80535  -0.79036  -0.77816
 Alpha  occ. eigenvalues --   -0.76573  -0.76359  -0.76227  -0.75800  -0.75536
 Alpha  occ. eigenvalues --   -0.74896  -0.74511  -0.74020  -0.72743  -0.70780
 Alpha  occ. eigenvalues --   -0.69725  -0.68005  -0.67534  -0.65677  -0.64105
 Alpha  occ. eigenvalues --   -0.63704  -0.63511  -0.62404  -0.61241  -0.60775
 Alpha  occ. eigenvalues --   -0.59851  -0.58610  -0.58311  -0.57231  -0.56086
 Alpha  occ. eigenvalues --   -0.55487  -0.55249  -0.54248  -0.53745  -0.53043
 Alpha  occ. eigenvalues --   -0.52912  -0.52423  -0.52186  -0.51716  -0.51148
 Alpha  occ. eigenvalues --   -0.51012  -0.50286  -0.49756  -0.49270  -0.49069
 Alpha  occ. eigenvalues --   -0.48970  -0.48555  -0.48201  -0.48011  -0.47786
 Alpha  occ. eigenvalues --   -0.47536  -0.47304  -0.47003  -0.46709  -0.46317
 Alpha  occ. eigenvalues --   -0.46028  -0.45797  -0.45509  -0.44856  -0.44710
 Alpha  occ. eigenvalues --   -0.44358  -0.44136  -0.43854  -0.43657  -0.43183
 Alpha  occ. eigenvalues --   -0.42850  -0.42666  -0.41882  -0.41833  -0.41622
 Alpha  occ. eigenvalues --   -0.41543  -0.41248  -0.40921  -0.40547  -0.40148
 Alpha  occ. eigenvalues --   -0.39967  -0.39941  -0.39723  -0.39253  -0.39173
 Alpha  occ. eigenvalues --   -0.38977  -0.38740  -0.38553  -0.38356  -0.38278
 Alpha  occ. eigenvalues --   -0.38007  -0.37386  -0.36769  -0.36585  -0.35610
 Alpha  occ. eigenvalues --   -0.35157  -0.34737  -0.33461  -0.32498  -0.32018
 Alpha  occ. eigenvalues --   -0.30754  -0.29834  -0.27598  -0.26046  -0.22594
 Alpha  occ. eigenvalues --   -0.18859
 Alpha virt. eigenvalues --   -0.06373  -0.01944   0.02518   0.05065   0.07889
 Alpha virt. eigenvalues --    0.08247   0.09200   0.11140   0.11517   0.12190
 Alpha virt. eigenvalues --    0.12299   0.12467   0.12699   0.12864   0.13377

 Mulliken charges:
               1
     1  O   -0.539339
     2  O   -0.560516
     3  C   -0.054547
     4  C   -0.014532
     5  C   -0.206373
     6  C   -0.149882
     7  C    0.171096
     8  C    0.163155
     9  C    0.096282
    10  C    0.089651
    11  C   -0.244604
    12  C   -0.201172
    13  C    0.053687
    14  C    0.028933
    15  C   -0.274030
    16  C   -0.308980
    17  C   -0.303157
    18  C   -0.310461
    19  C   -0.085630
    20  C   -0.169596
    21  C   -0.368424
    22  C   -0.361811
    23  C   -0.108949
    24  C   -0.069305
    25  C    0.031422
    26  C    0.102667
    27  C   -0.353522
    28  C   -0.354707
    29  C   -0.106207
    30  C   -0.101451
    31  C   -0.091216
    32  C   -0.078319
    33  C   -0.104747
    34  C   -0.113606
    35  C    0.076964
    36  C    0.158334
    37  C   -0.360161
    38  C   -0.341116
    39  C   -0.153438
    40  C   -0.164196
    41  C   -0.062006
    42  C   -0.052395
    43  H    0.105839
    44  H    0.079071
    45  H    0.089024
    46  H    0.111772
    47  H    0.096094
    48  H    0.069756
    49  H    0.126566
    50  H    0.100989
    51  H    0.126394
    52  H    0.064704
    53  H    0.075193
    54  H    0.106681
    55  H    0.093759
    56  H    0.092744
    57  H    0.095799
    58  H    0.097532
    59  H    0.089829
    60  H    0.123003
    61  H    0.105083
    62  H    0.082476
    63  H    0.076893
    64  H    0.108747
    65  H    0.094488
    66  H    0.079948
    67  H    0.127915
    68  H    0.106273
    69  H    0.095106
    70  H    0.065122
    71  H    0.124970
    72  H    0.123275
    73  H    0.298276
    74  H    0.284690
    75  H    0.091566
    76  H    0.087294
    77  H    0.095235
    78  H    0.127780
    79  H    0.152900
    80  H    0.110031
    81  H    0.134568
    82  H    0.109140
    83  H    0.079326
    84  H    0.079905
    85  H    0.059953
    86  H    0.040937
    87  H    0.069000
    88  H    0.061755
    89  H    0.129140
    90  H    0.116204
    91  H    0.114929
    92  H    0.092070
    93  H    0.104800
    94  H    0.075254
    95  H    0.097427
    96  H    0.080612
    97  H    0.093380
    98  H    0.074986
 Sum of Mulliken charges =  -0.00000

 Dipole moment (field-independent basis, Debye):
    X=              1.3710    Y=             -1.0036    Z=              2.0807  Tot=              2.6862
 Quadrupole moment (field-independent basis, Debye-Ang):
   XX=           -284.8836   YY=           -243.8989   ZZ=           -258.0680
   XY=              1.4246   XZ=            -17.2672   YZ=              4.1582

 Normal termination of Gaussian 16 at Mon Jul 15 23:25:12 2019.
