 Gaussian 16, Revision A.03,
 Gaussian 16:  ES64L-G16RevA.03 25-Dec-2016

 -------------------------------------
 # td=(NStates=1) CAM-B3LYP/6-31G(d,p)
 -------------------------------------

 --
 TD
 --
 Symbolic Z-matrix:
 Charge =  0 Multiplicity = 1

                         Standard orientation:
 ---------------------------------------------------------------------
 Center     Atomic      Atomic             Coordinates (Angstroms)
 Number     Number       Type             X           Y           Z
 ---------------------------------------------------------------------
      1          8           0       14.900294   -2.087012   -0.085751
      2          8           0      -14.713080    2.034652    1.034035
      3          6           0       11.410490   -1.394791    1.003712
      4          6           0      -12.518798   -1.022454    0.525272
      5          6           0       12.826525   -1.616363    1.109763
      6          6           0      -13.832724   -0.177589    0.638274
      7          6           0       13.436522   -1.821149   -0.351759
      8          6           0      -13.518045    1.306068    0.882638
      9          6           0       10.968891   -0.244630    0.111406
     10          6           0      -11.312806   -0.215117   -0.119801
     11          6           0       13.236726   -0.568401   -1.037402
     12          6           0      -12.689688    1.910380   -0.204063
     13          6           0       11.840510    0.060453   -0.951037
     14          6           0      -11.519267    1.064033   -0.458171
     15          6           0       10.911999   -0.921915    2.491271
     16          6           0       10.496656   -2.610927    0.612443
     17          6           0      -11.999654   -1.384182    1.993636
     18          6           0      -12.658359   -2.292640   -0.206930
     19          6           0        9.658876    0.281797    0.104778
     20          6           0      -10.016802   -0.937310   -0.337815
     21          6           0       11.594088    1.091747   -1.973826
     22          6           0      -10.546749    1.756663   -1.460399
     23          6           0        9.333254    1.723369   -0.064698
     24          6           0       -8.771782   -0.462025   -0.260030
     25          6           0        8.034016    2.331643    0.050303
     26          6           0       -7.600004   -1.239981   -0.544994
     27          6           0        7.933219    3.763579    0.423494
     28          6           0       -7.775611   -2.657745   -1.027972
     29          6           0        6.854934    1.522068    0.044872
     30          6           0       -6.362323   -0.602291   -0.401107
     31          6           0        5.606970    1.951075    0.178712
     32          6           0       -5.038936   -1.165734   -0.515935
     33          6           0        4.488715    1.258565   -0.052462
     34          6           0       -3.997873   -0.427455   -0.202137
     35          6           0        3.125218    1.567689    0.065899
     36          6           0       -2.633039   -0.863246   -0.400296
     37          6           0        2.753461    3.059028    0.526315
     38          6           0       -2.439267   -2.394560   -1.010610
     39          6           0        2.144800    0.705210   -0.220644
     40          6           0       -1.634614    0.006812   -0.198793
     41          6           0        0.764582    0.890727   -0.056928
     42          6           0       -0.182720   -0.141087   -0.366606
     43          1           0       13.385400   -0.905267    1.775166
     44          1           0       13.002334   -2.644313    1.590505
     45          1           0      -14.473360   -0.482740    1.314554
     46          1           0      -14.426222   -0.503993   -0.231020
     47          1           0       12.821568   -2.591830   -0.942707
     48          1           0      -13.012287    1.324873    1.785976
     49          1           0       13.884260    0.178610   -0.604054
     50          1           0       13.497752   -0.607451   -2.120214
     51          1           0      -13.191807    2.009689   -1.180871
     52          1           0      -12.336117    3.012916    0.173520
     53          1           0       11.061850   -1.843068    3.334527
     54          1           0        9.818631   -0.632747    2.446615
     55          1           0       11.422834    0.000966    2.716902
     56          1           0       10.680907   -3.150192   -0.225534
     57          1           0       10.828902   -3.340033    1.482075
     58          1           0        9.445320   -2.267915    0.591129
     59          1           0      -11.537985   -0.533780    2.549333
     60          1           0      -11.034915   -2.063523    1.992731
     61          1           0      -12.982002   -1.847992    2.600284
     62          1           0      -13.578000   -2.777105    0.254469
     63          1           0      -11.716407   -3.092604   -0.126930
     64          1           0      -13.036057   -2.042173   -1.316908
     65          1           0        8.684735   -0.241587    0.359405
     66          1           0      -10.218078   -1.986002   -0.761721
     67          1           0       10.500636    1.121645   -2.054935
     68          1           0       11.916309    2.112957   -1.675583
     69          1           0       12.029717    0.810735   -2.915089
     70          1           0      -11.112421    2.313404   -2.272026
     71          1           0       -9.784335    1.021566   -1.899695
     72          1           0      -10.054798    2.865998   -1.126149
     73          1           0       14.867134   -3.059581    0.188329
     74          1           0      -15.118268    1.431225    1.737073
     75          1           0       10.259612    2.300056   -0.149852
     76          1           0       -8.667184    0.530657    0.265887
     77          1           0        8.846091    4.170645    0.515533
     78          1           0        7.459153    4.373977   -0.550696
     79          1           0        7.471842    3.983243    1.441237
     80          1           0       -8.463416   -3.261673   -0.254317
     81          1           0       -8.236435   -2.642728   -2.079238
     82          1           0       -6.830452   -3.257799   -0.969576
     83          1           0        6.942350    0.448511   -0.170769
     84          1           0       -6.139437    0.304997    0.083267
     85          1           0        5.432420    3.070406    0.401837
     86          1           0       -4.936087   -2.085243   -1.027363
     87          1           0        4.627811    0.185179   -0.458196
     88          1           0       -3.955802    0.495856    0.247993
     89          1           0        3.060059    3.154860    1.419127
     90          1           0        1.835023    3.299273    0.462969
     91          1           0        3.138891    3.881537   -0.176272
     92          1           0       -2.511850   -3.204576   -0.138440
     93          1           0       -3.165381   -2.495267   -1.750033
     94          1           0       -1.368534   -2.513536   -1.521803
     95          1           0        2.504521   -0.308614   -0.296197
     96          1           0       -1.955829    0.996482    0.183130
     97          1           0        0.410779    1.956352    0.260439
     98          1           0        0.280569   -1.090301   -0.794351
 ---------------------------------------------------------------------

 SCF Done:  E(RCAM-B3LYP) =  -1706.96777081     A.U. after   15 cycles

 Excitation energies and oscillator strengths:

 Excited State   1:      Singlet-A      2.1947 eV  564.93 nm  f=3.3586  <S**2>=0.000
     155 ->158        -0.16386
     156 ->157         0.68502
 This state for optimization and/or second-order correction.
 Total Energy, E(TD-HF/TD-DFT) =  -1706.88711799
 Copying the excited state density for this state as the 1-particle RhoCI density.

 The electronic state is 1-A.
 Alpha  occ. eigenvalues --  -19.21966 -19.21444 -10.31404 -10.29719 -10.28083
 Alpha  occ. eigenvalues --  -10.28068 -10.28007 -10.27796 -10.27713 -10.27700
 Alpha  occ. eigenvalues --  -10.27640 -10.27595 -10.27504 -10.27468 -10.27394
 Alpha  occ. eigenvalues --  -10.27379 -10.27298 -10.27121 -10.26935 -10.26554
 Alpha  occ. eigenvalues --  -10.26467 -10.26374 -10.26349 -10.26202 -10.26193
 Alpha  occ. eigenvalues --  -10.26186 -10.26048 -10.26038 -10.25990 -10.25929
 Alpha  occ. eigenvalues --  -10.25829 -10.25773 -10.25560 -10.25462 -10.25407
 Alpha  occ. eigenvalues --  -10.25350 -10.25276 -10.25181 -10.25126 -10.24756
 Alpha  occ. eigenvalues --  -10.24565 -10.23269  -1.09929  -1.06735  -0.94191
 Alpha  occ. eigenvalues --   -0.93290  -0.92360  -0.91976  -0.90449  -0.89765
 Alpha  occ. eigenvalues --   -0.87370  -0.87046  -0.86864  -0.85967  -0.84813
 Alpha  occ. eigenvalues --   -0.83641  -0.82030  -0.79885  -0.79469  -0.78457
 Alpha  occ. eigenvalues --   -0.76998  -0.76570  -0.76101  -0.75850  -0.75639
 Alpha  occ. eigenvalues --   -0.74889  -0.74418  -0.74152  -0.73546  -0.70543
 Alpha  occ. eigenvalues --   -0.69048  -0.67442  -0.66107  -0.64911  -0.63474
 Alpha  occ. eigenvalues --   -0.62956  -0.62569  -0.61749  -0.60858  -0.60287
 Alpha  occ. eigenvalues --   -0.59665  -0.58566  -0.58501  -0.57550  -0.56150
 Alpha  occ. eigenvalues --   -0.55438  -0.55043  -0.54597  -0.54065  -0.53686
 Alpha  occ. eigenvalues --   -0.53065  -0.52583  -0.51744  -0.51566  -0.50825
 Alpha  occ. eigenvalues --   -0.50643  -0.50147  -0.49590  -0.49475  -0.49026
 Alpha  occ. eigenvalues --   -0.48846  -0.48623  -0.48398  -0.48140  -0.47948
 Alpha  occ. eigenvalues --   -0.47598  -0.47517  -0.47354  -0.46651  -0.46151
 Alpha  occ. eigenvalues --   -0.45798  -0.45628  -0.45365  -0.44908  -0.44869
 Alpha  occ. eigenvalues --   -0.44094  -0.43958  -0.43852  -0.43642  -0.43135
 Alpha  occ. eigenvalues --   -0.43013  -0.42637  -0.42498  -0.42348  -0.42169
 Alpha  occ. eigenvalues --   -0.41979  -0.41531  -0.41344  -0.41001  -0.40487
 Alpha  occ. eigenvalues --   -0.40364  -0.40116  -0.39912  -0.39874  -0.39498
 Alpha  occ. eigenvalues --   -0.39452  -0.38985  -0.38952  -0.38314  -0.38148
 Alpha  occ. eigenvalues --   -0.38026  -0.37924  -0.37537  -0.36673  -0.36387
 Alpha  occ. eigenvalues --   -0.35918  -0.34786  -0.34074  -0.32620  -0.32207
 Alpha  occ. eigenvalues --   -0.31205  -0.29715  -0.28274  -0.26042  -0.22994
 Alpha  occ. eigenvalues --   -0.19510
 Alpha virt. eigenvalues --   -0.05741  -0.01665   0.02065   0.05753   0.07565
 Alpha virt. eigenvalues --    0.09456   0.10786   0.11151   0.11481   0.11962
 Alpha virt. eigenvalues --    0.12269   0.12807   0.13202   0.13470   0.13693

 Mulliken charges:
               1
     1  O   -0.565047
     2  O   -0.554617
     3  C   -0.024608
     4  C    0.001424
     5  C   -0.175878
     6  C   -0.205219
     7  C    0.126225
     8  C    0.173161
     9  C    0.099956
    10  C    0.058398
    11  C   -0.196812
    12  C   -0.214998
    13  C    0.020529
    14  C    0.058159
    15  C   -0.296496
    16  C   -0.283939
    17  C   -0.289637
    18  C   -0.292744
    19  C   -0.136013
    20  C   -0.142068
    21  C   -0.369038
    22  C   -0.353671
    23  C   -0.141487
    24  C   -0.086720
    25  C    0.080727
    26  C    0.094042
    27  C   -0.360190
    28  C   -0.367196
    29  C   -0.108760
    30  C   -0.118957
    31  C   -0.058003
    32  C   -0.089677
    33  C   -0.137068
    34  C   -0.082862
    35  C    0.107934
    36  C    0.104039
    37  C   -0.348963
    38  C   -0.357189
    39  C   -0.128789
    40  C   -0.149110
    41  C   -0.086376
    42  C   -0.102734
    43  H    0.115514
    44  H    0.068029
    45  H    0.083942
    46  H    0.097251
    47  H    0.090777
    48  H    0.096152
    49  H    0.131519
    50  H    0.095647
    51  H    0.125475
    52  H    0.096764
    53  H    0.068833
    54  H    0.100111
    55  H    0.109533
    56  H    0.109583
    57  H    0.078717
    58  H    0.108507
    59  H    0.106970
    60  H    0.093818
    61  H    0.066157
    62  H    0.091460
    63  H    0.095877
    64  H    0.090921
    65  H    0.091728
    66  H    0.082570
    67  H    0.131377
    68  H    0.119864
    69  H    0.104467
    70  H    0.098287
    71  H    0.120387
    72  H    0.065229
    73  H    0.310068
    74  H    0.301552
    75  H    0.089067
    76  H    0.101399
    77  H    0.120799
    78  H    0.098450
    79  H    0.126221
    80  H    0.105580
    81  H    0.125383
    82  H    0.111066
    83  H    0.076929
    84  H    0.079790
    85  H    0.082428
    86  H    0.079252
    87  H    0.062753
    88  H    0.082248
    89  H    0.133435
    90  H    0.106628
    91  H    0.098874
    92  H    0.112435
    93  H    0.132333
    94  H    0.095635
    95  H    0.080979
    96  H    0.077758
    97  H    0.085867
    98  H    0.087878
 Sum of Mulliken charges =  -0.00000

 Dipole moment (field-independent basis, Debye):
    X=              0.3869    Y=             -1.8819    Z=              0.6743  Tot=              2.0362
 Quadrupole moment (field-independent basis, Debye-Ang):
   XX=           -284.3230   YY=           -245.0955   ZZ=           -262.3197
   XY=             17.7131   XZ=             -9.1052   YZ=              4.3934

 Normal termination of Gaussian 16 at Sat Jul 20 09:23:41 2019.
