 Gaussian 16, Revision A.03,
 Gaussian 16:  ES64L-G16RevA.03 25-Dec-2016

 -------------------------------------
 # td=(NStates=1) CAM-B3LYP/6-31G(d,p)
 -------------------------------------

 --
 TD
 --
 Symbolic Z-matrix:
 Charge =  0 Multiplicity = 1

                         Standard orientation:
 ---------------------------------------------------------------------
 Center     Atomic      Atomic             Coordinates (Angstroms)
 Number     Number       Type             X           Y           Z
 ---------------------------------------------------------------------
      1          8           0       14.663472   -2.381712   -0.219670
      2          8           0      -14.909922    1.649203    0.896953
      3          6           0       11.185304   -1.513548    0.911505
      4          6           0      -12.295982   -1.077868    0.714567
      5          6           0       12.610106   -2.087278    1.047563
      6          6           0      -13.692198   -0.475181    0.788376
      7          6           0       13.318269   -2.039834   -0.309268
      8          6           0      -13.592796    1.055610    0.943969
      9          6           0       10.947277   -0.274063    0.062003
     10          6           0      -11.325661   -0.311752   -0.153895
     11          6           0       13.196638   -0.574063   -0.854927
     12          6           0      -12.805136    1.590422   -0.279034
     13          6           0       11.881180    0.052112   -0.888319
     14          6           0      -11.516545    0.928319   -0.532795
     15          6           0       10.759054   -1.216695    2.332498
     16          6           0       10.237449   -2.803381    0.492802
     17          6           0      -11.595865   -1.122742    2.055863
     18          6           0      -12.473559   -2.509006    0.132654
     19          6           0        9.629396    0.350724    0.158374
     20          6           0      -10.083009   -1.070586   -0.396960
     21          6           0       11.675628    1.139077   -1.898586
     22          6           0      -10.639135    1.705907   -1.450029
     23          6           0        9.432748    1.756681    0.138992
     24          6           0       -8.850603   -0.451914   -0.342994
     25          6           0        8.182868    2.366057    0.283085
     26          6           0       -7.562598   -1.129175   -0.651990
     27          6           0        8.187042    3.755569    0.571229
     28          6           0       -7.543266   -2.522601   -1.020577
     29          6           0        6.941743    1.733931   -0.071720
     30          6           0       -6.475548   -0.412521   -0.467363
     31          6           0        5.622335    2.064432    0.120242
     32          6           0       -5.096636   -0.847228   -0.651323
     33          6           0        4.526675    1.332468   -0.143414
     34          6           0       -3.945969   -0.106204   -0.364101
     35          6           0        3.161834    1.784769    0.092647
     36          6           0       -2.660107   -0.554550   -0.628640
     37          6           0        2.941369    3.242387    0.635031
     38          6           0       -2.458296   -2.043322   -1.144096
     39          6           0        2.092389    0.910905   -0.102278
     40          6           0       -1.601605    0.313329   -0.223138
     41          6           0        0.686713    1.083357   -0.042638
     42          6           0       -0.258985    0.140115   -0.433495
     43          1           0       13.318136   -1.389342    1.693222
     44          1           0       12.474062   -3.004488    1.512956
     45          1           0      -14.205769   -0.847295    1.813017
     46          1           0      -14.451051   -0.722397    0.072520
     47          1           0       12.670257   -3.056544   -0.684937
     48          1           0      -13.036015    1.172760    1.853305
     49          1           0       14.009844   -0.131167   -0.438448
     50          1           0       13.531340   -0.768204   -1.876668
     51          1           0      -13.409475    1.560088   -1.115353
     52          1           0      -12.663358    2.686754   -0.050590
     53          1           0       11.042232   -1.976329    3.135123
     54          1           0        9.706921   -0.808415    2.418876
     55          1           0       11.526078   -0.374158    2.802689
     56          1           0       10.521522   -3.262319   -0.352819
     57          1           0       10.272424   -3.498875    1.491229
     58          1           0        9.249529   -2.539343    0.261355
     59          1           0      -11.357426   -0.035986    2.453944
     60          1           0      -10.441113   -1.580208    2.048713
     61          1           0      -12.408616   -1.719041    2.727578
     62          1           0      -13.133865   -3.151532    0.549768
     63          1           0      -11.569641   -3.011406    0.180572
     64          1           0      -12.827573   -2.383068   -1.019122
     65          1           0        8.695084   -0.116313    0.689721
     66          1           0      -10.448100   -2.122074   -0.829753
     67          1           0       10.515611    1.465397   -1.753886
     68          1           0       12.603787    2.110440   -1.557135
     69          1           0       11.944106    0.899371   -2.944511
     70          1           0      -11.194142    2.022294   -2.324970
     71          1           0      -10.119602    0.838121   -1.919169
     72          1           0       -9.861787    2.370434   -0.800447
     73          1           0       14.794403   -3.344210    0.091459
     74          1           0      -15.213711    1.277096    1.695109
     75          1           0       10.243402    2.348549   -0.195070
     76          1           0       -9.001449    0.631361    0.085568
     77          1           0        9.132934    3.943607    0.579613
     78          1           0        7.600372    4.197953   -0.403155
     79          1           0        7.557808    3.857984    1.599784
     80          1           0       -7.690724   -3.288081   -0.174716
     81          1           0       -8.167561   -2.790891   -1.904133
     82          1           0       -6.460346   -2.608491   -1.566180
     83          1           0        7.052750    0.782524   -0.444943
     84          1           0       -6.505236    0.742026    0.004945
     85          1           0        5.700119    3.047276    0.630057
     86          1           0       -4.996545   -1.857315   -1.125106
     87          1           0        4.518551    0.278970   -0.463099
     88          1           0       -4.269752    0.822297   -0.179508
     89          1           0        3.371637    3.392216    1.754954
     90          1           0        1.812923    3.648867    0.614884
     91          1           0        3.558251    4.048860    0.219233
     92          1           0       -2.553147   -2.623766   -0.293144
     93          1           0       -3.149591   -2.363972   -2.068309
     94          1           0       -1.391430   -2.109682   -1.580092
     95          1           0        2.342261   -0.121025   -0.612766
     96          1           0       -1.892123    1.370003    0.037156
     97          1           0        0.045327    1.836372    0.523880
     98          1           0        0.123989   -0.861561   -0.860387
 ---------------------------------------------------------------------

 SCF Done:  E(RCAM-B3LYP) =  -1706.86502409     A.U. after   15 cycles

 Excitation energies and oscillator strengths:

 Excited State   1:      Singlet-A      2.0520 eV  604.22 nm  f=3.5628  <S**2>=0.000
     155 ->158        -0.16782
     156 ->157         0.68568
 This state for optimization and/or second-order correction.
 Total Energy, E(TD-HF/TD-DFT) =  -1706.78961512
 Copying the excited state density for this state as the 1-particle RhoCI density.

 The electronic state is 1-A.
 Alpha  occ. eigenvalues --  -19.22089 -19.21116 -10.31918 -10.29773 -10.28659
 Alpha  occ. eigenvalues --  -10.28574 -10.28361 -10.27941 -10.27821 -10.27700
 Alpha  occ. eigenvalues --  -10.27626 -10.27577 -10.27482 -10.27375 -10.27247
 Alpha  occ. eigenvalues --  -10.27236 -10.27192 -10.27110 -10.27065 -10.27037
 Alpha  occ. eigenvalues --  -10.27006 -10.26801 -10.26738 -10.26704 -10.26656
 Alpha  occ. eigenvalues --  -10.26480 -10.26480 -10.26297 -10.25932 -10.25903
 Alpha  occ. eigenvalues --  -10.25785 -10.25504 -10.25271 -10.25202 -10.25115
 Alpha  occ. eigenvalues --  -10.25040 -10.24850 -10.24593 -10.24507 -10.24454
 Alpha  occ. eigenvalues --  -10.24327 -10.23871  -1.10027  -1.09743  -0.94543
 Alpha  occ. eigenvalues --   -0.93919  -0.92432  -0.92098  -0.91003  -0.89877
 Alpha  occ. eigenvalues --   -0.87682  -0.87459  -0.87184  -0.85366  -0.84910
 Alpha  occ. eigenvalues --   -0.83887  -0.81500  -0.79956  -0.79467  -0.77887
 Alpha  occ. eigenvalues --   -0.76528  -0.76233  -0.76176  -0.75830  -0.75786
 Alpha  occ. eigenvalues --   -0.75417  -0.74949  -0.74400  -0.73227  -0.70359
 Alpha  occ. eigenvalues --   -0.68928  -0.67264  -0.65580  -0.64793  -0.64272
 Alpha  occ. eigenvalues --   -0.63476  -0.62778  -0.61132  -0.60899  -0.60195
 Alpha  occ. eigenvalues --   -0.59549  -0.58636  -0.58601  -0.57413  -0.55984
 Alpha  occ. eigenvalues --   -0.55821  -0.55000  -0.54674  -0.54473  -0.53510
 Alpha  occ. eigenvalues --   -0.52919  -0.52320  -0.51841  -0.51341  -0.50699
 Alpha  occ. eigenvalues --   -0.50541  -0.50204  -0.50052  -0.49512  -0.49359
 Alpha  occ. eigenvalues --   -0.49106  -0.48817  -0.48515  -0.48353  -0.48099
 Alpha  occ. eigenvalues --   -0.47976  -0.47108  -0.46879  -0.46769  -0.46202
 Alpha  occ. eigenvalues --   -0.45614  -0.45415  -0.45009  -0.44857  -0.44700
 Alpha  occ. eigenvalues --   -0.44604  -0.44168  -0.43854  -0.43534  -0.43258
 Alpha  occ. eigenvalues --   -0.43035  -0.42593  -0.42013  -0.41846  -0.41688
 Alpha  occ. eigenvalues --   -0.41455  -0.41192  -0.41037  -0.40732  -0.40488
 Alpha  occ. eigenvalues --   -0.40421  -0.40195  -0.39749  -0.39184  -0.38988
 Alpha  occ. eigenvalues --   -0.38705  -0.38666  -0.38396  -0.38307  -0.37905
 Alpha  occ. eigenvalues --   -0.37625  -0.37447  -0.36980  -0.36851  -0.36329
 Alpha  occ. eigenvalues --   -0.35453  -0.34438  -0.33883  -0.32455  -0.31476
 Alpha  occ. eigenvalues --   -0.30011  -0.29791  -0.28306  -0.26374  -0.23254
 Alpha  occ. eigenvalues --   -0.19222
 Alpha virt. eigenvalues --   -0.06355  -0.02103   0.02257   0.05095   0.07507
 Alpha virt. eigenvalues --    0.09442   0.10559   0.10965   0.11414   0.11733
 Alpha virt. eigenvalues --    0.11995   0.12361   0.12655   0.12844   0.12970

 Mulliken charges:
               1
     1  O   -0.561075
     2  O   -0.542762
     3  C   -0.029512
     4  C   -0.003739
     5  C   -0.175046
     6  C   -0.187664
     7  C    0.174658
     8  C    0.127176
     9  C    0.110826
    10  C    0.081062
    11  C   -0.232516
    12  C   -0.213471
    13  C    0.075263
    14  C    0.022369
    15  C   -0.287447
    16  C   -0.305861
    17  C   -0.279902
    18  C   -0.310925
    19  C   -0.150504
    20  C   -0.140988
    21  C   -0.336195
    22  C   -0.366026
    23  C   -0.132923
    24  C   -0.113893
    25  C    0.067677
    26  C    0.118105
    27  C   -0.341809
    28  C   -0.367042
    29  C   -0.108756
    30  C   -0.099382
    31  C   -0.055795
    32  C   -0.116298
    33  C   -0.123167
    34  C   -0.074907
    35  C    0.139950
    36  C    0.070190
    37  C   -0.368097
    38  C   -0.358389
    39  C   -0.161057
    40  C   -0.134128
    41  C   -0.085865
    42  C   -0.059031
    43  H    0.072102
    44  H    0.088913
    45  H    0.044946
    46  H    0.114096
    47  H    0.032112
    48  H    0.089232
    49  H    0.142093
    50  H    0.115488
    51  H    0.124624
    52  H    0.097536
    53  H    0.093475
    54  H    0.099113
    55  H    0.068286
    56  H    0.114870
    57  H    0.083447
    58  H    0.109192
    59  H    0.095752
    60  H    0.102382
    61  H    0.078738
    62  H    0.108233
    63  H    0.110191
    64  H    0.083648
    65  H    0.104802
    66  H    0.099347
    67  H    0.114104
    68  H    0.050132
    69  H    0.121301
    70  H    0.114297
    71  H    0.124520
    72  H    0.103658
    73  H    0.317604
    74  H    0.300329
    75  H    0.110352
    76  H    0.093270
    77  H    0.112338
    78  H    0.114290
    79  H    0.112998
    80  H    0.126988
    81  H    0.120646
    82  H    0.087347
    83  H    0.056593
    84  H    0.065639
    85  H    0.070398
    86  H    0.073065
    87  H    0.090152
    88  H    0.074737
    89  H    0.097575
    90  H    0.101707
    91  H    0.124943
    92  H    0.149960
    93  H    0.109733
    94  H    0.105159
    95  H    0.076119
    96  H    0.087622
    97  H    0.082886
    98  H    0.073817
 Sum of Mulliken charges =  -0.00000

 Dipole moment (field-independent basis, Debye):
    X=              0.9033    Y=             -2.6246    Z=              0.7750  Tot=              2.8819
 Quadrupole moment (field-independent basis, Debye-Ang):
   XX=           -276.7910   YY=           -246.0815   ZZ=           -261.8161
   XY=              9.6678   XZ=             -6.3258   YZ=              3.9030

 Normal termination of Gaussian 16 at Mon Jul 15 02:11:13 2019.
