 Gaussian 16, Revision A.03,
 Gaussian 16:  ES64L-G16RevA.03 25-Dec-2016

 -------------------------------------
 # td=(NStates=1) CAM-B3LYP/6-31G(d,p)
 -------------------------------------

 --
 TD
 --
 Symbolic Z-matrix:
 Charge =  0 Multiplicity = 1

                         Standard orientation:
 ---------------------------------------------------------------------
 Center     Atomic      Atomic             Coordinates (Angstroms)
 Number     Number       Type             X           Y           Z
 ---------------------------------------------------------------------
      1          8           0       14.764198   -2.214245   -0.406259
      2          8           0      -14.824174    1.810193    1.050561
      3          6           0       11.285565   -1.527004    1.009475
      4          6           0      -12.350113   -1.123799    0.650510
      5          6           0       12.787460   -1.937808    0.936687
      6          6           0      -13.756080   -0.389535    0.743169
      7          6           0       13.398415   -1.978483   -0.438864
      8          6           0      -13.588744    1.126940    0.941811
      9          6           0       10.971231   -0.246691    0.093734
     10          6           0      -11.274059   -0.315807   -0.063111
     11          6           0       13.261045   -0.446179   -1.074905
     12          6           0      -12.864811    1.774400   -0.255268
     13          6           0       11.908158    0.123274   -0.888695
     14          6           0      -11.578769    0.929056   -0.553790
     15          6           0       10.997755   -1.107392    2.566595
     16          6           0       10.441599   -2.660695    0.630128
     17          6           0      -11.892468   -1.324907    2.113003
     18          6           0      -12.550509   -2.515076    0.129154
     19          6           0        9.678425    0.285918    0.274260
     20          6           0      -10.106396   -1.032777   -0.394283
     21          6           0       11.634306    1.211099   -1.825511
     22          6           0      -10.747079    1.728893   -1.490551
     23          6           0        9.430078    1.634983    0.133163
     24          6           0       -8.895345   -0.465254   -0.555020
     25          6           0        8.037354    2.176333    0.357688
     26          6           0       -7.661499   -1.138819   -0.638573
     27          6           0        7.945942    3.652176    0.627549
     28          6           0       -7.508641   -2.606600   -0.968252
     29          6           0        6.836195    1.456638    0.130446
     30          6           0       -6.441291   -0.390585   -0.547768
     31          6           0        5.542722    2.063021    0.165057
     32          6           0       -5.106167   -0.840177   -0.701811
     33          6           0        4.449742    1.334342   -0.006002
     34          6           0       -3.959362   -0.201785   -0.529394
     35          6           0        3.153823    1.739440    0.067285
     36          6           0       -2.619431   -0.666218   -0.614353
     37          6           0        2.953565    3.123675    0.513907
     38          6           0       -2.433003   -2.102453   -1.010664
     39          6           0        2.144389    0.852785   -0.089298
     40          6           0       -1.610189    0.289957   -0.354390
     41          6           0        0.780407    0.977820   -0.022944
     42          6           0       -0.266465    0.041716   -0.467088
     43          1           0       13.493853   -1.215234    1.650366
     44          1           0       12.869283   -2.944069    1.353326
     45          1           0      -14.435660   -0.895842    1.420733
     46          1           0      -14.352407   -0.527767   -0.202121
     47          1           0       12.968712   -2.676304   -1.152867
     48          1           0      -13.055081    1.323713    1.696196
     49          1           0       14.103815    0.031218   -0.582697
     50          1           0       13.663839   -0.401948   -2.134790
     51          1           0      -13.615451    1.714186   -1.132223
     52          1           0      -12.385103    2.641405    0.010903
     53          1           0       11.350221   -1.969211    3.114689
     54          1           0        9.982444   -0.840661    2.747525
     55          1           0       11.765282   -0.256476    2.787855
     56          1           0       10.735640   -3.061271   -0.281763
     57          1           0       10.578835   -3.470889    1.230671
     58          1           0        9.303857   -2.390686    0.652844
     59          1           0      -11.718674   -0.237080    2.340355
     60          1           0      -10.824048   -1.554015    2.161830
     61          1           0      -12.372426   -1.900669    2.780956
     62          1           0      -13.441153   -3.031250    0.633220
     63          1           0      -11.777045   -3.320586    0.640974
     64          1           0      -12.570090   -2.625716   -0.966914
     65          1           0        8.860591   -0.275684    0.440475
     66          1           0      -10.316859   -2.162828   -0.537243
     67          1           0       10.432793    1.049499   -2.344596
     68          1           0       11.813474    2.197019   -1.338815
     69          1           0       12.471463    1.020380   -2.643685
     70          1           0      -11.344475    2.420976   -2.088491
     71          1           0      -10.135558    1.293559   -2.258069
     72          1           0      -10.178732    2.616613   -0.915691
     73          1           0       14.842089   -3.065397   -0.118535
     74          1           0      -15.229375    1.442923    1.658261
     75          1           0       10.346345    2.303038    0.224078
     76          1           0       -8.900778    0.579255   -0.301061
     77          1           0        8.871998    4.170077    0.507511
     78          1           0        7.326493    3.984439   -0.045875
     79          1           0        7.533803    3.877134    1.662675
     80          1           0       -7.843658   -3.484503   -0.192369
     81          1           0       -8.404731   -2.553966   -1.521501
     82          1           0       -6.575609   -2.889225   -1.477560
     83          1           0        6.907105    0.397890    0.156906
     84          1           0       -6.481624    0.699051   -0.181262
     85          1           0        5.455167    3.195397    0.525264
     86          1           0       -5.008860   -1.970314   -1.050390
     87          1           0        4.644475    0.346521   -0.469800
     88          1           0       -4.172053    0.988031   -0.108896
     89          1           0        3.561325    3.576179    1.253320
     90          1           0        2.030113    3.566151    0.560738
     91          1           0        3.414170    3.808671   -0.157331
     92          1           0       -2.900332   -2.769608   -0.127639
     93          1           0       -2.942495   -2.369474   -1.879852
     94          1           0       -1.437168   -2.458120   -1.359836
     95          1           0        2.519418   -0.105888   -0.469435
     96          1           0       -2.111266    1.238634   -0.050599
     97          1           0        0.412947    1.967284    0.252538
     98          1           0        0.184437   -0.818681   -1.085232
 ---------------------------------------------------------------------

 SCF Done:  E(RCAM-B3LYP) =  -1706.93194145     A.U. after   15 cycles

 Excitation energies and oscillator strengths:

 Excited State   1:      Singlet-A      2.0047 eV  618.47 nm  f=3.8800  <S**2>=0.000
     155 ->158         0.15666
     156 ->157         0.68985
 This state for optimization and/or second-order correction.
 Total Energy, E(TD-HF/TD-DFT) =  -1706.85827093
 Copying the excited state density for this state as the 1-particle RhoCI density.

 The electronic state is 1-A.
 Alpha  occ. eigenvalues --  -19.21020 -19.19453 -10.30800 -10.28780 -10.27909
 Alpha  occ. eigenvalues --  -10.27840 -10.27771 -10.27714 -10.27550 -10.27534
 Alpha  occ. eigenvalues --  -10.27376 -10.26945 -10.26915 -10.26905 -10.26663
 Alpha  occ. eigenvalues --  -10.26607 -10.26539 -10.26507 -10.26478 -10.26437
 Alpha  occ. eigenvalues --  -10.26397 -10.26376 -10.26257 -10.26202 -10.26125
 Alpha  occ. eigenvalues --  -10.26002 -10.26001 -10.25902 -10.25742 -10.25687
 Alpha  occ. eigenvalues --  -10.25681 -10.25632 -10.25632 -10.25423 -10.25280
 Alpha  occ. eigenvalues --  -10.25181 -10.24955 -10.24718 -10.23921 -10.23752
 Alpha  occ. eigenvalues --  -10.23582 -10.23525  -1.12970  -1.12409  -0.94211
 Alpha  occ. eigenvalues --   -0.93213  -0.92766  -0.91571  -0.90334  -0.89734
 Alpha  occ. eigenvalues --   -0.87557  -0.87410  -0.86956  -0.85919  -0.85005
 Alpha  occ. eigenvalues --   -0.83591  -0.82131  -0.80627  -0.80318  -0.79578
 Alpha  occ. eigenvalues --   -0.77134  -0.76626  -0.76516  -0.76276  -0.75747
 Alpha  occ. eigenvalues --   -0.75473  -0.75093  -0.74480  -0.73337  -0.70919
 Alpha  occ. eigenvalues --   -0.69210  -0.68177  -0.66521  -0.65660  -0.64757
 Alpha  occ. eigenvalues --   -0.63325  -0.62503  -0.61161  -0.60735  -0.60328
 Alpha  occ. eigenvalues --   -0.59634  -0.59336  -0.58612  -0.57985  -0.56721
 Alpha  occ. eigenvalues --   -0.56286  -0.55949  -0.55749  -0.54484  -0.53997
 Alpha  occ. eigenvalues --   -0.53417  -0.52633  -0.52136  -0.51782  -0.51360
 Alpha  occ. eigenvalues --   -0.50856  -0.50091  -0.49833  -0.49454  -0.49140
 Alpha  occ. eigenvalues --   -0.48918  -0.48659  -0.48398  -0.48264  -0.47974
 Alpha  occ. eigenvalues --   -0.47729  -0.47302  -0.47041  -0.46695  -0.46630
 Alpha  occ. eigenvalues --   -0.46381  -0.45929  -0.45676  -0.45529  -0.45206
 Alpha  occ. eigenvalues --   -0.45048  -0.44810  -0.44349  -0.44081  -0.43841
 Alpha  occ. eigenvalues --   -0.43645  -0.43166  -0.42424  -0.42311  -0.42005
 Alpha  occ. eigenvalues --   -0.41760  -0.41514  -0.41338  -0.41192  -0.40716
 Alpha  occ. eigenvalues --   -0.40590  -0.40200  -0.39588  -0.39525  -0.39132
 Alpha  occ. eigenvalues --   -0.38873  -0.38409  -0.38286  -0.37982  -0.37762
 Alpha  occ. eigenvalues --   -0.37323  -0.36909  -0.36476  -0.36099  -0.35975
 Alpha  occ. eigenvalues --   -0.35454  -0.35256  -0.33526  -0.32830  -0.32740
 Alpha  occ. eigenvalues --   -0.32549  -0.29757  -0.28204  -0.25339  -0.22782
 Alpha  occ. eigenvalues --   -0.18632
 Alpha virt. eigenvalues --   -0.06231  -0.01423   0.01368   0.05556   0.07430
 Alpha virt. eigenvalues --    0.09529   0.11284   0.11917   0.12287   0.12662
 Alpha virt. eigenvalues --    0.12720   0.13241   0.13682   0.13754   0.13945

 Mulliken charges:
               1
     1  O   -0.527397
     2  O   -0.522061
     3  C   -0.020720
     4  C   -0.005931
     5  C   -0.191939
     6  C   -0.204149
     7  C    0.150345
     8  C    0.169773
     9  C    0.062770
    10  C    0.059480
    11  C   -0.249524
    12  C   -0.201861
    13  C    0.069432
    14  C    0.027429
    15  C   -0.301031
    16  C   -0.290939
    17  C   -0.304016
    18  C   -0.316918
    19  C   -0.082042
    20  C   -0.114192
    21  C   -0.339253
    22  C   -0.384775
    23  C   -0.113437
    24  C   -0.110478
    25  C    0.037937
    26  C    0.097263
    27  C   -0.367871
    28  C   -0.358891
    29  C   -0.119196
    30  C   -0.137084
    31  C   -0.076725
    32  C   -0.071500
    33  C   -0.133358
    34  C   -0.114437
    35  C    0.182938
    36  C    0.121409
    37  C   -0.409918
    38  C   -0.377209
    39  C   -0.132264
    40  C   -0.100771
    41  C   -0.097762
    42  C   -0.110713
    43  H    0.085100
    44  H    0.075944
    45  H    0.087211
    46  H    0.091753
    47  H    0.083219
    48  H    0.084747
    49  H    0.133207
    50  H    0.101511
    51  H    0.122480
    52  H    0.122326
    53  H    0.099422
    54  H    0.110256
    55  H    0.093647
    56  H    0.107442
    57  H    0.105011
    58  H    0.087233
    59  H    0.089822
    60  H    0.106908
    61  H    0.109379
    62  H    0.096036
    63  H    0.078088
    64  H    0.111486
    65  H    0.084612
    66  H    0.096482
    67  H    0.094114
    68  H    0.120908
    69  H    0.080403
    70  H    0.113885
    71  H    0.131808
    72  H    0.094124
    73  H    0.293044
    74  H    0.268905
    75  H    0.092791
    76  H    0.099132
    77  H    0.105846
    78  H    0.139716
    79  H    0.113886
    80  H    0.096879
    81  H    0.123706
    82  H    0.120395
    83  H    0.082385
    84  H    0.069022
    85  H    0.075406
    86  H    0.058813
    87  H    0.080325
    88  H    0.051104
    89  H    0.125534
    90  H    0.113311
    91  H    0.120187
    92  H    0.113032
    93  H    0.132836
    94  H    0.108142
    95  H    0.066228
    96  H    0.091730
    97  H    0.077340
    98  H    0.091324
 Sum of Mulliken charges =  -0.00000

 Dipole moment (field-independent basis, Debye):
    X=             -0.0628    Y=             -1.9941    Z=              0.8329  Tot=              2.1620
 Quadrupole moment (field-independent basis, Debye-Ang):
   XX=           -255.1420   YY=           -238.9613   ZZ=           -263.0868
   XY=              5.3869   XZ=             -4.2320   YZ=              2.3721

 Normal termination of Gaussian 16 at Thu Jul 18 21:39:28 2019.
