 Gaussian 16, Revision A.03,
 Gaussian 16:  ES64L-G16RevA.03 25-Dec-2016

 -------------------------------------
 # td=(NStates=1) CAM-B3LYP/6-31G(d,p)
 -------------------------------------

 --
 TD
 --
 Symbolic Z-matrix:
 Charge =  0 Multiplicity = 1

                         Standard orientation:
 ---------------------------------------------------------------------
 Center     Atomic      Atomic             Coordinates (Angstroms)
 Number     Number       Type             X           Y           Z
 ---------------------------------------------------------------------
      1          8           0       14.654853   -2.295597   -0.591819
      2          8           0      -14.661391    2.035692    0.784289
      3          6           0       11.315720   -1.421005    0.911264
      4          6           0      -12.261470   -0.949547    0.546843
      5          6           0       12.753956   -1.714026    0.880198
      6          6           0      -13.628222   -0.138583    0.648924
      7          6           0       13.276457   -1.828769   -0.452576
      8          6           0      -13.474502    1.293270    0.753431
      9          6           0       10.941271   -0.254448   -0.007493
     10          6           0      -11.258739   -0.261773   -0.242918
     11          6           0       13.181493   -0.458648   -1.158928
     12          6           0      -12.642990    1.857181   -0.427635
     13          6           0       11.800559    0.151002   -0.995292
     14          6           0      -11.469802    1.063856   -0.675825
     15          6           0       10.898850   -0.943585    2.369829
     16          6           0       10.302710   -2.645474    0.703731
     17          6           0      -11.800842   -1.248531    1.999638
     18          6           0      -12.671892   -2.336793   -0.158548
     19          6           0        9.610814    0.367519    0.167642
     20          6           0       -9.998935   -0.947765   -0.463354
     21          6           0       11.460703    1.170627   -2.005595
     22          6           0      -10.373871    1.696212   -1.583005
     23          6           0        9.318117    1.691541    0.059966
     24          6           0       -8.742449   -0.472157   -0.254533
     25          6           0        8.037619    2.288787    0.235887
     26          6           0       -7.523409   -1.271641   -0.516324
     27          6           0        7.985897    3.819279    0.426475
     28          6           0       -7.715765   -2.726212   -0.856980
     29          6           0        6.913192    1.601281    0.095592
     30          6           0       -6.330302   -0.712526   -0.266351
     31          6           0        5.570851    2.124013    0.253141
     32          6           0       -5.044076   -1.244363   -0.410504
     33          6           0        4.443413    1.264427    0.177611
     34          6           0       -3.938483   -0.418009   -0.246308
     35          6           0        3.099123    1.654487    0.251826
     36          6           0       -2.629946   -0.835531   -0.381520
     37          6           0        2.686882    3.112534    0.448900
     38          6           0       -2.318783   -2.275139   -0.674542
     39          6           0        2.145106    0.678435    0.055584
     40          6           0       -1.585534    0.037361   -0.006741
     41          6           0        0.705729    0.775455    0.111664
     42          6           0       -0.233528   -0.224936   -0.117707
     43          1           0       13.354603   -0.963108    1.448135
     44          1           0       12.976488   -2.630841    1.511868
     45          1           0      -14.211174   -0.473578    1.507250
     46          1           0      -14.140964   -0.409182   -0.121786
     47          1           0       12.624186   -2.454197   -1.210495
     48          1           0      -12.755680    1.587122    1.479227
     49          1           0       13.917661    0.077923   -0.786821
     50          1           0       13.391250   -0.764956   -2.064937
     51          1           0      -13.346898    1.948170   -1.332026
     52          1           0      -12.501610    2.991675   -0.298742
     53          1           0       11.420636   -1.718135    2.955387
     54          1           0        9.849012   -0.804765    2.421074
     55          1           0       11.244991   -0.121194    2.749059
     56          1           0       10.379032   -3.251371   -0.199979
     57          1           0       10.704277   -3.186940    1.733841
     58          1           0        9.171253   -2.673355    1.042793
     59          1           0      -11.515013   -0.257659    2.456346
     60          1           0      -10.734533   -1.767664    2.000627
     61          1           0      -12.490934   -1.897236    2.512519
     62          1           0      -13.642372   -2.681467    0.310775
     63          1           0      -11.996836   -2.952903    0.025475
     64          1           0      -12.856210   -2.116079   -1.114414
     65          1           0        8.762423   -0.420234    0.405779
     66          1           0      -10.207106   -2.102245   -0.623124
     67          1           0       10.313353    1.418327   -1.970402
     68          1           0       12.019407    2.191714   -1.781446
     69          1           0       11.706928    0.842292   -3.036040
     70          1           0      -10.818719    2.285890   -2.346067
     71          1           0       -9.824714    0.920696   -2.287207
     72          1           0       -9.933828    2.382428   -0.938425
     73          1           0       14.541252   -3.033632    0.182251
     74          1           0      -15.465968    1.853722    1.452085
     75          1           0       10.230864    2.340029    0.049875
     76          1           0       -8.768595    0.413087   -0.097277
     77          1           0        9.182418    4.044763    0.391490
     78          1           0        7.526019    4.349455   -0.450060
     79          1           0        7.593779    4.202336    1.524795
     80          1           0       -8.374835   -3.242676   -0.082533
     81          1           0       -8.158763   -2.864895   -1.904867
     82          1           0       -6.769185   -3.215123   -1.005935
     83          1           0        6.881299    0.680577   -0.124215
     84          1           0       -6.367153    0.404925   -0.303474
     85          1           0        5.298864    2.973421    0.617147
     86          1           0       -5.047913   -2.375837   -0.733029
     87          1           0        4.819006    0.155936    0.240408
     88          1           0       -4.276311    0.631219   -0.075235
     89          1           0        3.327469    3.514962    1.462763
     90          1           0        1.526938    3.366116    0.751196
     91          1           0        2.915771    3.696306   -0.288829
     92          1           0       -2.990868   -3.080306   -0.062219
     93          1           0       -2.878186   -2.201050   -1.753461
     94          1           0       -1.170041   -2.475905   -0.778180
     95          1           0        2.361062   -0.270248   -0.277411
     96          1           0       -1.929373    0.903366    0.344883
     97          1           0        0.157878    1.627129    0.220233
     98          1           0        0.198433   -1.224410   -0.461204
 ---------------------------------------------------------------------

 SCF Done:  E(RCAM-B3LYP) =  -1706.85831634     A.U. after   15 cycles

 Excitation energies and oscillator strengths:

 Excited State   1:      Singlet-A      2.1931 eV  565.33 nm  f=3.7718  <S**2>=0.000
     155 ->158        -0.15650
     156 ->157         0.68877
 This state for optimization and/or second-order correction.
 Total Energy, E(TD-HF/TD-DFT) =  -1706.77772098
 Copying the excited state density for this state as the 1-particle RhoCI density.

 The electronic state is 1-A.
 Alpha  occ. eigenvalues --  -19.22411 -19.21287 -10.30393 -10.29326 -10.28675
 Alpha  occ. eigenvalues --  -10.28233 -10.27931 -10.27887 -10.27506 -10.27449
 Alpha  occ. eigenvalues --  -10.27248 -10.27127 -10.26986 -10.26976 -10.26940
 Alpha  occ. eigenvalues --  -10.26918 -10.26825 -10.26762 -10.26459 -10.26347
 Alpha  occ. eigenvalues --  -10.26297 -10.26273 -10.26227 -10.26151 -10.26141
 Alpha  occ. eigenvalues --  -10.26012 -10.25984 -10.25597 -10.25560 -10.25487
 Alpha  occ. eigenvalues --  -10.25483 -10.25281 -10.25199 -10.25177 -10.24992
 Alpha  occ. eigenvalues --  -10.24657 -10.24070 -10.23916 -10.23284 -10.22986
 Alpha  occ. eigenvalues --  -10.22651 -10.22603  -1.07757  -1.07561  -0.94283
 Alpha  occ. eigenvalues --   -0.93795  -0.92577  -0.91893  -0.90931  -0.90215
 Alpha  occ. eigenvalues --   -0.87681  -0.87295  -0.86645  -0.85976  -0.85343
 Alpha  occ. eigenvalues --   -0.83302  -0.82194  -0.80220  -0.79588  -0.78147
 Alpha  occ. eigenvalues --   -0.77335  -0.77075  -0.76594  -0.75945  -0.75863
 Alpha  occ. eigenvalues --   -0.75726  -0.75257  -0.75064  -0.73835  -0.70808
 Alpha  occ. eigenvalues --   -0.68730  -0.67649  -0.66103  -0.64904  -0.64179
 Alpha  occ. eigenvalues --   -0.64039  -0.63605  -0.62738  -0.61869  -0.60390
 Alpha  occ. eigenvalues --   -0.59803  -0.59183  -0.58446  -0.57824  -0.56664
 Alpha  occ. eigenvalues --   -0.56168  -0.55030  -0.54779  -0.54011  -0.53745
 Alpha  occ. eigenvalues --   -0.53378  -0.53128  -0.52951  -0.51991  -0.51511
 Alpha  occ. eigenvalues --   -0.50873  -0.50431  -0.49940  -0.49590  -0.49398
 Alpha  occ. eigenvalues --   -0.49151  -0.48687  -0.48463  -0.48146  -0.47831
 Alpha  occ. eigenvalues --   -0.47648  -0.47593  -0.47441  -0.46902  -0.46739
 Alpha  occ. eigenvalues --   -0.46070  -0.45854  -0.45712  -0.45262  -0.44970
 Alpha  occ. eigenvalues --   -0.44703  -0.44291  -0.44060  -0.43883  -0.43140
 Alpha  occ. eigenvalues --   -0.42863  -0.42549  -0.42492  -0.42203  -0.41938
 Alpha  occ. eigenvalues --   -0.41730  -0.41642  -0.41382  -0.41164  -0.40614
 Alpha  occ. eigenvalues --   -0.40412  -0.40378  -0.40060  -0.39687  -0.39596
 Alpha  occ. eigenvalues --   -0.39510  -0.38727  -0.38663  -0.38365  -0.38176
 Alpha  occ. eigenvalues --   -0.37726  -0.37530  -0.36836  -0.36768  -0.35638
 Alpha  occ. eigenvalues --   -0.34948  -0.34308  -0.33339  -0.32268  -0.32001
 Alpha  occ. eigenvalues --   -0.31762  -0.29644  -0.27781  -0.25729  -0.23302
 Alpha  occ. eigenvalues --   -0.19323
 Alpha virt. eigenvalues --   -0.05830  -0.01045   0.02452   0.05274   0.08056
 Alpha virt. eigenvalues --    0.09751   0.10571   0.10644   0.11422   0.11730
 Alpha virt. eigenvalues --    0.12149   0.12711   0.13049   0.13145   0.13366

 Mulliken charges:
               1
     1  O   -0.563425
     2  O   -0.599411
     3  C   -0.031769
     4  C   -0.059999
     5  C   -0.202612
     6  C   -0.164359
     7  C    0.139643
     8  C    0.210212
     9  C    0.096903
    10  C    0.085216
    11  C   -0.191102
    12  C   -0.254926
    13  C    0.031496
    14  C    0.043092
    15  C   -0.296817
    16  C   -0.295373
    17  C   -0.295215
    18  C   -0.299371
    19  C   -0.123007
    20  C   -0.148874
    21  C   -0.367700
    22  C   -0.367831
    23  C   -0.128768
    24  C   -0.011324
    25  C    0.093936
    26  C    0.091703
    27  C   -0.356365
    28  C   -0.367213
    29  C   -0.067164
    30  C   -0.123593
    31  C   -0.067845
    32  C   -0.081877
    33  C   -0.132881
    34  C   -0.123406
    35  C    0.112118
    36  C    0.098452
    37  C   -0.353837
    38  C   -0.342282
    39  C   -0.113966
    40  C   -0.106630
    41  C   -0.082812
    42  C   -0.083116
    43  H    0.118256
    44  H    0.071996
    45  H    0.075463
    46  H    0.100834
    47  H    0.068586
    48  H    0.081220
    49  H    0.121528
    50  H    0.117326
    51  H    0.109005
    52  H    0.103860
    53  H    0.086371
    54  H    0.113622
    55  H    0.112162
    56  H    0.114273
    57  H    0.071704
    58  H    0.108257
    59  H    0.102093
    60  H    0.082641
    61  H    0.105358
    62  H    0.086025
    63  H    0.108586
    64  H    0.116877
    65  H    0.083702
    66  H    0.067799
    67  H    0.115746
    68  H    0.094851
    69  H    0.105793
    70  H    0.105905
    71  H    0.119426
    72  H    0.127668
    73  H    0.302583
    74  H    0.313974
    75  H    0.099474
    76  H    0.037614
    77  H    0.081653
    78  H    0.130550
    79  H    0.105435
    80  H    0.119591
    81  H    0.115455
    82  H    0.102925
    83  H    0.049772
    84  H    0.075890
    85  H    0.061768
    86  H    0.082459
    87  H    0.082228
    88  H    0.090694
    89  H    0.081159
    90  H    0.103638
    91  H    0.147661
    92  H    0.116376
    93  H    0.101461
    94  H    0.106667
    95  H    0.078666
    96  H    0.075972
    97  H    0.065781
    98  H    0.075717
 Sum of Mulliken charges =  -0.00000

 Dipole moment (field-independent basis, Debye):
    X=             -2.6031    Y=             -0.8435    Z=              1.5619  Tot=              3.1507
 Quadrupole moment (field-independent basis, Debye-Ang):
   XX=           -263.9125   YY=           -247.9673   ZZ=           -262.2032
   XY=              9.7516   XZ=              8.5210   YZ=              0.1098

 Normal termination of Gaussian 16 at Thu Jul 18 14:43:28 2019.
