 Gaussian 16, Revision A.03,
 Gaussian 16:  ES64L-G16RevA.03 25-Dec-2016

 -------------------------------------
 # td=(NStates=1) CAM-B3LYP/6-31G(d,p)
 -------------------------------------

 --
 TD
 --
 Symbolic Z-matrix:
 Charge =  0 Multiplicity = 1

                         Standard orientation:
 ---------------------------------------------------------------------
 Center     Atomic      Atomic             Coordinates (Angstroms)
 Number     Number       Type             X           Y           Z
 ---------------------------------------------------------------------
      1          8           0       14.556756   -2.414279   -0.383965
      2          8           0      -14.771568    1.879195    1.182927
      3          6           0       11.176741   -1.497676    1.026244
      4          6           0      -12.300221   -1.089512    0.772000
      5          6           0       12.649867   -1.978653    1.126333
      6          6           0      -13.709029   -0.376632    0.886651
      7          6           0       13.228455   -1.899844   -0.250827
      8          6           0      -13.587459    1.162497    1.125622
      9          6           0       10.988205   -0.191747    0.077643
     10          6           0      -11.266645   -0.233591   -0.070282
     11          6           0       13.280533   -0.449958   -0.756794
     12          6           0      -12.861538    1.702409   -0.052526
     13          6           0       11.927734    0.074719   -0.682871
     14          6           0      -11.596098    1.008332   -0.448114
     15          6           0       10.628567   -1.188445    2.471939
     16          6           0       10.266282   -2.588286    0.574203
     17          6           0      -11.767042   -1.260359    2.193549
     18          6           0      -12.564702   -2.334268   -0.030340
     19          6           0        9.636004    0.330184    0.261802
     20          6           0      -10.066564   -0.998898   -0.466516
     21          6           0       11.917688    1.414067   -1.554256
     22          6           0      -10.758138    1.796573   -1.409295
     23          6           0        9.343893    1.637648    0.252756
     24          6           0       -8.813814   -0.454168   -0.415899
     25          6           0        8.108000    2.356777    0.258234
     26          6           0       -7.588278   -1.157935   -0.729879
     27          6           0        8.039367    3.699300    0.751506
     28          6           0       -7.689512   -2.572732   -1.197619
     29          6           0        6.887308    1.646700   -0.026081
     30          6           0       -6.382841   -0.544313   -0.619193
     31          6           0        5.517272    2.100274   -0.031951
     32          6           0       -5.009150   -1.121609   -0.727711
     33          6           0        4.537045    1.220306   -0.219055
     34          6           0       -3.918959   -0.381203   -0.600183
     35          6           0        3.182897    1.694911   -0.106103
     36          6           0       -2.580956   -0.763849   -0.743037
     37          6           0        2.822610    3.117154    0.286937
     38          6           0       -2.250774   -2.159619   -0.957827
     39          6           0        2.175222    0.766935   -0.371754
     40          6           0       -1.551603    0.158004   -0.506017
     41          6           0        0.809370    1.063367   -0.400713
     42          6           0       -0.104389   -0.039923   -0.610049
     43          1           0       13.404819   -1.628725    2.087575
     44          1           0       13.015901   -3.094721    1.575129
     45          1           0      -14.263817   -0.856692    1.793456
     46          1           0      -14.281656   -0.698860    0.042475
     47          1           0       12.533169   -2.448982   -0.999680
     48          1           0      -12.857841    1.285942    2.063086
     49          1           0       13.914176    0.140884   -0.274632
     50          1           0       13.498492   -0.774529   -1.890971
     51          1           0      -13.636048    1.946452   -0.930302
     52          1           0      -12.417088    2.800080    0.283966
     53          1           0       10.810096   -2.031449    3.207504
     54          1           0        9.493971   -0.832776    2.358786
     55          1           0       11.194628   -0.210093    3.073620
     56          1           0       10.351356   -2.967006   -0.499107
     57          1           0       10.400651   -3.625466    1.147221
     58          1           0        9.158158   -2.108884    0.588743
     59          1           0      -11.770681   -0.382100    2.682345
     60          1           0      -10.667882   -1.663926    2.193075
     61          1           0      -12.260376   -1.945161    2.812331
     62          1           0      -13.621072   -2.981670    0.318801
     63          1           0      -11.691219   -2.921108    0.090548
     64          1           0      -12.829331   -2.186334   -0.969297
     65          1           0        8.727637   -0.345888    0.679175
     66          1           0       -9.997883   -2.059378   -0.928813
     67          1           0       10.933127    1.640630   -2.009074
     68          1           0       12.396316    2.300635   -1.016296
     69          1           0       12.686391    1.333689   -2.294601
     70          1           0      -11.256068    2.297103   -2.253123
     71          1           0       -9.956402    1.170433   -1.872285
     72          1           0      -10.325940    2.766623   -0.759701
     73          1           0       14.562164   -3.271035    0.041804
     74          1           0      -15.413434    1.458244    1.890255
     75          1           0       10.324366    2.224585    0.212213
     76          1           0       -8.850866    0.622542    0.146739
     77          1           0        9.034189    4.196888    1.048297
     78          1           0        7.582684    4.364704    0.006823
     79          1           0        7.347311    3.637401    1.563378
     80          1           0       -7.495972   -3.388488   -0.230365
     81          1           0       -8.774148   -2.482671   -1.574291
     82          1           0       -6.706813   -2.829054   -2.021671
     83          1           0        6.886929    0.611124   -0.500104
     84          1           0       -6.521214    0.474069   -0.139714
     85          1           0        5.252115    3.149127    0.027196
     86          1           0       -5.062442   -2.037750   -1.053154
     87          1           0        4.777966    0.254409   -0.403911
     88          1           0       -3.936486    0.779978   -0.536698
     89          1           0        3.311230    3.282624    1.318458
     90          1           0        1.816874    3.062517    0.363842
     91          1           0        3.267857    3.852498   -0.390852
     92          1           0       -2.337286   -2.844453   -0.038866
     93          1           0       -2.702482   -2.586889   -1.929149
     94          1           0       -1.184123   -2.099022   -1.199160
     95          1           0        2.587253   -0.053421   -0.705919
     96          1           0       -1.839994    1.023508    0.014263
     97          1           0        0.421044    2.019375   -0.238252
     98          1           0        0.154090   -1.060482   -0.845961
 ---------------------------------------------------------------------

 SCF Done:  E(RCAM-B3LYP) =  -1706.88527666     A.U. after   14 cycles

 Excitation energies and oscillator strengths:

 Excited State   1:      Singlet-A      2.3202 eV  534.36 nm  f=3.5601  <S**2>=0.000
     155 ->158         0.16235
     156 ->157         0.68573
 This state for optimization and/or second-order correction.
 Total Energy, E(TD-HF/TD-DFT) =  -1706.80000953
 Copying the excited state density for this state as the 1-particle RhoCI density.

 The electronic state is 1-A.
 Alpha  occ. eigenvalues --  -19.22471 -19.20822 -10.31117 -10.30588 -10.29238
 Alpha  occ. eigenvalues --  -10.28472 -10.28258 -10.27752 -10.27667 -10.27494
 Alpha  occ. eigenvalues --  -10.27353 -10.27318 -10.27253 -10.27129 -10.27101
 Alpha  occ. eigenvalues --  -10.26931 -10.26823 -10.26750 -10.26733 -10.26659
 Alpha  occ. eigenvalues --  -10.26606 -10.26584 -10.26333 -10.26260 -10.26196
 Alpha  occ. eigenvalues --  -10.26171 -10.25999 -10.25953 -10.25941 -10.25938
 Alpha  occ. eigenvalues --  -10.25866 -10.25842 -10.25613 -10.25523 -10.25437
 Alpha  occ. eigenvalues --  -10.25364 -10.25313 -10.24988 -10.24976 -10.24967
 Alpha  occ. eigenvalues --  -10.24584 -10.23433  -1.09691  -1.09164  -0.94475
 Alpha  occ. eigenvalues --   -0.93372  -0.92907  -0.92209  -0.90804  -0.90430
 Alpha  occ. eigenvalues --   -0.87720  -0.87161  -0.86879  -0.85808  -0.85080
 Alpha  occ. eigenvalues --   -0.83628  -0.82204  -0.80428  -0.79471  -0.78527
 Alpha  occ. eigenvalues --   -0.77536  -0.76671  -0.76379  -0.75592  -0.75076
 Alpha  occ. eigenvalues --   -0.74655  -0.74217  -0.73583  -0.73232  -0.71166
 Alpha  occ. eigenvalues --   -0.69131  -0.67191  -0.65691  -0.64923  -0.63854
 Alpha  occ. eigenvalues --   -0.63408  -0.62783  -0.62234  -0.61750  -0.60157
 Alpha  occ. eigenvalues --   -0.58866  -0.58475  -0.58311  -0.57368  -0.56821
 Alpha  occ. eigenvalues --   -0.56069  -0.54940  -0.54682  -0.54197  -0.53616
 Alpha  occ. eigenvalues --   -0.53376  -0.52933  -0.52245  -0.51702  -0.51391
 Alpha  occ. eigenvalues --   -0.50842  -0.50095  -0.49719  -0.49391  -0.49237
 Alpha  occ. eigenvalues --   -0.49011  -0.48920  -0.48794  -0.48489  -0.47913
 Alpha  occ. eigenvalues --   -0.47550  -0.47445  -0.46784  -0.46698  -0.46143
 Alpha  occ. eigenvalues --   -0.46106  -0.45849  -0.45570  -0.45398  -0.44881
 Alpha  occ. eigenvalues --   -0.44493  -0.44142  -0.44051  -0.43766  -0.43369
 Alpha  occ. eigenvalues --   -0.42917  -0.42872  -0.42596  -0.42491  -0.42087
 Alpha  occ. eigenvalues --   -0.41593  -0.41532  -0.41436  -0.41109  -0.40733
 Alpha  occ. eigenvalues --   -0.40021  -0.39604  -0.39441  -0.39321  -0.38617
 Alpha  occ. eigenvalues --   -0.38482  -0.38116  -0.38035  -0.37835  -0.37687
 Alpha  occ. eigenvalues --   -0.37368  -0.36797  -0.36528  -0.36256  -0.35645
 Alpha  occ. eigenvalues --   -0.35120  -0.34186  -0.32573  -0.32260  -0.31823
 Alpha  occ. eigenvalues --   -0.31563  -0.30807  -0.29133  -0.26424  -0.23818
 Alpha  occ. eigenvalues --   -0.20044
 Alpha virt. eigenvalues --   -0.05674  -0.01185   0.02107   0.05647   0.07533
 Alpha virt. eigenvalues --    0.09434   0.10592   0.11074   0.11253   0.11571
 Alpha virt. eigenvalues --    0.11751   0.12178   0.12384   0.13376   0.13605

 Mulliken charges:
               1
     1  O   -0.570230
     2  O   -0.558203
     3  C   -0.036852
     4  C   -0.007572
     5  C   -0.183684
     6  C   -0.205173
     7  C    0.169457
     8  C    0.202434
     9  C    0.151096
    10  C    0.040069
    11  C   -0.187951
    12  C   -0.208843
    13  C   -0.002081
    14  C    0.080205
    15  C   -0.268327
    16  C   -0.266513
    17  C   -0.300879
    18  C   -0.291311
    19  C   -0.116661
    20  C   -0.148811
    21  C   -0.371301
    22  C   -0.353814
    23  C   -0.122085
    24  C   -0.091400
    25  C    0.096896
    26  C    0.098608
    27  C   -0.384504
    28  C   -0.332799
    29  C   -0.154069
    30  C   -0.130452
    31  C   -0.074566
    32  C   -0.077921
    33  C   -0.079896
    34  C   -0.083365
    35  C    0.059681
    36  C    0.112921
    37  C   -0.352735
    38  C   -0.369748
    39  C   -0.075870
    40  C   -0.133896
    41  C   -0.105196
    42  C   -0.100306
    43  H    0.078610
    44  H    0.042833
    45  H    0.064607
    46  H    0.099328
    47  H    0.077548
    48  H    0.059801
    49  H    0.129653
    50  H    0.110726
    51  H    0.112827
    52  H    0.078950
    53  H    0.102925
    54  H    0.087621
    55  H    0.061033
    56  H    0.095169
    57  H    0.091187
    58  H    0.080742
    59  H    0.113565
    60  H    0.085205
    61  H    0.105656
    62  H    0.049143
    63  H    0.109225
    64  H    0.125925
    65  H    0.088865
    66  H    0.094940
    67  H    0.121937
    68  H    0.103098
    69  H    0.103238
    70  H    0.113294
    71  H    0.122861
    72  H    0.077747
    73  H    0.297636
    74  H    0.310508
    75  H    0.088900
    76  H    0.093723
    77  H    0.109266
    78  H    0.123549
    79  H    0.140109
    80  H    0.099254
    81  H    0.104172
    82  H    0.086735
    83  H    0.083776
    84  H    0.069256
    85  H    0.081382
    86  H    0.069807
    87  H    0.080586
    88  H    0.077086
    89  H    0.114035
    90  H    0.108934
    91  H    0.127865
    92  H    0.126139
    93  H    0.104965
    94  H    0.098800
    95  H    0.070239
    96  H    0.082983
    97  H    0.103669
    98  H    0.094013
 Sum of Mulliken charges =  -0.00000

 Dipole moment (field-independent basis, Debye):
    X=             -0.3836    Y=             -0.8093    Z=              1.3645  Tot=              1.6322
 Quadrupole moment (field-independent basis, Debye-Ang):
   XX=           -280.6688   YY=           -247.7333   ZZ=           -262.7491
   XY=             14.1847   XZ=             -1.5677   YZ=              0.7922

 Normal termination of Gaussian 16 at Thu Jul 11 01:27:51 2019.
