 Gaussian 16, Revision A.03,
 Gaussian 16:  ES64L-G16RevA.03 25-Dec-2016

 -------------------------------------
 # td=(NStates=1) CAM-B3LYP/6-31G(d,p)
 -------------------------------------

 --
 TD
 --
 Symbolic Z-matrix:
 Charge =  0 Multiplicity = 1

                         Standard orientation:
 ---------------------------------------------------------------------
 Center     Atomic      Atomic             Coordinates (Angstroms)
 Number     Number       Type             X           Y           Z
 ---------------------------------------------------------------------
      1          8           0       14.723172   -2.143811   -0.199878
      2          8           0      -14.663232    1.840711    1.137464
      3          6           0       11.178702   -1.420227    1.072663
      4          6           0      -12.300077   -1.072522    0.742999
      5          6           0       12.681590   -1.726319    1.160946
      6          6           0      -13.591419   -0.257106    0.836336
      7          6           0       13.344882   -1.846502   -0.244751
      8          6           0      -13.394654    1.244389    0.972833
      9          6           0       10.895423   -0.252212    0.015556
     10          6           0      -11.230395   -0.144675   -0.065058
     11          6           0       13.194452   -0.609127   -1.014243
     12          6           0      -12.722050    1.854067   -0.150937
     13          6           0       11.782204    0.082316   -0.864369
     14          6           0      -11.469296    1.009529   -0.516724
     15          6           0       10.835631   -1.045610    2.479801
     16          6           0       10.358560   -2.667780    0.565647
     17          6           0      -11.697642   -1.158032    2.123852
     18          6           0      -12.639437   -2.418590    0.237637
     19          6           0        9.614133    0.362356    0.343185
     20          6           0      -10.026041   -0.965917   -0.412867
     21          6           0       11.535674    1.075307   -1.959454
     22          6           0      -10.589870    1.693962   -1.557483
     23          6           0        9.363350    1.734926    0.218855
     24          6           0       -8.669531   -0.589879   -0.541799
     25          6           0        7.925433    2.270147    0.351893
     26          6           0       -7.569966   -1.261450   -0.766863
     27          6           0        7.876569    3.708892    0.631751
     28          6           0       -7.576232   -2.722768   -1.254969
     29          6           0        6.811535    1.543205   -0.013669
     30          6           0       -6.415282   -0.548879   -0.624597
     31          6           0        5.533846    2.080065    0.039351
     32          6           0       -5.100854   -1.026035   -0.880626
     33          6           0        4.385923    1.221537   -0.168641
     34          6           0       -3.891556   -0.369391   -0.534908
     35          6           0        3.011976    1.738524   -0.071354
     36          6           0       -2.571231   -0.775754   -0.510363
     37          6           0        2.851529    3.173308    0.325774
     38          6           0       -2.308512   -2.177359   -0.878504
     39          6           0        1.980208    0.836831   -0.327005
     40          6           0       -1.555197    0.101418   -0.186203
     41          6           0        0.711613    1.031907   -0.236854
     42          6           0       -0.237611   -0.140772   -0.357085
     43          1           0       13.289552   -0.992670    1.689785
     44          1           0       12.971796   -2.746265    1.713666
     45          1           0      -14.277452   -0.639010    1.655718
     46          1           0      -14.083041   -0.432788   -0.124317
     47          1           0       12.919318   -2.616763   -0.786503
     48          1           0      -12.748637    1.521619    1.788598
     49          1           0       13.898753    0.154126   -0.727974
     50          1           0       13.414574   -0.647084   -2.080310
     51          1           0      -13.244620    1.519439   -1.214220
     52          1           0      -12.487677    2.939729   -0.142211
     53          1           0       10.804719   -1.970753    3.092557
     54          1           0        9.825201   -0.865585    2.521590
     55          1           0       11.406193   -0.354986    2.859937
     56          1           0       10.382221   -3.005394   -0.582440
     57          1           0       10.491467   -3.609284    1.252569
     58          1           0        9.205163   -2.579521    0.971632
     59          1           0      -11.301222   -0.254676    2.693299
     60          1           0      -10.933962   -1.903864    2.306227
     61          1           0      -12.427590   -1.584741    2.840284
     62          1           0      -13.364907   -2.871496    0.831470
     63          1           0      -11.845104   -3.150799    0.479270
     64          1           0      -12.666452   -2.582636   -0.767185
     65          1           0        8.937374   -0.360534    0.944888
     66          1           0      -10.570786   -2.057020   -0.597695
     67          1           0       10.653875    1.383379   -1.930160
     68          1           0       12.135851    2.047163   -1.620967
     69          1           0       11.996170    0.646306   -2.984822
     70          1           0      -11.248769    2.230745   -2.344462
     71          1           0       -9.836938    0.942150   -1.991103
     72          1           0      -10.209842    2.523851   -0.932496
     73          1           0       14.790767   -2.879799    0.266758
     74          1           0      -14.778667    1.920520    2.306801
     75          1           0       10.217738    2.292244    0.277129
     76          1           0       -8.758144    0.709763   -0.420769
     77          1           0        8.797606    4.326984    0.447721
     78          1           0        7.000826    4.142493   -0.099075
     79          1           0        7.417221    3.977594    1.691185
     80          1           0       -7.763061   -3.527136   -0.318847
     81          1           0       -8.525451   -2.936702   -2.123132
     82          1           0       -6.578866   -2.963561   -1.477195
     83          1           0        6.847504    0.486828   -0.564620
     84          1           0       -6.557002    0.543611   -0.232808
     85          1           0        5.501109    3.120256    0.688313
     86          1           0       -4.753063   -2.193880   -0.823737
     87          1           0        4.573439    0.264563   -0.461981
     88          1           0       -3.809750    0.649305   -0.441348
     89          1           0        3.373363    3.355881    1.322578
     90          1           0        1.764685    3.518681    0.210658
     91          1           0        3.415134    3.741196   -0.321761
     92          1           0       -2.518457   -2.601280    0.153165
     93          1           0       -2.847541   -2.521857   -1.829625
     94          1           0       -1.191565   -2.763653   -1.246740
     95          1           0        2.166652   -0.102391   -0.585331
     96          1           0       -1.825673    1.078043   -0.030512
     97          1           0        0.302815    1.813709   -0.019656
     98          1           0        0.275348   -1.103932   -0.561007
 ---------------------------------------------------------------------

 SCF Done:  E(RCAM-B3LYP) =  -1706.75061698     A.U. after   16 cycles

 Excitation energies and oscillator strengths:

 Excited State   1:      Singlet-A      1.6965 eV  730.81 nm  f=3.7163  <S**2>=0.000
     155 ->158         0.12310
     156 ->157         0.70639
     156 <-157        -0.14105
 This state for optimization and/or second-order correction.
 Total Energy, E(TD-HF/TD-DFT) =  -1706.68827084
 Copying the excited state density for this state as the 1-particle RhoCI density.

 The electronic state is 1-A.
 Alpha  occ. eigenvalues --  -19.22121 -19.19839 -10.29358 -10.28983 -10.28266
 Alpha  occ. eigenvalues --  -10.28086 -10.27978 -10.27926 -10.27760 -10.27700
 Alpha  occ. eigenvalues --  -10.27595 -10.27386 -10.27375 -10.27249 -10.27240
 Alpha  occ. eigenvalues --  -10.27068 -10.26974 -10.26962 -10.26884 -10.26822
 Alpha  occ. eigenvalues --  -10.26658 -10.26406 -10.26289 -10.26282 -10.26238
 Alpha  occ. eigenvalues --  -10.26166 -10.25937 -10.25929 -10.25777 -10.25479
 Alpha  occ. eigenvalues --  -10.25443 -10.25332 -10.25136 -10.25076 -10.24656
 Alpha  occ. eigenvalues --  -10.24652 -10.24570 -10.24385 -10.24111 -10.24080
 Alpha  occ. eigenvalues --  -10.23681 -10.22754  -1.11544  -1.07213  -0.93687
 Alpha  occ. eigenvalues --   -0.93574  -0.93252  -0.92039  -0.91322  -0.90194
 Alpha  occ. eigenvalues --   -0.88055  -0.87571  -0.86968  -0.85425  -0.84397
 Alpha  occ. eigenvalues --   -0.83235  -0.81810  -0.80259  -0.79689  -0.78543
 Alpha  occ. eigenvalues --   -0.77161  -0.76940  -0.75926  -0.75757  -0.75638
 Alpha  occ. eigenvalues --   -0.75472  -0.75227  -0.74879  -0.72846  -0.70834
 Alpha  occ. eigenvalues --   -0.69042  -0.67430  -0.66102  -0.65524  -0.65263
 Alpha  occ. eigenvalues --   -0.64282  -0.63183  -0.62373  -0.60601  -0.59296
 Alpha  occ. eigenvalues --   -0.59012  -0.58666  -0.58406  -0.57027  -0.56136
 Alpha  occ. eigenvalues --   -0.55326  -0.54821  -0.54324  -0.54216  -0.53573
 Alpha  occ. eigenvalues --   -0.53267  -0.52810  -0.52664  -0.52211  -0.51495
 Alpha  occ. eigenvalues --   -0.50550  -0.50449  -0.50187  -0.49721  -0.49090
 Alpha  occ. eigenvalues --   -0.48759  -0.48709  -0.48419  -0.48225  -0.47952
 Alpha  occ. eigenvalues --   -0.47682  -0.46909  -0.46678  -0.46353  -0.45828
 Alpha  occ. eigenvalues --   -0.45710  -0.45538  -0.45462  -0.45085  -0.44489
 Alpha  occ. eigenvalues --   -0.44364  -0.43986  -0.43899  -0.43615  -0.43244
 Alpha  occ. eigenvalues --   -0.42907  -0.42601  -0.42331  -0.42141  -0.41965
 Alpha  occ. eigenvalues --   -0.41622  -0.41339  -0.41089  -0.40670  -0.40494
 Alpha  occ. eigenvalues --   -0.40387  -0.40350  -0.40051  -0.39925  -0.39154
 Alpha  occ. eigenvalues --   -0.39097  -0.39053  -0.38514  -0.38015  -0.37580
 Alpha  occ. eigenvalues --   -0.36873  -0.36483  -0.36281  -0.36138  -0.35540
 Alpha  occ. eigenvalues --   -0.34814  -0.34356  -0.33016  -0.32598  -0.31861
 Alpha  occ. eigenvalues --   -0.31777  -0.29829  -0.28666  -0.25656  -0.23048
 Alpha  occ. eigenvalues --   -0.17707
 Alpha virt. eigenvalues --   -0.07609  -0.01224   0.01899   0.05694   0.07041
 Alpha virt. eigenvalues --    0.08468   0.10588   0.11133   0.11777   0.11803
 Alpha virt. eigenvalues --    0.11901   0.12376   0.12860   0.13414   0.13560

 Mulliken charges:
               1
     1  O   -0.539558
     2  O   -0.555350
     3  C   -0.020623
     4  C    0.001817
     5  C   -0.194245
     6  C   -0.171717
     7  C    0.161593
     8  C    0.175290
     9  C    0.099216
    10  C    0.046763
    11  C   -0.205588
    12  C   -0.198665
    13  C   -0.002772
    14  C    0.025945
    15  C   -0.282510
    16  C   -0.303718
    17  C   -0.303510
    18  C   -0.334403
    19  C   -0.109034
    20  C   -0.118668
    21  C   -0.322548
    22  C   -0.362211
    23  C   -0.138821
    24  C   -0.146586
    25  C    0.088210
    26  C    0.162273
    27  C   -0.385227
    28  C   -0.333081
    29  C   -0.095648
    30  C   -0.116115
    31  C   -0.104688
    32  C   -0.126667
    33  C   -0.114613
    34  C   -0.106938
    35  C    0.085876
    36  C    0.114553
    37  C   -0.374671
    38  C   -0.376652
    39  C   -0.070127
    40  C   -0.121243
    41  C   -0.028869
    42  C   -0.095035
    43  H    0.105559
    44  H    0.058747
    45  H    0.080021
    46  H    0.101110
    47  H    0.084165
    48  H    0.082809
    49  H    0.121663
    50  H    0.102557
    51  H    0.093371
    52  H    0.107555
    53  H    0.093168
    54  H    0.096593
    55  H    0.117879
    56  H    0.111796
    57  H    0.089670
    58  H    0.075024
    59  H    0.099651
    60  H    0.107700
    61  H    0.078270
    62  H    0.116203
    63  H    0.101746
    64  H    0.124970
    65  H    0.094941
    66  H    0.057668
    67  H    0.122357
    68  H    0.089061
    69  H    0.094610
    70  H    0.098635
    71  H    0.130122
    72  H    0.113564
    73  H    0.284969
    74  H    0.293727
    75  H    0.101333
    76  H    0.070751
    77  H    0.118250
    78  H    0.100278
    79  H    0.107843
    80  H    0.089963
    81  H    0.095481
    82  H    0.126121
    83  H    0.086485
    84  H    0.093742
    85  H    0.080338
    86  H    0.079595
    87  H    0.084185
    88  H    0.068117
    89  H    0.121841
    90  H    0.102245
    91  H    0.141240
    92  H    0.136195
    93  H    0.127457
    94  H    0.069875
    95  H    0.061725
    96  H    0.081871
    97  H    0.033390
    98  H    0.090366
 Sum of Mulliken charges =  -0.00000

 Dipole moment (field-independent basis, Debye):
    X=              0.4404    Y=             -0.9689    Z=              2.3841  Tot=              2.6109
 Quadrupole moment (field-independent basis, Debye-Ang):
   XX=           -299.3185   YY=           -241.5008   ZZ=           -257.9339
   XY=              3.6926   XZ=             -7.7259   YZ=              3.8515

 Normal termination of Gaussian 16 at Thu Jul 18 00:58:36 2019.
