 Gaussian 16, Revision A.03,
 Gaussian 16:  ES64L-G16RevA.03 25-Dec-2016

 -------------------------------------
 # td=(NStates=1) CAM-B3LYP/6-31G(d,p)
 -------------------------------------

 --
 TD
 --
 Symbolic Z-matrix:
 Charge =  0 Multiplicity = 1

                         Standard orientation:
 ---------------------------------------------------------------------
 Center     Atomic      Atomic             Coordinates (Angstroms)
 Number     Number       Type             X           Y           Z
 ---------------------------------------------------------------------
      1          8           0       14.708992   -2.332890   -0.264355
      2          8           0      -14.816438    1.788685    0.811524
      3          6           0       11.214406   -1.419155    0.891730
      4          6           0      -12.341730   -1.006259    0.660623
      5          6           0       12.663760   -1.789734    0.954663
      6          6           0      -13.679146   -0.315600    0.702611
      7          6           0       13.341347   -1.931200   -0.326276
      8          6           0      -13.583141    1.134761    0.896799
      9          6           0       11.049199   -0.318103   -0.036876
     10          6           0      -11.297931   -0.258927   -0.136723
     11          6           0       13.260504   -0.551078   -1.033287
     12          6           0      -12.798839    1.791991   -0.289562
     13          6           0       11.939818    0.087468   -0.910983
     14          6           0      -11.526350    1.014279   -0.682486
     15          6           0       10.856482   -1.087481    2.397040
     16          6           0       10.394643   -2.760649    0.557992
     17          6           0      -11.792944   -1.138753    2.034677
     18          6           0      -12.626497   -2.422438    0.092347
     19          6           0        9.693512    0.327469    0.075793
     20          6           0      -10.035282   -0.975918   -0.466538
     21          6           0       11.759904    1.167349   -1.747302
     22          6           0      -10.676003    1.746188   -1.655977
     23          6           0        9.359770    1.583640    0.045431
     24          6           0       -8.805902   -0.419534   -0.383032
     25          6           0        8.059823    2.324526    0.147445
     26          6           0       -7.557973   -1.157277   -0.589126
     27          6           0        7.958904    3.800230    0.629492
     28          6           0       -7.722642   -2.687110   -0.945156
     29          6           0        6.885366    1.673521   -0.150276
     30          6           0       -6.268683   -0.501487   -0.403946
     31          6           0        5.588799    2.257594    0.223447
     32          6           0       -5.006123   -1.112594   -0.558768
     33          6           0        4.490443    1.443391   -0.063171
     34          6           0       -3.851574   -0.368038   -0.310075
     35          6           0        3.073530    1.779161    0.205736
     36          6           0       -2.578885   -0.849936   -0.340569
     37          6           0        2.662689    3.126771    0.658502
     38          6           0       -2.380752   -2.208704   -0.960301
     39          6           0        2.131700    0.794519   -0.195648
     40          6           0       -1.527203    0.029430   -0.134841
     41          6           0        0.788437    0.850813    0.082157
     42          6           0       -0.196412   -0.144523   -0.263029
     43          1           0       13.346100   -1.185532    1.401590
     44          1           0       12.735407   -2.747355    1.598623
     45          1           0      -14.326533   -0.761470    1.456994
     46          1           0      -14.248037   -0.482177   -0.290398
     47          1           0       12.603165   -2.566873   -1.019659
     48          1           0      -13.138192    1.494478    1.761580
     49          1           0       14.201807    0.156974   -0.817246
     50          1           0       13.266355   -0.557971   -2.050351
     51          1           0      -13.809845    1.840040   -1.039583
     52          1           0      -12.641233    2.930676   -0.094410
     53          1           0       11.043626   -1.771156    3.076979
     54          1           0        9.902104   -0.752456    2.553752
     55          1           0       11.652737   -0.181139    2.532925
     56          1           0       10.795577   -3.019155   -0.196156
     57          1           0       10.635214   -3.371819    1.347098
     58          1           0        9.382298   -2.391672    0.513903
     59          1           0      -11.621468   -0.061557    2.445141
     60          1           0      -10.829186   -1.695457    2.188187
     61          1           0      -12.330228   -1.840231    2.614113
     62          1           0      -13.560638   -2.609075    0.732679
     63          1           0      -11.889299   -3.309657    0.212453
     64          1           0      -13.130399   -2.432259   -0.917715
     65          1           0        8.911230   -0.324492    0.502900
     66          1           0       -9.953492   -1.999473   -0.507954
     67          1           0       10.674184    1.634856   -2.161956
     68          1           0       12.160041    2.130782   -1.403229
     69          1           0       12.191174    0.998232   -2.865728
     70          1           0      -11.231011    2.119320   -2.436887
     71          1           0       -9.807933    1.090068   -2.039813
     72          1           0      -10.386364    2.540272   -0.911020
     73          1           0       14.678872   -3.064752    0.377598
     74          1           0      -15.213187    1.557381    1.596461
     75          1           0       10.268054    2.210617   -0.265912
     76          1           0       -8.727991    0.606388   -0.267649
     77          1           0        8.951895    3.961103    1.165474
     78          1           0        7.664678    4.481055   -0.194800
     79          1           0        7.072614    3.609974    1.456091
     80          1           0       -8.219662   -3.135917   -0.053959
     81          1           0       -8.253779   -2.844825   -1.842958
     82          1           0       -6.758096   -3.228076   -1.278189
     83          1           0        6.807506    0.613318   -0.511457
     84          1           0       -6.386201    0.530040   -0.196513
     85          1           0        5.430572    3.398145    0.309168
     86          1           0       -4.877653   -2.082189   -0.823862
     87          1           0        4.470356    0.475012   -0.318237
     88          1           0       -3.973222    0.680672   -0.070556
     89          1           0        2.997821    3.322974    1.613665
     90          1           0        1.539246    3.310300    0.808813
     91          1           0        3.024709    4.061773   -0.047948
     92          1           0       -3.426760   -2.805433   -0.456649
     93          1           0       -2.657226   -2.420229   -2.000634
     94          1           0       -1.308841   -2.624172   -0.625738
     95          1           0        2.765888   -0.162933   -0.600705
     96          1           0       -1.703443    1.179594   -0.247319
     97          1           0        0.325438    1.931265    0.519939
     98          1           0        0.256688   -1.133771   -0.643524
 ---------------------------------------------------------------------

 SCF Done:  E(RCAM-B3LYP) =  -1706.87590028     A.U. after   15 cycles

 Excitation energies and oscillator strengths:

 Excited State   1:      Singlet-A      2.0031 eV  618.96 nm  f=3.6388  <S**2>=0.000
     155 ->158         0.13095
     156 ->157         0.69951
     156 <-157        -0.11044
 This state for optimization and/or second-order correction.
 Total Energy, E(TD-HF/TD-DFT) =  -1706.80228738
 Copying the excited state density for this state as the 1-particle RhoCI density.

 The electronic state is 1-A.
 Alpha  occ. eigenvalues --  -19.22406 -19.20841 -10.31122 -10.29335 -10.28449
 Alpha  occ. eigenvalues --  -10.28342 -10.28182 -10.27973 -10.27771 -10.27493
 Alpha  occ. eigenvalues --  -10.27450 -10.27419 -10.27345 -10.27088 -10.27085
 Alpha  occ. eigenvalues --  -10.26912 -10.26895 -10.26858 -10.26554 -10.26530
 Alpha  occ. eigenvalues --  -10.26484 -10.26437 -10.26342 -10.26251 -10.26230
 Alpha  occ. eigenvalues --  -10.26194 -10.25983 -10.25727 -10.25706 -10.25528
 Alpha  occ. eigenvalues --  -10.25391 -10.25309 -10.25296 -10.25211 -10.25205
 Alpha  occ. eigenvalues --  -10.25132 -10.25006 -10.24873 -10.24818 -10.24118
 Alpha  occ. eigenvalues --  -10.23710 -10.22250  -1.12146  -1.10147  -0.95702
 Alpha  occ. eigenvalues --   -0.94073  -0.92493  -0.91274  -0.89842  -0.89518
 Alpha  occ. eigenvalues --   -0.89052  -0.87493  -0.86766  -0.85857  -0.84521
 Alpha  occ. eigenvalues --   -0.83078  -0.82125  -0.80773  -0.79721  -0.78389
 Alpha  occ. eigenvalues --   -0.78160  -0.76962  -0.76599  -0.76061  -0.76049
 Alpha  occ. eigenvalues --   -0.75468  -0.75298  -0.74541  -0.73017  -0.70914
 Alpha  occ. eigenvalues --   -0.68289  -0.67172  -0.66121  -0.65633  -0.64454
 Alpha  occ. eigenvalues --   -0.64138  -0.63161  -0.61313  -0.60551  -0.60480
 Alpha  occ. eigenvalues --   -0.59574  -0.59211  -0.58654  -0.57609  -0.56527
 Alpha  occ. eigenvalues --   -0.56086  -0.55717  -0.55032  -0.54528  -0.54063
 Alpha  occ. eigenvalues --   -0.53262  -0.52662  -0.52459  -0.51867  -0.51430
 Alpha  occ. eigenvalues --   -0.50800  -0.50315  -0.50138  -0.49873  -0.49573
 Alpha  occ. eigenvalues --   -0.49315  -0.49082  -0.48826  -0.48433  -0.48069
 Alpha  occ. eigenvalues --   -0.47835  -0.47707  -0.47299  -0.46872  -0.46469
 Alpha  occ. eigenvalues --   -0.46110  -0.46062  -0.45703  -0.45457  -0.44796
 Alpha  occ. eigenvalues --   -0.44530  -0.44152  -0.44026  -0.43772  -0.43279
 Alpha  occ. eigenvalues --   -0.43011  -0.42485  -0.42342  -0.42106  -0.41966
 Alpha  occ. eigenvalues --   -0.41579  -0.41448  -0.41045  -0.40619  -0.40490
 Alpha  occ. eigenvalues --   -0.40313  -0.40102  -0.39932  -0.39857  -0.39358
 Alpha  occ. eigenvalues --   -0.39148  -0.38594  -0.38402  -0.38235  -0.37595
 Alpha  occ. eigenvalues --   -0.37466  -0.37353  -0.36859  -0.36237  -0.35688
 Alpha  occ. eigenvalues --   -0.35247  -0.34589  -0.34387  -0.33348  -0.32355
 Alpha  occ. eigenvalues --   -0.31942  -0.29394  -0.27996  -0.25917  -0.23568
 Alpha  occ. eigenvalues --   -0.18762
 Alpha virt. eigenvalues --   -0.06729  -0.00591   0.02426   0.05387   0.07500
 Alpha virt. eigenvalues --    0.08988   0.10482   0.11055   0.11902   0.12351
 Alpha virt. eigenvalues --    0.12610   0.12660   0.13038   0.13280   0.13721

 Mulliken charges:
               1
     1  O   -0.551152
     2  O   -0.536089
     3  C   -0.100897
     4  C   -0.015571
     5  C   -0.183182
     6  C   -0.179649
     7  C    0.161252
     8  C    0.142380
     9  C    0.095906
    10  C    0.069354
    11  C   -0.211368
    12  C   -0.229912
    13  C    0.121240
    14  C    0.033428
    15  C   -0.278743
    16  C   -0.252930
    17  C   -0.288760
    18  C   -0.309850
    19  C   -0.106019
    20  C   -0.118755
    21  C   -0.419912
    22  C   -0.343055
    23  C   -0.102951
    24  C   -0.085539
    25  C    0.032090
    26  C    0.063782
    27  C   -0.354084
    28  C   -0.379367
    29  C   -0.087166
    30  C   -0.125045
    31  C   -0.122208
    32  C   -0.069179
    33  C   -0.088420
    34  C   -0.092095
    35  C    0.107285
    36  C    0.116563
    37  C   -0.374792
    38  C   -0.348494
    39  C   -0.112093
    40  C   -0.124710
    41  C   -0.103773
    42  C   -0.089084
    43  H    0.112009
    44  H    0.056505
    45  H    0.087005
    46  H    0.102257
    47  H    0.055014
    48  H    0.088228
    49  H    0.101276
    50  H    0.116116
    51  H    0.097802
    52  H    0.093858
    53  H    0.108266
    54  H    0.106542
    55  H    0.075311
    56  H    0.100785
    57  H    0.102315
    58  H    0.102957
    59  H    0.096601
    60  H    0.100713
    61  H    0.097299
    62  H    0.090392
    63  H    0.098645
    64  H    0.108173
    65  H    0.068496
    66  H    0.072448
    67  H    0.109370
    68  H    0.133787
    69  H    0.081334
    70  H    0.126544
    71  H    0.113219
    72  H    0.112913
    73  H    0.307608
    74  H    0.291802
    75  H    0.065648
    76  H    0.080613
    77  H    0.111981
    78  H    0.133484
    79  H    0.116132
    80  H    0.126761
    81  H    0.134236
    82  H    0.097761
    83  H    0.088999
    84  H    0.081843
    85  H    0.108393
    86  H    0.072443
    87  H    0.069230
    88  H    0.078255
    89  H    0.136299
    90  H    0.100815
    91  H    0.100110
    92  H    0.063792
    93  H    0.142455
    94  H    0.100705
    95  H    0.077191
    96  H    0.085197
    97  H    0.074683
    98  H    0.078949
 Sum of Mulliken charges =  -0.00000

 Dipole moment (field-independent basis, Debye):
    X=             -1.6453    Y=             -0.9496    Z=              1.6871  Tot=              2.5407
 Quadrupole moment (field-independent basis, Debye-Ang):
   XX=           -275.3542   YY=           -244.9626   ZZ=           -260.4990
   XY=             11.9324   XZ=             -5.0909   YZ=              0.1495

 Normal termination of Gaussian 16 at Wed Jul 17 23:37:22 2019.
