 Gaussian 16, Revision A.03,
 Gaussian 16:  ES64L-G16RevA.03 25-Dec-2016

 -------------------------------------
 # td=(NStates=1) CAM-B3LYP/6-31G(d,p)
 -------------------------------------

 --
 TD
 --
 Symbolic Z-matrix:
 Charge =  0 Multiplicity = 1

                         Standard orientation:
 ---------------------------------------------------------------------
 Center     Atomic      Atomic             Coordinates (Angstroms)
 Number     Number       Type             X           Y           Z
 ---------------------------------------------------------------------
      1          8           0       14.588512   -2.505899   -0.256856
      2          8           0      -14.822702    1.686994    0.984957
      3          6           0       11.137200   -1.500168    0.962983
      4          6           0      -12.259744   -1.127838    0.716945
      5          6           0       12.656551   -1.884588    1.092938
      6          6           0      -13.597939   -0.337947    0.699618
      7          6           0       13.285007   -1.969904   -0.326289
      8          6           0      -13.524181    1.114017    0.919850
      9          6           0       10.950437   -0.309557   -0.034238
     10          6           0      -11.285337   -0.361779   -0.176693
     11          6           0       13.255497   -0.627176   -0.966558
     12          6           0      -12.822875    1.672311   -0.282503
     13          6           0       11.889964    0.119153   -0.852994
     14          6           0      -11.530474    0.954525   -0.587231
     15          6           0       10.820604   -1.055057    2.427355
     16          6           0       10.370310   -2.747401    0.446697
     17          6           0      -11.662527   -1.322945    2.136735
     18          6           0      -12.421939   -2.549598    0.165632
     19          6           0        9.582404    0.247532    0.024081
     20          6           0      -10.051058   -1.001754   -0.420454
     21          6           0       11.752315    1.287562   -1.857946
     22          6           0      -10.683143    1.739449   -1.669569
     23          6           0        9.298243    1.605290    0.111902
     24          6           0       -8.780141   -0.439852   -0.247300
     25          6           0        8.023701    2.301827    0.279835
     26          6           0       -7.530012   -1.027057   -0.606381
     27          6           0        8.065332    3.764017    0.569302
     28          6           0       -7.665398   -2.463646   -1.044827
     29          6           0        6.850455    1.516156    0.129861
     30          6           0       -6.288775   -0.476515   -0.130921
     31          6           0        5.643785    2.037762    0.273988
     32          6           0       -5.075056   -0.867233   -0.616466
     33          6           0        4.391733    1.329297   -0.009386
     34          6           0       -3.917623   -0.255595   -0.389088
     35          6           0        3.130013    1.844138    0.065387
     36          6           0       -2.613766   -0.629534   -0.710303
     37          6           0        2.844930    3.261067    0.543129
     38          6           0       -2.272730   -1.983570   -1.289946
     39          6           0        2.089461    0.912785   -0.196875
     40          6           0       -1.646203    0.233608   -0.172467
     41          6           0        0.698428    1.080556   -0.009704
     42          6           0       -0.249418    0.132630   -0.316912
     43          1           0       13.242841   -1.182377    1.608394
     44          1           0       12.695436   -2.823486    1.656625
     45          1           0      -14.318633   -0.752779    1.378271
     46          1           0      -13.994636   -0.595744   -0.292723
     47          1           0       12.590649   -2.601441   -0.961291
     48          1           0      -13.073775    1.154482    1.814023
     49          1           0       14.045882   -0.063918   -0.509843
     50          1           0       13.661583   -0.817320   -1.974209
     51          1           0      -13.522334    1.661062   -1.099315
     52          1           0      -12.684912    2.706509    0.002887
     53          1           0       10.891077   -1.942050    3.085406
     54          1           0        9.628254   -0.999577    2.464397
     55          1           0       11.404533   -0.057624    2.671293
     56          1           0       10.568107   -3.191604   -0.479265
     57          1           0       10.432383   -3.567348    1.151975
     58          1           0        9.251296   -2.348839    0.462373
     59          1           0      -11.187000   -0.593486    2.701870
     60          1           0      -10.723412   -1.929769    1.995763
     61          1           0      -12.383714   -1.828707    2.713441
     62          1           0      -13.360390   -3.007842    0.693964
     63          1           0      -11.508693   -3.107519    0.420506
     64          1           0      -12.600603   -2.737195   -1.003525
     65          1           0        8.632856   -0.362325    0.614443
     66          1           0      -10.177299   -2.097395   -1.008284
     67          1           0       10.714474    1.587211   -2.074465
     68          1           0       12.216247    2.117729   -1.305775
     69          1           0       12.309286    0.921264   -2.676408
     70          1           0      -11.253283    2.168949   -2.320472
     71          1           0       -9.894660    1.258893   -2.394918
     72          1           0      -10.184240    2.370666   -0.865492
     73          1           0       14.438654   -3.357265    0.314414
     74          1           0      -15.492752    1.278210    1.672767
     75          1           0       10.214136    2.304692   -0.069988
     76          1           0       -8.726436    0.602810    0.046108
     77          1           0        9.092269    3.870228    0.739980
     78          1           0        7.722620    4.463860   -0.254074
     79          1           0        7.392070    4.293673    1.415495
     80          1           0       -8.075587   -3.087967   -0.182891
     81          1           0       -8.401383   -2.665495   -2.014109
     82          1           0       -6.598344   -2.686893   -1.625996
     83          1           0        7.170174    0.441779   -0.185253
     84          1           0       -6.274289    0.665770    0.130237
     85          1           0        5.520503    3.044108    0.419321
     86          1           0       -5.175349   -1.945335   -1.093502
     87          1           0        4.613439    0.271181   -0.429794
     88          1           0       -4.135574    0.694208    0.164349
     89          1           0        3.422624    3.396397    1.445151
     90          1           0        1.740881    3.264526    0.865885
     91          1           0        3.203181    4.078990   -0.031295
     92          1           0       -3.121409   -2.794964   -1.042890
     93          1           0       -2.747423   -2.074815   -2.394006
     94          1           0       -1.193695   -2.379436   -1.110515
     95          1           0        2.389782   -0.121798   -0.656035
     96          1           0       -1.983453    1.214113    0.266080
     97          1           0        0.248126    2.060819    0.183855
     98          1           0        0.065237   -0.908389   -0.774877
 ---------------------------------------------------------------------

 SCF Done:  E(RCAM-B3LYP) =  -1706.96089267     A.U. after   16 cycles

 Excitation energies and oscillator strengths:

 Excited State   1:      Singlet-A      1.8191 eV  681.58 nm  f=3.7158  <S**2>=0.000
     155 ->158        -0.14305
     156 ->157         0.69713
     156 <-157        -0.11346
 This state for optimization and/or second-order correction.
 Total Energy, E(TD-HF/TD-DFT) =  -1706.89404337
 Copying the excited state density for this state as the 1-particle RhoCI density.

 The electronic state is 1-A.
 Alpha  occ. eigenvalues --  -19.21619 -19.21075 -10.29650 -10.28890 -10.28668
 Alpha  occ. eigenvalues --  -10.28446 -10.28272 -10.28060 -10.27778 -10.27715
 Alpha  occ. eigenvalues --  -10.27713 -10.27632 -10.27571 -10.27565 -10.27431
 Alpha  occ. eigenvalues --  -10.27284 -10.27203 -10.27148 -10.27051 -10.26811
 Alpha  occ. eigenvalues --  -10.26783 -10.26699 -10.26664 -10.26534 -10.26495
 Alpha  occ. eigenvalues --  -10.26351 -10.26060 -10.26060 -10.25934 -10.25906
 Alpha  occ. eigenvalues --  -10.25845 -10.25823 -10.25779 -10.25318 -10.25221
 Alpha  occ. eigenvalues --  -10.25073 -10.24923 -10.24897 -10.24850 -10.24093
 Alpha  occ. eigenvalues --  -10.23857 -10.23720  -1.08670  -1.07757  -0.93669
 Alpha  occ. eigenvalues --   -0.92886  -0.92555  -0.91719  -0.90453  -0.89796
 Alpha  occ. eigenvalues --   -0.87420  -0.86875  -0.86389  -0.85616  -0.84639
 Alpha  occ. eigenvalues --   -0.83401  -0.82371  -0.79768  -0.79488  -0.78250
 Alpha  occ. eigenvalues --   -0.76703  -0.76393  -0.76219  -0.76070  -0.75953
 Alpha  occ. eigenvalues --   -0.75554  -0.74874  -0.74666  -0.72820  -0.70595
 Alpha  occ. eigenvalues --   -0.68972  -0.67046  -0.65515  -0.64505  -0.64095
 Alpha  occ. eigenvalues --   -0.63628  -0.62542  -0.60824  -0.60275  -0.59879
 Alpha  occ. eigenvalues --   -0.59202  -0.58385  -0.58009  -0.57169  -0.56171
 Alpha  occ. eigenvalues --   -0.55483  -0.55197  -0.54623  -0.54227  -0.53252
 Alpha  occ. eigenvalues --   -0.53073  -0.52611  -0.51855  -0.51665  -0.51448
 Alpha  occ. eigenvalues --   -0.51021  -0.50356  -0.49757  -0.49386  -0.49272
 Alpha  occ. eigenvalues --   -0.49049  -0.48526  -0.48296  -0.48212  -0.47648
 Alpha  occ. eigenvalues --   -0.47442  -0.46937  -0.46669  -0.46549  -0.45987
 Alpha  occ. eigenvalues --   -0.45887  -0.45438  -0.45194  -0.45108  -0.44969
 Alpha  occ. eigenvalues --   -0.43968  -0.43935  -0.43593  -0.43380  -0.43072
 Alpha  occ. eigenvalues --   -0.42793  -0.42698  -0.42498  -0.42207  -0.42068
 Alpha  occ. eigenvalues --   -0.41605  -0.41548  -0.41424  -0.41106  -0.40606
 Alpha  occ. eigenvalues --   -0.40344  -0.40057  -0.39939  -0.39806  -0.39424
 Alpha  occ. eigenvalues --   -0.38962  -0.38797  -0.38646  -0.38581  -0.38038
 Alpha  occ. eigenvalues --   -0.37018  -0.36737  -0.36356  -0.36228  -0.35512
 Alpha  occ. eigenvalues --   -0.34960  -0.34808  -0.34022  -0.32595  -0.32071
 Alpha  occ. eigenvalues --   -0.30742  -0.29863  -0.28198  -0.26489  -0.22720
 Alpha  occ. eigenvalues --   -0.18215
 Alpha virt. eigenvalues --   -0.07049  -0.02187   0.02200   0.05674   0.07166
 Alpha virt. eigenvalues --    0.09700   0.10333   0.11145   0.11164   0.11520
 Alpha virt. eigenvalues --    0.11758   0.12437   0.12482   0.12788   0.13441

 Mulliken charges:
               1
     1  O   -0.564567
     2  O   -0.593506
     3  C   -0.034238
     4  C   -0.013008
     5  C   -0.188380
     6  C   -0.199150
     7  C    0.169082
     8  C    0.210804
     9  C    0.085035
    10  C    0.076755
    11  C   -0.226883
    12  C   -0.219552
    13  C    0.012144
    14  C   -0.009361
    15  C   -0.286742
    16  C   -0.301539
    17  C   -0.305301
    18  C   -0.301682
    19  C   -0.139776
    20  C   -0.143391
    21  C   -0.349965
    22  C   -0.323798
    23  C   -0.119858
    24  C   -0.093197
    25  C    0.094954
    26  C    0.087609
    27  C   -0.371338
    28  C   -0.353571
    29  C   -0.091059
    30  C   -0.125059
    31  C   -0.098983
    32  C   -0.054241
    33  C   -0.122770
    34  C   -0.119206
    35  C    0.115783
    36  C    0.157217
    37  C   -0.377329
    38  C   -0.382765
    39  C   -0.124492
    40  C   -0.136229
    41  C   -0.096396
    42  C   -0.075736
    43  H    0.101409
    44  H    0.070369
    45  H    0.060283
    46  H    0.094961
    47  H    0.063042
    48  H    0.086631
    49  H    0.115477
    50  H    0.110569
    51  H    0.130887
    52  H    0.110255
    53  H    0.104133
    54  H    0.075129
    55  H    0.113762
    56  H    0.123839
    57  H    0.097132
    58  H    0.083323
    59  H    0.113008
    60  H    0.096326
    61  H    0.104024
    62  H    0.089445
    63  H    0.111455
    64  H    0.091296
    65  H    0.079657
    66  H    0.081578
    67  H    0.124980
    68  H    0.121201
    69  H    0.114873
    70  H    0.121762
    71  H    0.104733
    72  H    0.117261
    73  H    0.311108
    74  H    0.309115
    75  H    0.073942
    76  H    0.078422
    77  H    0.117491
    78  H    0.118923
    79  H    0.103413
    80  H    0.137839
    81  H    0.095142
    82  H    0.086299
    83  H    0.089803
    84  H    0.073573
    85  H    0.073965
    86  H    0.055820
    87  H    0.080182
    88  H    0.078711
    89  H    0.126038
    90  H    0.108926
    91  H    0.133367
    92  H    0.112340
    93  H    0.111055
    94  H    0.126635
    95  H    0.085947
    96  H    0.080799
    97  H    0.088351
    98  H    0.063682
 Sum of Mulliken charges =  -0.00000

 Dipole moment (field-independent basis, Debye):
    X=             -2.2650    Y=             -0.9969    Z=              1.0491  Tot=              2.6878
 Quadrupole moment (field-independent basis, Debye-Ang):
   XX=           -276.1986   YY=           -244.3150   ZZ=           -260.6507
   XY=             14.0228   XZ=             -0.4121   YZ=              1.9794

 Normal termination of Gaussian 16 at Fri Jul 19 05:08:00 2019.
