 Gaussian 16, Revision A.03,
 Gaussian 16:  ES64L-G16RevA.03 25-Dec-2016

 -------------------------------------
 # td=(NStates=1) CAM-B3LYP/6-31G(d,p)
 -------------------------------------

 --
 TD
 --
 Symbolic Z-matrix:
 Charge =  0 Multiplicity = 1

                         Standard orientation:
 ---------------------------------------------------------------------
 Center     Atomic      Atomic             Coordinates (Angstroms)
 Number     Number       Type             X           Y           Z
 ---------------------------------------------------------------------
      1          8           0       14.812101   -2.090660   -0.328658
      2          8           0      -14.683958    2.079347    0.974571
      3          6           0       11.326513   -1.424529    0.978351
      4          6           0      -12.446266   -0.960732    0.558196
      5          6           0       12.768666   -1.758661    0.950977
      6          6           0      -13.675880   -0.150060    0.603535
      7          6           0       13.546551   -1.793119   -0.439645
      8          6           0      -13.501227    1.344843    0.873617
      9          6           0       11.070395   -0.197472    0.114415
     10          6           0      -11.365094   -0.225115   -0.167460
     11          6           0       13.366611   -0.427800   -1.015489
     12          6           0      -12.650250    1.876288   -0.220180
     13          6           0       11.943791    0.178303   -0.891917
     14          6           0      -11.588030    1.071116   -0.629299
     15          6           0       10.893844   -1.074850    2.402785
     16          6           0       10.550904   -2.593879    0.404414
     17          6           0      -11.975582   -1.270496    2.065288
     18          6           0      -12.759093   -2.360809   -0.112876
     19          6           0        9.776178    0.334878    0.286234
     20          6           0      -10.136555   -1.044986   -0.387767
     21          6           0       11.678413    1.312919   -1.841295
     22          6           0      -10.560368    1.671185   -1.616378
     23          6           0        9.431074    1.665642    0.053442
     24          6           0       -8.856241   -0.546022   -0.378008
     25          6           0        8.035934    2.150747    0.100593
     26          6           0       -7.681589   -1.272588   -0.609818
     27          6           0        7.896110    3.588765    0.397107
     28          6           0       -7.755278   -2.774696   -1.125481
     29          6           0        6.864788    1.338201    0.134815
     30          6           0       -6.485348   -0.611471   -0.443532
     31          6           0        5.604164    1.867259    0.133845
     32          6           0       -5.210173   -1.126627   -0.485300
     33          6           0        4.449729    1.183590    0.057142
     34          6           0       -4.039953   -0.413582   -0.203604
     35          6           0        3.077280    1.559838    0.145493
     36          6           0       -2.646250   -0.820909   -0.329365
     37          6           0        2.875872    3.026207    0.506555
     38          6           0       -2.374280   -2.258524   -0.724366
     39          6           0        2.131999    0.667403   -0.070383
     40          6           0       -1.669151    0.219772   -0.100417
     41          6           0        0.710914    0.909072   -0.019926
     42          6           0       -0.299794   -0.002684   -0.299381
     43          1           0       13.083944   -1.048070    1.827473
     44          1           0       13.020298   -2.750662    1.431426
     45          1           0      -14.456954   -0.482063    1.467241
     46          1           0      -14.304059   -0.140984   -0.456082
     47          1           0       12.884152   -2.665017   -1.127287
     48          1           0      -12.939535    1.443786    1.823306
     49          1           0       14.111844    0.368168   -0.624341
     50          1           0       13.794765   -0.415584   -2.010856
     51          1           0      -13.323640    1.930263   -1.047779
     52          1           0      -12.329510    2.955526   -0.060162
     53          1           0       10.883545   -1.926559    3.090164
     54          1           0        9.741816   -0.962681    2.532888
     55          1           0       11.444851   -0.271820    2.813121
     56          1           0       10.783371   -2.848904   -0.621372
     57          1           0       10.939404   -3.435967    0.959289
     58          1           0        9.570542   -2.316138    0.716402
     59          1           0      -11.919202   -0.304585    2.555949
     60          1           0      -10.934586   -1.665602    2.234253
     61          1           0      -12.687947   -1.948354    2.728007
     62          1           0      -13.622103   -2.893935    0.427297
     63          1           0      -11.922879   -2.990977    0.225993
     64          1           0      -13.075733   -2.089079   -0.973441
     65          1           0        8.887082   -0.227471    0.672923
     66          1           0      -10.153056   -2.040118   -0.777105
     67          1           0       10.815371    1.604948   -2.131173
     68          1           0       11.891921    2.398963   -1.386284
     69          1           0       12.426341    1.215917   -2.731524
     70          1           0      -11.078893    2.195408   -2.532374
     71          1           0      -10.070062    0.897098   -2.105603
     72          1           0       -9.897675    2.385857   -1.077549
     73          1           0       15.118485   -2.789709    0.069015
     74          1           0      -15.388290    1.538689    1.577723
     75          1           0       10.114034    2.369437    0.001072
     76          1           0       -8.644494    0.497603   -0.027191
     77          1           0        8.947790    4.019673    0.375478
     78          1           0        7.197365    4.258981   -0.289712
     79          1           0        7.256822    3.705873    1.330501
     80          1           0       -8.154282   -3.659994   -0.390431
     81          1           0       -8.372155   -2.749560   -1.940575
     82          1           0       -6.695072   -3.092794   -1.673172
     83          1           0        7.051749    0.334819   -0.119032
     84          1           0       -6.635712    0.363964   -0.205644
     85          1           0        5.658893    3.122024    0.384731
     86          1           0       -5.063093   -2.137042   -0.896532
     87          1           0        4.633368    0.001967   -0.273592
     88          1           0       -4.255930    0.600576    0.140824
     89          1           0        3.585784    3.296639    1.337130
     90          1           0        1.783591    3.200433    0.698774
     91          1           0        3.221135    3.739706   -0.240327
     92          1           0       -2.862811   -2.948092    0.059718
     93          1           0       -2.829092   -2.357630   -1.634898
     94          1           0       -1.303606   -2.372141   -0.790426
     95          1           0        2.528783   -0.341398   -0.383814
     96          1           0       -2.065376    1.254613    0.308785
     97          1           0        0.588671    2.047928    0.247154
     98          1           0        0.054928   -0.923923   -0.605175
 ---------------------------------------------------------------------

 SCF Done:  E(RCAM-B3LYP) =  -1706.96657459     A.U. after   15 cycles

 Excitation energies and oscillator strengths:

 Excited State   1:      Singlet-A      2.1802 eV  568.68 nm  f=3.8848  <S**2>=0.000
     155 ->158         0.18878
     156 ->157         0.67772
 This state for optimization and/or second-order correction.
 Total Energy, E(TD-HF/TD-DFT) =  -1706.88645369
 Copying the excited state density for this state as the 1-particle RhoCI density.

 The electronic state is 1-A.
 Alpha  occ. eigenvalues --  -19.22013 -19.21887 -10.33195 -10.29654 -10.28333
 Alpha  occ. eigenvalues --  -10.28038 -10.27858 -10.27553 -10.27396 -10.27388
 Alpha  occ. eigenvalues --  -10.27196 -10.27149 -10.27024 -10.26841 -10.26782
 Alpha  occ. eigenvalues --  -10.26737 -10.26725 -10.26560 -10.26531 -10.26440
 Alpha  occ. eigenvalues --  -10.26313 -10.26217 -10.26050 -10.25953 -10.25941
 Alpha  occ. eigenvalues --  -10.25911 -10.25898 -10.25805 -10.25769 -10.25766
 Alpha  occ. eigenvalues --  -10.25566 -10.25474 -10.25327 -10.25178 -10.25076
 Alpha  occ. eigenvalues --  -10.25048 -10.24981 -10.24930 -10.24811 -10.24295
 Alpha  occ. eigenvalues --  -10.23866 -10.23545  -1.15853  -1.08643  -0.94376
 Alpha  occ. eigenvalues --   -0.94065  -0.92163  -0.91569  -0.90574  -0.89795
 Alpha  occ. eigenvalues --   -0.87527  -0.87286  -0.86882  -0.85950  -0.84692
 Alpha  occ. eigenvalues --   -0.83242  -0.82035  -0.80440  -0.78860  -0.78433
 Alpha  occ. eigenvalues --   -0.76975  -0.76505  -0.76430  -0.76176  -0.75792
 Alpha  occ. eigenvalues --   -0.75647  -0.75248  -0.74720  -0.73658  -0.71952
 Alpha  occ. eigenvalues --   -0.70581  -0.67855  -0.66710  -0.65655  -0.64541
 Alpha  occ. eigenvalues --   -0.63707  -0.62724  -0.61431  -0.60461  -0.60061
 Alpha  occ. eigenvalues --   -0.59186  -0.58211  -0.58086  -0.57606  -0.56832
 Alpha  occ. eigenvalues --   -0.56029  -0.55653  -0.55150  -0.54770  -0.54164
 Alpha  occ. eigenvalues --   -0.53848  -0.53483  -0.52668  -0.52383  -0.51833
 Alpha  occ. eigenvalues --   -0.51147  -0.50140  -0.49828  -0.49570  -0.49454
 Alpha  occ. eigenvalues --   -0.49141  -0.48625  -0.48500  -0.47749  -0.47392
 Alpha  occ. eigenvalues --   -0.47231  -0.47212  -0.46642  -0.46179  -0.45869
 Alpha  occ. eigenvalues --   -0.45602  -0.45468  -0.45342  -0.44955  -0.44665
 Alpha  occ. eigenvalues --   -0.44564  -0.44368  -0.44027  -0.43590  -0.43563
 Alpha  occ. eigenvalues --   -0.43394  -0.42910  -0.42800  -0.42560  -0.42102
 Alpha  occ. eigenvalues --   -0.42009  -0.41746  -0.41443  -0.41191  -0.41103
 Alpha  occ. eigenvalues --   -0.40781  -0.40479  -0.40066  -0.39630  -0.39572
 Alpha  occ. eigenvalues --   -0.39205  -0.38955  -0.38390  -0.38046  -0.37928
 Alpha  occ. eigenvalues --   -0.37656  -0.36916  -0.36627  -0.36589  -0.35640
 Alpha  occ. eigenvalues --   -0.35151  -0.34597  -0.33898  -0.32700  -0.31750
 Alpha  occ. eigenvalues --   -0.31658  -0.29270  -0.27849  -0.25741  -0.22504
 Alpha  occ. eigenvalues --   -0.19297
 Alpha virt. eigenvalues --   -0.05674  -0.02032   0.02041   0.05324   0.07447
 Alpha virt. eigenvalues --    0.09723   0.10163   0.10830   0.11831   0.12176
 Alpha virt. eigenvalues --    0.12469   0.12898   0.13143   0.13533   0.13803

 Mulliken charges:
               1
     1  O   -0.493254
     2  O   -0.570744
     3  C   -0.030434
     4  C   -0.010108
     5  C   -0.203535
     6  C   -0.200053
     7  C    0.225028
     8  C    0.199421
     9  C    0.091252
    10  C    0.054739
    11  C   -0.218912
    12  C   -0.233021
    13  C    0.057400
    14  C    0.070119
    15  C   -0.322097
    16  C   -0.278237
    17  C   -0.319028
    18  C   -0.279272
    19  C   -0.107412
    20  C   -0.155883
    21  C   -0.351791
    22  C   -0.353409
    23  C   -0.104608
    24  C   -0.093994
    25  C    0.089892
    26  C    0.113994
    27  C   -0.392723
    28  C   -0.367474
    29  C   -0.114984
    30  C   -0.108918
    31  C   -0.054551
    32  C   -0.087957
    33  C   -0.147911
    34  C   -0.110835
    35  C    0.159113
    36  C    0.069233
    37  C   -0.373848
    38  C   -0.358140
    39  C   -0.128520
    40  C   -0.110690
    41  C   -0.094673
    42  C   -0.086869
    43  H    0.073765
    44  H    0.056833
    45  H    0.052748
    46  H    0.069970
    47  H    0.020279
    48  H    0.073016
    49  H    0.115520
    50  H    0.106348
    51  H    0.124408
    52  H    0.108821
    53  H    0.100508
    54  H    0.091958
    55  H    0.121930
    56  H    0.112640
    57  H    0.095756
    58  H    0.096358
    59  H    0.103645
    60  H    0.106882
    61  H    0.081260
    62  H    0.085903
    63  H    0.112877
    64  H    0.109992
    65  H    0.097483
    66  H    0.092204
    67  H    0.136418
    68  H    0.089330
    69  H    0.092655
    70  H    0.085707
    71  H    0.133788
    72  H    0.112595
    73  H    0.289731
    74  H    0.309999
    75  H    0.070471
    76  H    0.081741
    77  H    0.099798
    78  H    0.107369
    79  H    0.133870
    80  H    0.106356
    81  H    0.137902
    82  H    0.086208
    83  H    0.079063
    84  H    0.070553
    85  H    0.048607
    86  H    0.071617
    87  H    0.057024
    88  H    0.074114
    89  H    0.118431
    90  H    0.101313
    91  H    0.129279
    92  H    0.124047
    93  H    0.140175
    94  H    0.111941
    95  H    0.076145
    96  H    0.092613
    97  H    0.068872
    98  H    0.084861
 Sum of Mulliken charges =  -0.00000

 Dipole moment (field-independent basis, Debye):
    X=              2.2406    Y=             -1.8047    Z=              0.7096  Tot=              2.9632
 Quadrupole moment (field-independent basis, Debye-Ang):
   XX=           -236.1854   YY=           -246.9164   ZZ=           -262.7290
   XY=              5.9083   XZ=              1.8878   YZ=              0.3272

 Normal termination of Gaussian 16 at Wed Jul 17 21:56:36 2019.
