 Gaussian 16, Revision A.03,
 Gaussian 16:  ES64L-G16RevA.03 25-Dec-2016

 -------------------------------------
 # td=(NStates=1) CAM-B3LYP/6-31G(d,p)
 -------------------------------------

 --
 TD
 --
 Symbolic Z-matrix:
 Charge =  0 Multiplicity = 1

                         Standard orientation:
 ---------------------------------------------------------------------
 Center     Atomic      Atomic             Coordinates (Angstroms)
 Number     Number       Type             X           Y           Z
 ---------------------------------------------------------------------
      1          8           0       14.752870   -2.234380   -0.154935
      2          8           0      -14.872737    1.759640    1.074377
      3          6           0       11.278827   -1.476844    1.047822
      4          6           0      -12.340146   -1.089946    0.796873
      5          6           0       12.740094   -1.935804    1.099084
      6          6           0      -13.661837   -0.295458    0.840386
      7          6           0       13.364761   -1.828926   -0.315256
      8          6           0      -13.490950    1.151230    1.063915
      9          6           0       10.987062   -0.311698    0.035744
     10          6           0      -11.295563   -0.275540   -0.029696
     11          6           0       13.345446   -0.438790   -0.838582
     12          6           0      -12.816968    1.791977   -0.123180
     13          6           0       11.915942    0.079359   -0.868007
     14          6           0      -11.617732    1.014836   -0.558802
     15          6           0       10.829822   -1.043387    2.450300
     16          6           0       10.433814   -2.641523    0.603149
     17          6           0      -11.646871   -1.289694    2.155933
     18          6           0      -12.711403   -2.478030    0.256224
     19          6           0        9.743831    0.286618    0.230225
     20          6           0      -10.095806   -1.034853   -0.426243
     21          6           0       11.739869    1.134398   -1.979195
     22          6           0      -10.776967    1.795500   -1.494735
     23          6           0        9.376849    1.590878    0.063370
     24          6           0       -8.814092   -0.425371   -0.447205
     25          6           0        8.070437    2.232256    0.172549
     26          6           0       -7.654276   -1.136179   -0.850124
     27          6           0        8.002306    3.684556    0.587593
     28          6           0       -7.678285   -2.602295   -1.216616
     29          6           0        6.855566    1.577958   -0.011281
     30          6           0       -6.434598   -0.538834   -0.714728
     31          6           0        5.597397    2.064689    0.263271
     32          6           0       -5.028581   -1.049300   -0.898424
     33          6           0        4.402908    1.322973    0.114225
     34          6           0       -4.000933   -0.186223   -0.633827
     35          6           0        3.061995    1.790710    0.126329
     36          6           0       -2.657062   -0.799128   -0.680315
     37          6           0        2.832669    3.188383    0.493341
     38          6           0       -2.407274   -2.169251   -1.036995
     39          6           0        2.133020    0.843885   -0.131193
     40          6           0       -1.651324    0.186514   -0.387960
     41          6           0        0.721596    0.921404   -0.082119
     42          6           0       -0.249566   -0.031038   -0.438477
     43          1           0       13.186116   -1.030175    1.633547
     44          1           0       12.596832   -2.730415    1.527304
     45          1           0      -14.413865   -0.612734    1.774825
     46          1           0      -14.002645   -0.460570   -0.231718
     47          1           0       12.831477   -2.457924   -1.017684
     48          1           0      -12.984111    1.400349    2.043113
     49          1           0       14.123503    0.035852   -0.071635
     50          1           0       13.658070   -0.543489   -1.846506
     51          1           0      -13.446225    1.882832   -1.070251
     52          1           0      -12.388548    2.873115    0.128283
     53          1           0       11.175610   -1.807499    3.215865
     54          1           0        9.716074   -0.959794    2.465772
     55          1           0       11.334820   -0.219959    2.851070
     56          1           0       10.978391   -3.025360   -0.326074
     57          1           0       10.360683   -3.520242    1.321913
     58          1           0        9.324489   -2.651522    0.283746
     59          1           0      -11.624870   -0.296160    2.613312
     60          1           0      -10.644345   -1.679908    2.233337
     61          1           0      -12.267333   -1.931456    2.712648
     62          1           0      -13.441375   -2.925031    1.083409
     63          1           0      -11.871837   -3.168717    0.241126
     64          1           0      -12.793801   -2.595182   -0.767450
     65          1           0        9.100847   -0.371903    0.724018
     66          1           0      -10.337537   -2.056297   -0.917396
     67          1           0       10.608393    1.422543   -2.276702
     68          1           0       11.925580    2.151795   -1.565849
     69          1           0       12.289939    1.144618   -3.082196
     70          1           0      -11.409009    2.365742   -2.196468
     71          1           0       -9.995546    1.335261   -2.222812
     72          1           0      -10.099848    2.592095   -1.099455
     73          1           0       14.746950   -3.240793   -0.046776
     74          1           0      -15.252010    1.729654    1.966249
     75          1           0       10.169332    2.365925   -0.194786
     76          1           0       -8.350776    0.623577   -0.012038
     77          1           0        9.162385    4.110519    0.502687
     78          1           0        7.406870    4.256687   -0.228948
     79          1           0        7.786585    3.802872    1.601851
     80          1           0       -8.046506   -3.377972   -0.515264
     81          1           0       -8.449082   -2.699784   -1.952759
     82          1           0       -6.622318   -2.911344   -1.598341
     83          1           0        7.015932    0.348081   -0.241741
     84          1           0       -6.468523    0.523814   -0.393404
     85          1           0        5.433433    3.014438    0.511154
     86          1           0       -4.720680   -2.006610   -1.225096
     87          1           0        4.882997    0.250931   -0.225391
     88          1           0       -4.231236    0.717133   -0.247557
     89          1           0        3.709502    3.654147    1.296845
     90          1           0        1.794699    3.305153    1.095914
     91          1           0        2.837394    3.848312   -0.548352
     92          1           0       -2.650451   -3.087186   -0.292705
     93          1           0       -3.076368   -2.375642   -1.890102
     94          1           0       -1.284033   -2.446339   -1.193237
     95          1           0        2.566758   -0.139667   -0.629739
     96          1           0       -1.920992    1.153450   -0.133745
     97          1           0        0.321023    1.843332    0.189665
     98          1           0        0.284269   -1.104695   -0.535231
 ---------------------------------------------------------------------

 SCF Done:  E(RCAM-B3LYP) =  -1706.92763123     A.U. after   15 cycles

 Excitation energies and oscillator strengths:

 Excited State   1:      Singlet-A      2.2009 eV  563.33 nm  f=3.6549  <S**2>=0.000
     155 ->158        -0.16225
     156 ->157         0.68551
 This state for optimization and/or second-order correction.
 Total Energy, E(TD-HF/TD-DFT) =  -1706.84674935
 Copying the excited state density for this state as the 1-particle RhoCI density.

 The electronic state is 1-A.
 Alpha  occ. eigenvalues --  -19.20990 -19.20053 -10.30842 -10.30022 -10.29878
 Alpha  occ. eigenvalues --  -10.28739 -10.28038 -10.27937 -10.27873 -10.27783
 Alpha  occ. eigenvalues --  -10.27617 -10.27399 -10.27375 -10.27373 -10.27341
 Alpha  occ. eigenvalues --  -10.27214 -10.27211 -10.27091 -10.26961 -10.26810
 Alpha  occ. eigenvalues --  -10.26791 -10.26746 -10.26719 -10.26694 -10.26654
 Alpha  occ. eigenvalues --  -10.26649 -10.26647 -10.26496 -10.26362 -10.26151
 Alpha  occ. eigenvalues --  -10.26088 -10.25847 -10.25751 -10.25637 -10.25480
 Alpha  occ. eigenvalues --  -10.25420 -10.25069 -10.24959 -10.24901 -10.24394
 Alpha  occ. eigenvalues --  -10.23649 -10.23462  -1.07519  -1.06289  -0.94262
 Alpha  occ. eigenvalues --   -0.93194  -0.92403  -0.91946  -0.90384  -0.90009
 Alpha  occ. eigenvalues --   -0.87491  -0.87134  -0.86985  -0.86006  -0.84482
 Alpha  occ. eigenvalues --   -0.83235  -0.82086  -0.79839  -0.79407  -0.78554
 Alpha  occ. eigenvalues --   -0.76738  -0.76515  -0.76392  -0.76076  -0.75298
 Alpha  occ. eigenvalues --   -0.75208  -0.74882  -0.74535  -0.73192  -0.70396
 Alpha  occ. eigenvalues --   -0.68983  -0.67447  -0.65441  -0.64760  -0.63913
 Alpha  occ. eigenvalues --   -0.63452  -0.62732  -0.62015  -0.61203  -0.59699
 Alpha  occ. eigenvalues --   -0.59484  -0.59003  -0.57853  -0.57667  -0.56529
 Alpha  occ. eigenvalues --   -0.55770  -0.55450  -0.55030  -0.54239  -0.53800
 Alpha  occ. eigenvalues --   -0.52894  -0.52338  -0.51750  -0.51011  -0.50404
 Alpha  occ. eigenvalues --   -0.50303  -0.50219  -0.49888  -0.49725  -0.49112
 Alpha  occ. eigenvalues --   -0.49068  -0.48709  -0.48255  -0.48061  -0.47850
 Alpha  occ. eigenvalues --   -0.47488  -0.47214  -0.46814  -0.46740  -0.46274
 Alpha  occ. eigenvalues --   -0.45537  -0.45244  -0.45103  -0.44970  -0.44243
 Alpha  occ. eigenvalues --   -0.44094  -0.43593  -0.43235  -0.43094  -0.42710
 Alpha  occ. eigenvalues --   -0.42607  -0.42407  -0.41834  -0.41706  -0.41454
 Alpha  occ. eigenvalues --   -0.41233  -0.41126  -0.41068  -0.40462  -0.40333
 Alpha  occ. eigenvalues --   -0.39731  -0.39658  -0.39572  -0.39216  -0.39100
 Alpha  occ. eigenvalues --   -0.38961  -0.38688  -0.38608  -0.38396  -0.37964
 Alpha  occ. eigenvalues --   -0.37631  -0.37449  -0.37194  -0.36560  -0.36470
 Alpha  occ. eigenvalues --   -0.35841  -0.34892  -0.34267  -0.32554  -0.32074
 Alpha  occ. eigenvalues --   -0.31520  -0.29518  -0.28012  -0.25687  -0.23111
 Alpha  occ. eigenvalues --   -0.19593
 Alpha virt. eigenvalues --   -0.05881  -0.01441   0.01463   0.05060   0.07066
 Alpha virt. eigenvalues --    0.09055   0.10750   0.11073   0.11572   0.11961
 Alpha virt. eigenvalues --    0.12199   0.12431   0.12630   0.12767   0.13104

 Mulliken charges:
               1
     1  O   -0.570760
     2  O   -0.577232
     3  C   -0.056450
     4  C   -0.023675
     5  C   -0.122454
     6  C   -0.145992
     7  C    0.135500
     8  C    0.146461
     9  C    0.113729
    10  C    0.030488
    11  C   -0.207825
    12  C   -0.213480
    13  C    0.029923
    14  C    0.070797
    15  C   -0.298169
    16  C   -0.314262
    17  C   -0.294180
    18  C   -0.307060
    19  C   -0.091217
    20  C   -0.162522
    21  C   -0.380159
    22  C   -0.374215
    23  C   -0.115333
    24  C   -0.088083
    25  C    0.067832
    26  C    0.151097
    27  C   -0.363052
    28  C   -0.369017
    29  C   -0.108713
    30  C   -0.171179
    31  C   -0.068346
    32  C   -0.079666
    33  C   -0.112847
    34  C   -0.074871
    35  C    0.139683
    36  C    0.118325
    37  C   -0.364201
    38  C   -0.389876
    39  C   -0.112941
    40  C   -0.125162
    41  C   -0.097726
    42  C   -0.080957
    43  H    0.095686
    44  H    0.078690
    45  H    0.059289
    46  H    0.112518
    47  H    0.084764
    48  H    0.091537
    49  H    0.115946
    50  H    0.116862
    51  H    0.127111
    52  H    0.099426
    53  H    0.083792
    54  H    0.102984
    55  H    0.113560
    56  H    0.090622
    57  H    0.093138
    58  H    0.105018
    59  H    0.091117
    60  H    0.118491
    61  H    0.091050
    62  H    0.100467
    63  H    0.091718
    64  H    0.109984
    65  H    0.078535
    66  H    0.097864
    67  H    0.103487
    68  H    0.125134
    69  H    0.095100
    70  H    0.103005
    71  H    0.109407
    72  H    0.112276
    73  H    0.305619
    74  H    0.298625
    75  H    0.076767
    76  H    0.088679
    77  H    0.072121
    78  H    0.121013
    79  H    0.142701
    80  H    0.119426
    81  H    0.114775
    82  H    0.097773
    83  H    0.059919
    84  H    0.066097
    85  H    0.066769
    86  H    0.077873
    87  H    0.069311
    88  H    0.086947
    89  H    0.097456
    90  H    0.108239
    91  H    0.119034
    92  H    0.113237
    93  H    0.128447
    94  H    0.117857
    95  H    0.081277
    96  H    0.086829
    97  H    0.069460
    98  H    0.072958
 Sum of Mulliken charges =  -0.00000

 Dipole moment (field-independent basis, Debye):
    X=             -0.5763    Y=             -1.4350    Z=              1.2742  Tot=              2.0038
 Quadrupole moment (field-independent basis, Debye-Ang):
   XX=           -313.6918   YY=           -239.7023   ZZ=           -259.5781
   XY=              1.3229   XZ=            -12.2343   YZ=              4.4379

 Normal termination of Gaussian 16 at Thu Jul 11 03:06:58 2019.
