 Gaussian 16, Revision A.03,
 Gaussian 16:  ES64L-G16RevA.03 25-Dec-2016

 -------------------------------------
 # td=(NStates=1) CAM-B3LYP/6-31G(d,p)
 -------------------------------------

 --
 TD
 --
 Symbolic Z-matrix:
 Charge =  0 Multiplicity = 1

                         Standard orientation:
 ---------------------------------------------------------------------
 Center     Atomic      Atomic             Coordinates (Angstroms)
 Number     Number       Type             X           Y           Z
 ---------------------------------------------------------------------
      1          8           0       14.704804   -2.337311   -0.300784
      2          8           0      -14.648139    2.058178    0.852506
      3          6           0       11.244333   -1.336292    1.103152
      4          6           0      -12.406231   -0.929099    0.630140
      5          6           0       12.756482   -1.820481    1.090774
      6          6           0      -13.673948   -0.116301    0.601224
      7          6           0       13.314805   -1.940294   -0.393532
      8          6           0      -13.483605    1.321843    0.822127
      9          6           0       11.028007   -0.154269    0.081116
     10          6           0      -11.330604   -0.213671   -0.227223
     11          6           0       13.206849   -0.579135   -1.078354
     12          6           0      -12.686535    1.845401   -0.389811
     13          6           0       11.935756    0.193143   -0.921540
     14          6           0      -11.412947    1.034435   -0.664178
     15          6           0       10.773960   -1.055537    2.488467
     16          6           0       10.406319   -2.609875    0.519096
     17          6           0      -11.885912   -1.297449    2.055085
     18          6           0      -12.762514   -2.264550   -0.079536
     19          6           0        9.705401    0.486319    0.092259
     20          6           0      -10.063404   -0.947923   -0.441243
     21          6           0       11.512124    1.177349   -2.015633
     22          6           0      -10.417278    1.770875   -1.478609
     23          6           0        9.367874    1.729868    0.088614
     24          6           0       -8.769805   -0.560584   -0.362596
     25          6           0        8.053437    2.370541    0.009393
     26          6           0       -7.538581   -1.342285   -0.459359
     27          6           0        7.962411    3.919736    0.444366
     28          6           0       -7.653520   -2.713674   -1.110818
     29          6           0        6.858048    1.658339   -0.024901
     30          6           0       -6.284550   -0.669055   -0.220770
     31          6           0        5.596457    2.180644    0.226516
     32          6           0       -5.082259   -1.185102   -0.516934
     33          6           0        4.443276    1.323449    0.060408
     34          6           0       -3.925608   -0.517851   -0.154578
     35          6           0        3.084628    1.591505    0.166749
     36          6           0       -2.618201   -0.888291   -0.400362
     37          6           0        2.789821    3.036113    0.628192
     38          6           0       -2.319061   -2.428421   -0.747811
     39          6           0        2.109783    0.719557   -0.069874
     40          6           0       -1.576918    0.006702   -0.177218
     41          6           0        0.684157    0.814777   -0.119606
     42          6           0       -0.221179   -0.224012   -0.317812
     43          1           0       13.537317   -1.108258    1.500962
     44          1           0       12.851489   -2.639851    1.639562
     45          1           0      -14.298801   -0.503859    1.400889
     46          1           0      -14.135271   -0.380051   -0.222501
     47          1           0       12.792644   -2.850935   -1.029514
     48          1           0      -12.877193    1.394649    1.737681
     49          1           0       14.155219    0.063856   -0.640859
     50          1           0       13.338389   -0.903673   -2.183480
     51          1           0      -13.381000    1.741342   -1.220244
     52          1           0      -12.720242    3.058879   -0.063578
     53          1           0       11.036235   -1.912590    3.082935
     54          1           0        9.727720   -0.660691    2.687889
     55          1           0       11.476184   -0.345260    2.923905
     56          1           0       10.500117   -2.797933   -0.471434
     57          1           0       10.635731   -3.352657    1.151445
     58          1           0        9.321234   -2.382513    0.318263
     59          1           0      -11.843886   -0.415899    2.601661
     60          1           0      -10.844522   -1.813014    1.965205
     61          1           0      -12.622936   -2.181742    2.558828
     62          1           0      -13.583452   -2.645009    0.563046
     63          1           0      -11.969396   -3.081029    0.058219
     64          1           0      -13.167198   -2.061635   -1.033736
     65          1           0        8.992476   -0.222091    0.367099
     66          1           0      -10.176941   -2.017153   -0.483122
     67          1           0       10.474578    1.156396   -2.460302
     68          1           0       11.614195    2.192646   -1.600122
     69          1           0       12.007520    1.084874   -2.790512
     70          1           0      -10.830384    2.218091   -2.322434
     71          1           0       -9.597148    1.083283   -1.841329
     72          1           0       -9.846883    2.689848   -0.898317
     73          1           0       14.641200   -3.253029    0.012424
     74          1           0      -15.181586    1.804081    1.675194
     75          1           0       10.203617    2.395534   -0.055514
     76          1           0       -8.508614    0.512524   -0.070487
     77          1           0        9.020171    4.521994    0.506413
     78          1           0        7.407914    4.578201   -0.160020
     79          1           0        7.559903    3.729440    1.450028
     80          1           0       -8.698052   -3.403723   -0.532529
     81          1           0       -8.303365   -2.622487   -2.147760
     82          1           0       -6.903314   -3.090675   -1.335422
     83          1           0        6.961070    0.566768   -0.328702
     84          1           0       -6.499271    0.358549    0.047569
     85          1           0        5.239711    3.099970    0.426638
     86          1           0       -4.876618   -2.186444   -0.867637
     87          1           0        4.598882    0.436994   -0.466584
     88          1           0       -4.090275    0.556913    0.415580
     89          1           0        3.260275    3.411736    1.492795
     90          1           0        1.597389    3.202505    0.955123
     91          1           0        3.182330    3.735270   -0.216392
     92          1           0       -3.064159   -2.942199    0.101580
     93          1           0       -2.572523   -2.476040   -1.827243
     94          1           0       -1.460202   -2.749942   -0.467948
     95          1           0        2.611151   -0.205064   -0.466464
     96          1           0       -1.764684    1.001726    0.337435
     97          1           0        0.283852    1.899493   -0.001091
     98          1           0        0.008484   -1.375727   -0.599144
 ---------------------------------------------------------------------

 SCF Done:  E(RCAM-B3LYP) =  -1706.86704448     A.U. after   15 cycles

 Excitation energies and oscillator strengths:

 Excited State   1:      Singlet-A      2.0720 eV  598.39 nm  f=3.9223  <S**2>=0.000
     155 ->158         0.15829
     156 ->157         0.69004
 This state for optimization and/or second-order correction.
 Total Energy, E(TD-HF/TD-DFT) =  -1706.79090102
 Copying the excited state density for this state as the 1-particle RhoCI density.

 The electronic state is 1-A.
 Alpha  occ. eigenvalues --  -19.21933 -19.21298 -10.32254 -10.29434 -10.28494
 Alpha  occ. eigenvalues --  -10.28066 -10.27987 -10.27982 -10.27793 -10.27694
 Alpha  occ. eigenvalues --  -10.27403 -10.27357 -10.27154 -10.27097 -10.27055
 Alpha  occ. eigenvalues --  -10.26961 -10.26839 -10.26743 -10.26574 -10.26461
 Alpha  occ. eigenvalues --  -10.26367 -10.26339 -10.26336 -10.26316 -10.26249
 Alpha  occ. eigenvalues --  -10.26227 -10.26214 -10.26204 -10.25968 -10.25801
 Alpha  occ. eigenvalues --  -10.25763 -10.25581 -10.25515 -10.25121 -10.25009
 Alpha  occ. eigenvalues --  -10.24913 -10.24895 -10.24511 -10.24404 -10.23631
 Alpha  occ. eigenvalues --  -10.23554 -10.22741  -1.10382  -1.08963  -0.93969
 Alpha  occ. eigenvalues --   -0.92643  -0.92338  -0.91820  -0.90223  -0.89570
 Alpha  occ. eigenvalues --   -0.87762  -0.86994  -0.86616  -0.85655  -0.84623
 Alpha  occ. eigenvalues --   -0.83012  -0.81823  -0.80218  -0.79698  -0.78030
 Alpha  occ. eigenvalues --   -0.77358  -0.76967  -0.76646  -0.76327  -0.75772
 Alpha  occ. eigenvalues --   -0.75340  -0.75275  -0.75100  -0.73680  -0.71408
 Alpha  occ. eigenvalues --   -0.69087  -0.67526  -0.66053  -0.64614  -0.63987
 Alpha  occ. eigenvalues --   -0.63750  -0.63327  -0.60875  -0.60459  -0.60387
 Alpha  occ. eigenvalues --   -0.59774  -0.59436  -0.58028  -0.57459  -0.56276
 Alpha  occ. eigenvalues --   -0.55869  -0.55400  -0.54810  -0.54586  -0.53727
 Alpha  occ. eigenvalues --   -0.53300  -0.52579  -0.52123  -0.51681  -0.51580
 Alpha  occ. eigenvalues --   -0.51113  -0.50380  -0.50122  -0.49845  -0.49462
 Alpha  occ. eigenvalues --   -0.49372  -0.48530  -0.48152  -0.47979  -0.47946
 Alpha  occ. eigenvalues --   -0.47717  -0.47550  -0.47366  -0.46873  -0.46472
 Alpha  occ. eigenvalues --   -0.45968  -0.45803  -0.45371  -0.44925  -0.44550
 Alpha  occ. eigenvalues --   -0.44275  -0.44118  -0.43778  -0.43628  -0.43207
 Alpha  occ. eigenvalues --   -0.42801  -0.42597  -0.42503  -0.42074  -0.41978
 Alpha  occ. eigenvalues --   -0.41713  -0.41286  -0.41242  -0.41204  -0.40724
 Alpha  occ. eigenvalues --   -0.40166  -0.39948  -0.39794  -0.39612  -0.39069
 Alpha  occ. eigenvalues --   -0.38874  -0.38487  -0.38320  -0.38103  -0.37691
 Alpha  occ. eigenvalues --   -0.37531  -0.37366  -0.36778  -0.36634  -0.36402
 Alpha  occ. eigenvalues --   -0.35325  -0.34998  -0.33997  -0.33051  -0.32273
 Alpha  occ. eigenvalues --   -0.31605  -0.29900  -0.27981  -0.26536  -0.22917
 Alpha  occ. eigenvalues --   -0.19144
 Alpha virt. eigenvalues --   -0.06429  -0.01676   0.02741   0.05465   0.07381
 Alpha virt. eigenvalues --    0.09475   0.10299   0.11354   0.11396   0.11661
 Alpha virt. eigenvalues --    0.12061   0.12815   0.13238   0.13393   0.13773

 Mulliken charges:
               1
     1  O   -0.553279
     2  O   -0.557731
     3  C   -0.020182
     4  C   -0.030504
     5  C   -0.186199
     6  C   -0.166066
     7  C    0.148305
     8  C    0.174368
     9  C    0.040959
    10  C    0.096541
    11  C   -0.215567
    12  C   -0.229843
    13  C    0.038473
    14  C    0.058949
    15  C   -0.302482
    16  C   -0.302319
    17  C   -0.283317
    18  C   -0.305197
    19  C   -0.095881
    20  C   -0.139001
    21  C   -0.341720
    22  C   -0.360078
    23  C   -0.079797
    24  C   -0.109158
    25  C    0.041219
    26  C    0.094099
    27  C   -0.361246
    28  C   -0.288441
    29  C   -0.119035
    30  C   -0.109565
    31  C   -0.050306
    32  C   -0.086525
    33  C   -0.143028
    34  C   -0.105557
    35  C    0.151080
    36  C    0.054715
    37  C   -0.382402
    38  C   -0.342033
    39  C   -0.132108
    40  C   -0.108209
    41  C   -0.118676
    42  C   -0.060796
    43  H    0.102736
    44  H    0.083925
    45  H    0.068398
    46  H    0.100841
    47  H    0.060075
    48  H    0.069082
    49  H    0.108901
    50  H    0.104665
    51  H    0.119812
    52  H    0.085262
    53  H    0.097471
    54  H    0.111419
    55  H    0.106924
    56  H    0.112601
    57  H    0.106564
    58  H    0.088218
    59  H    0.112790
    60  H    0.105570
    61  H    0.069928
    62  H    0.094359
    63  H    0.095913
    64  H    0.113052
    65  H    0.073073
    66  H    0.062598
    67  H    0.116703
    68  H    0.118303
    69  H    0.105226
    70  H    0.118263
    71  H    0.114734
    72  H    0.088515
    73  H    0.308045
    74  H    0.307734
    75  H    0.071610
    76  H    0.081304
    77  H    0.084926
    78  H    0.127418
    79  H    0.138601
    80  H    0.062969
    81  H    0.103397
    82  H    0.086003
    83  H    0.089713
    84  H    0.089829
    85  H    0.080842
    86  H    0.095696
    87  H    0.068407
    88  H    0.070657
    89  H    0.132182
    90  H    0.076723
    91  H    0.110889
    92  H    0.099369
    93  H    0.135227
    94  H    0.123487
    95  H    0.069809
    96  H    0.081510
    97  H    0.093857
    98  H    0.081419
 Sum of Mulliken charges =  -0.00000

 Dipole moment (field-independent basis, Debye):
    X=             -0.7440    Y=             -2.1054    Z=              1.0484  Tot=              2.4668
 Quadrupole moment (field-independent basis, Debye-Ang):
   XX=           -274.4225   YY=           -245.2018   ZZ=           -258.9285
   XY=              3.3251   XZ=            -10.7509   YZ=              3.3840

 Normal termination of Gaussian 16 at Mon Jul 15 15:08:40 2019.
