 Gaussian 16, Revision A.03,
 Gaussian 16:  ES64L-G16RevA.03 25-Dec-2016

 -------------------------------------
 # td=(NStates=1) CAM-B3LYP/6-31G(d,p)
 -------------------------------------

 --
 TD
 --
 Symbolic Z-matrix:
 Charge =  0 Multiplicity = 1

                         Standard orientation:
 ---------------------------------------------------------------------
 Center     Atomic      Atomic             Coordinates (Angstroms)
 Number     Number       Type             X           Y           Z
 ---------------------------------------------------------------------
      1          8           0       14.776359   -2.214326   -0.297558
      2          8           0      -14.570720    1.987020    1.239711
      3          6           0       11.332298   -1.276887    1.263738
      4          6           0      -12.424460   -0.958636    0.603270
      5          6           0       12.799234   -1.595210    1.200710
      6          6           0      -13.722980   -0.221205    0.727383
      7          6           0       13.279747   -1.927435   -0.304320
      8          6           0      -13.377108    1.219125    0.960430
      9          6           0       11.009804   -0.294356    0.100905
     10          6           0      -11.307832   -0.214053   -0.160151
     11          6           0       13.170928   -0.656601   -1.035931
     12          6           0      -12.700797    1.852313   -0.197853
     13          6           0       11.880018   -0.014378   -0.953677
     14          6           0      -11.488886    1.097409   -0.620764
     15          6           0       10.995076   -0.791942    2.583313
     16          6           0       10.595434   -2.517642    0.785117
     17          6           0      -11.970040   -1.493442    2.030353
     18          6           0      -12.795605   -2.332845    0.008145
     19          6           0        9.698512    0.293460    0.114153
     20          6           0      -10.151435   -1.047552   -0.370129
     21          6           0       11.595479    0.907333   -2.152104
     22          6           0      -10.591637    1.620654   -1.692311
     23          6           0        9.314829    1.598620   -0.126824
     24          6           0       -8.912282   -0.450543   -0.394782
     25          6           0        8.094222    2.240725   -0.009933
     26          6           0       -7.640311   -1.080066   -0.625325
     27          6           0        8.092994    3.754811    0.253640
     28          6           0       -7.841141   -2.531839   -1.020243
     29          6           0        6.929884    1.519345   -0.025991
     30          6           0       -6.438860   -0.532491   -0.387680
     31          6           0        5.550481    2.032197    0.270722
     32          6           0       -5.158143   -1.036801   -0.632623
     33          6           0        4.443654    1.283431    0.066431
     34          6           0       -3.998289   -0.235284   -0.451148
     35          6           0        3.151567    1.627410    0.184814
     36          6           0       -2.680262   -0.753224   -0.622296
     37          6           0        2.876623    3.126433    0.616575
     38          6           0       -2.384673   -2.217392   -1.183759
     39          6           0        2.127752    0.643414    0.004009
     40          6           0       -1.618698    0.083777   -0.264884
     41          6           0        0.710102    0.851166    0.096353
     42          6           0       -0.233280   -0.106461   -0.206849
     43          1           0       13.475097   -0.718744    1.464062
     44          1           0       13.103131   -2.431527    2.075657
     45          1           0      -14.195863   -0.712213    1.481204
     46          1           0      -14.440996   -0.271654   -0.084572
     47          1           0       12.789658   -2.706175   -0.825657
     48          1           0      -12.630072    1.345561    1.715751
     49          1           0       14.052528    0.102599   -0.718690
     50          1           0       13.389975   -0.959645   -2.103971
     51          1           0      -13.411177    1.903355   -1.044453
     52          1           0      -12.532531    2.860921    0.104187
     53          1           0       11.519205   -1.467829    3.084195
     54          1           0        9.894256   -0.596549    2.854903
     55          1           0       11.446056    0.278478    2.464827
     56          1           0       10.892120   -2.974734   -0.189571
     57          1           0       10.676417   -3.466751    1.385307
     58          1           0        9.420375   -2.465229    0.783099
     59          1           0      -11.756026   -0.433115    2.365332
     60          1           0      -11.016560   -1.933327    2.047219
     61          1           0      -12.606948   -2.179214    2.681782
     62          1           0      -13.586487   -2.867751    0.522898
     63          1           0      -12.031854   -3.140572    0.025745
     64          1           0      -12.903207   -2.405475   -1.122149
     65          1           0        9.151978   -0.649018    0.462929
     66          1           0      -10.398101   -2.036010   -0.272174
     67          1           0       10.452680    1.148099   -2.370915
     68          1           0       11.995455    2.045909   -2.016850
     69          1           0       12.028640    0.466025   -3.012151
     70          1           0      -11.203664    2.278692   -2.419943
     71          1           0       -9.958035    0.901208   -2.068926
     72          1           0       -9.858239    2.493601   -1.328745
     73          1           0       14.917615   -3.047955    0.241840
     74          1           0      -15.176415    1.184269    1.827792
     75          1           0       10.280294    2.222715   -0.238449
     76          1           0       -8.773700    0.563243   -0.186802
     77          1           0        9.245353    4.021869    0.329165
     78          1           0        7.355007    4.272927   -0.667072
     79          1           0        7.596781    3.958069    1.317953
     80          1           0       -8.462087   -3.036599   -0.366893
     81          1           0       -8.566331   -2.392179   -1.918654
     82          1           0       -6.897484   -3.227296   -1.250069
     83          1           0        6.707509    0.469018   -0.285036
     84          1           0       -6.546084    0.489613    0.096271
     85          1           0        5.622139    3.024527    0.601360
     86          1           0       -5.052848   -2.137412   -1.234428
     87          1           0        4.767288    0.260023   -0.165050
     88          1           0       -4.014080    0.801679   -0.120492
     89          1           0        3.419867    3.404952    1.446538
     90          1           0        1.830119    3.153014    0.874117
     91          1           0        3.015849    3.736851   -0.328685
     92          1           0       -2.707438   -2.893080   -0.500183
     93          1           0       -2.954416   -2.248733   -2.188279
     94          1           0       -1.318185   -2.340568   -1.300888
     95          1           0        2.550130   -0.315184   -0.237587
     96          1           0       -1.817477    0.927576    0.287284
     97          1           0        0.387472    1.787023    0.409669
     98          1           0       -0.083328   -1.020867   -0.503858
 ---------------------------------------------------------------------

 SCF Done:  E(RCAM-B3LYP) =  -1706.94499289     A.U. after   15 cycles

 Excitation energies and oscillator strengths:

 Excited State   1:      Singlet-A      2.0958 eV  591.59 nm  f=3.9449  <S**2>=0.000
     155 ->158         0.16835
     156 ->157         0.68543
 This state for optimization and/or second-order correction.
 Total Energy, E(TD-HF/TD-DFT) =  -1706.86797505
 Copying the excited state density for this state as the 1-particle RhoCI density.

 The electronic state is 1-A.
 Alpha  occ. eigenvalues --  -19.22182 -19.21036 -10.31043 -10.29399 -10.29266
 Alpha  occ. eigenvalues --  -10.28431 -10.28066 -10.27897 -10.27692 -10.27635
 Alpha  occ. eigenvalues --  -10.27442 -10.27403 -10.27220 -10.27024 -10.26880
 Alpha  occ. eigenvalues --  -10.26755 -10.26707 -10.26635 -10.26515 -10.26469
 Alpha  occ. eigenvalues --  -10.26315 -10.26260 -10.26234 -10.26134 -10.26065
 Alpha  occ. eigenvalues --  -10.25946 -10.25883 -10.25870 -10.25859 -10.25803
 Alpha  occ. eigenvalues --  -10.25726 -10.25708 -10.25616 -10.25568 -10.25342
 Alpha  occ. eigenvalues --  -10.25125 -10.25072 -10.25047 -10.24947 -10.24764
 Alpha  occ. eigenvalues --  -10.24759 -10.24213  -1.06340  -1.05804  -0.95034
 Alpha  occ. eigenvalues --   -0.94320  -0.92130  -0.91685  -0.90872  -0.90009
 Alpha  occ. eigenvalues --   -0.88461  -0.87948  -0.87419  -0.85838  -0.84900
 Alpha  occ. eigenvalues --   -0.83128  -0.81788  -0.79722  -0.79415  -0.78514
 Alpha  occ. eigenvalues --   -0.77672  -0.77522  -0.76950  -0.76007  -0.75551
 Alpha  occ. eigenvalues --   -0.75449  -0.75046  -0.74485  -0.73325  -0.71109
 Alpha  occ. eigenvalues --   -0.69354  -0.68003  -0.66230  -0.65271  -0.64585
 Alpha  occ. eigenvalues --   -0.64055  -0.63370  -0.63250  -0.61125  -0.60076
 Alpha  occ. eigenvalues --   -0.59011  -0.58664  -0.58213  -0.57603  -0.56966
 Alpha  occ. eigenvalues --   -0.56100  -0.55371  -0.54940  -0.53763  -0.53473
 Alpha  occ. eigenvalues --   -0.52902  -0.52514  -0.51874  -0.51573  -0.51372
 Alpha  occ. eigenvalues --   -0.50687  -0.50345  -0.49973  -0.49595  -0.49409
 Alpha  occ. eigenvalues --   -0.48952  -0.48822  -0.48641  -0.48030  -0.47897
 Alpha  occ. eigenvalues --   -0.47610  -0.47260  -0.47022  -0.46740  -0.46599
 Alpha  occ. eigenvalues --   -0.46149  -0.45784  -0.45534  -0.45302  -0.44955
 Alpha  occ. eigenvalues --   -0.44649  -0.44344  -0.44251  -0.43925  -0.43402
 Alpha  occ. eigenvalues --   -0.43258  -0.43089  -0.42792  -0.42666  -0.42208
 Alpha  occ. eigenvalues --   -0.42072  -0.41624  -0.41320  -0.41014  -0.40898
 Alpha  occ. eigenvalues --   -0.40614  -0.40522  -0.40182  -0.39675  -0.39267
 Alpha  occ. eigenvalues --   -0.39089  -0.38517  -0.38369  -0.38324  -0.38134
 Alpha  occ. eigenvalues --   -0.37968  -0.37407  -0.36807  -0.36253  -0.36050
 Alpha  occ. eigenvalues --   -0.35679  -0.34936  -0.33920  -0.32619  -0.32452
 Alpha  occ. eigenvalues --   -0.31790  -0.29921  -0.27922  -0.25731  -0.22964
 Alpha  occ. eigenvalues --   -0.19279
 Alpha virt. eigenvalues --   -0.06224  -0.01818   0.01684   0.04937   0.07607
 Alpha virt. eigenvalues --    0.08472   0.09298   0.11134   0.11958   0.11976
 Alpha virt. eigenvalues --    0.12382   0.12645   0.13319   0.13554   0.13964

 Mulliken charges:
               1
     1  O   -0.581098
     2  O   -0.577023
     3  C   -0.000133
     4  C   -0.061482
     5  C   -0.198320
     6  C   -0.187421
     7  C    0.146609
     8  C    0.172915
     9  C    0.002802
    10  C    0.062711
    11  C   -0.217212
    12  C   -0.224177
    13  C    0.074991
    14  C    0.070084
    15  C   -0.271466
    16  C   -0.313834
    17  C   -0.303538
    18  C   -0.312550
    19  C   -0.059719
    20  C   -0.103262
    21  C   -0.352606
    22  C   -0.364491
    23  C   -0.145893
    24  C   -0.127895
    25  C    0.093098
    26  C    0.125735
    27  C   -0.347138
    28  C   -0.366966
    29  C   -0.109568
    30  C   -0.127046
    31  C   -0.084607
    32  C   -0.105496
    33  C   -0.104421
    34  C   -0.102665
    35  C    0.080908
    36  C    0.085020
    37  C   -0.358656
    38  C   -0.362099
    39  C   -0.119148
    40  C   -0.137307
    41  C   -0.092089
    42  C   -0.037994
    43  H    0.111043
    44  H    0.055955
    45  H    0.091633
    46  H    0.110847
    47  H    0.105415
    48  H    0.089384
    49  H    0.115236
    50  H    0.101040
    51  H    0.113525
    52  H    0.122725
    53  H    0.110682
    54  H    0.106662
    55  H    0.100511
    56  H    0.110863
    57  H    0.087262
    58  H    0.097131
    59  H    0.092415
    60  H    0.115207
    61  H    0.101837
    62  H    0.102917
    63  H    0.088979
    64  H    0.087809
    65  H    0.072002
    66  H    0.085892
    67  H    0.113968
    68  H    0.095570
    69  H    0.111592
    70  H    0.102154
    71  H    0.137409
    72  H    0.087183
    73  H    0.302403
    74  H    0.295727
    75  H    0.081404
    76  H    0.093280
    77  H    0.106778
    78  H    0.104188
    79  H    0.117347
    80  H    0.133278
    81  H    0.105218
    82  H    0.087473
    83  H    0.074446
    84  H    0.075585
    85  H    0.069835
    86  H    0.083237
    87  H    0.074324
    88  H    0.096269
    89  H    0.132217
    90  H    0.106190
    91  H    0.124490
    92  H    0.140929
    93  H    0.116448
    94  H    0.115114
    95  H    0.083853
    96  H    0.067130
    97  H    0.083078
    98  H    0.047357
 Sum of Mulliken charges =  -0.00000

 Dipole moment (field-independent basis, Debye):
    X=             -0.3785    Y=             -2.6075    Z=              1.2764  Tot=              2.9277
 Quadrupole moment (field-independent basis, Debye-Ang):
   XX=           -286.5968   YY=           -245.3649   ZZ=           -263.8253
   XY=             16.1947   XZ=              4.6785   YZ=             -2.0778

 Normal termination of Gaussian 16 at Tue Jul  9 11:37:06 2019.
