 Gaussian 16, Revision A.03,
 Gaussian 16:  ES64L-G16RevA.03 25-Dec-2016

 -------------------------------------
 # td=(NStates=1) CAM-B3LYP/6-31G(d,p)
 -------------------------------------

 --
 TD
 --
 Symbolic Z-matrix:
 Charge =  0 Multiplicity = 1

                         Standard orientation:
 ---------------------------------------------------------------------
 Center     Atomic      Atomic             Coordinates (Angstroms)
 Number     Number       Type             X           Y           Z
 ---------------------------------------------------------------------
      1          8           0       14.896779   -2.086724   -0.406531
      2          8           0      -14.900130    1.730985    0.993706
      3          6           0       11.380039   -1.386423    1.044660
      4          6           0      -12.373837   -0.964504    0.454197
      5          6           0       12.845023   -1.676712    1.023790
      6          6           0      -13.770833   -0.301067    0.467248
      7          6           0       13.490097   -1.813703   -0.409281
      8          6           0      -13.643492    1.188846    0.919134
      9          6           0       10.995344   -0.236150    0.056871
     10          6           0      -11.303695   -0.139392   -0.270920
     11          6           0       13.269299   -0.506147   -1.178889
     12          6           0      -12.836464    1.788191   -0.122933
     13          6           0       11.911685    0.128087   -0.940229
     14          6           0      -11.586412    1.121933   -0.582249
     15          6           0       10.972308   -0.845607    2.402442
     16          6           0       10.564378   -2.647816    0.782126
     17          6           0      -11.863054   -1.402425    1.813194
     18          6           0      -12.708267   -2.331317   -0.386361
     19          6           0        9.660002    0.329899    0.134365
     20          6           0      -10.142532   -0.857546   -0.480692
     21          6           0       11.798208    1.171561   -2.031695
     22          6           0      -10.685543    2.113354   -1.401730
     23          6           0        9.393428    1.635134    0.085853
     24          6           0       -8.838452   -0.401234   -0.338836
     25          6           0        8.088574    2.195606   -0.002217
     26          6           0       -7.626327   -1.188178   -0.551937
     27          6           0        7.934300    3.684131    0.230763
     28          6           0       -7.807671   -2.644713   -1.041159
     29          6           0        6.885857    1.464176   -0.029953
     30          6           0       -6.499818   -0.594121   -0.353662
     31          6           0        5.593870    1.981936    0.211628
     32          6           0       -5.206351   -1.151521   -0.567247
     33          6           0        4.490779    1.209286   -0.080182
     34          6           0       -3.997229   -0.387984   -0.239298
     35          6           0        3.214033    1.505749    0.290036
     36          6           0       -2.669960   -0.786854   -0.228589
     37          6           0        2.978405    2.953969    0.735920
     38          6           0       -2.360136   -2.194793   -0.841566
     39          6           0        2.116183    0.569600    0.113520
     40          6           0       -1.608196    0.112595    0.017334
     41          6           0        0.696795    0.843650    0.198582
     42          6           0       -0.241088   -0.139194   -0.037799
     43          1           0       13.422929   -0.849780    1.438119
     44          1           0       13.224056   -2.493189    1.659401
     45          1           0      -14.405246   -0.864147    1.332904
     46          1           0      -14.358029   -0.380146   -0.347599
     47          1           0       13.028740   -2.776318   -1.080476
     48          1           0      -13.134880    1.176309    1.853449
     49          1           0       14.119283    0.086353   -0.615469
     50          1           0       13.524301   -0.380000   -2.314439
     51          1           0      -13.484526    1.946090   -1.151065
     52          1           0      -12.594942    2.758460    0.198118
     53          1           0       11.170865   -1.528312    3.228581
     54          1           0        9.893841   -0.842495    2.523975
     55          1           0       11.405512    0.128613    2.786474
     56          1           0       10.715457   -2.984908   -0.393890
     57          1           0       10.828267   -3.464576    1.458090
     58          1           0        9.521474   -2.715659    0.864407
     59          1           0      -11.947823   -0.648904    2.433122
     60          1           0      -11.006024   -1.939187    1.766868
     61          1           0      -12.554263   -2.152636    2.276569
     62          1           0      -13.599291   -2.678695    0.029884
     63          1           0      -11.879919   -2.927781   -0.263637
     64          1           0      -12.918994   -2.085838   -1.349086
     65          1           0        8.779223   -0.321446    0.352522
     66          1           0      -10.160211   -1.977661   -0.711465
     67          1           0       10.632500    1.374439   -2.266967
     68          1           0       12.328380    2.104961   -1.802527
     69          1           0       12.275135    0.651219   -2.985271
     70          1           0      -11.327147    3.011962   -1.956003
     71          1           0      -10.080276    1.512628   -1.983493
     72          1           0      -10.013213    2.760401   -0.841843
     73          1           0       15.125898   -2.958859    0.043051
     74          1           0      -15.482274    1.576497    1.984311
     75          1           0       10.117631    2.366954   -0.160776
     76          1           0       -8.597075    0.585604   -0.024434
     77          1           0        8.808268    4.184899    0.297810
     78          1           0        7.483785    4.322104   -0.562342
     79          1           0        7.476228    3.800019    1.057808
     80          1           0       -8.437280   -3.106671   -0.146469
     81          1           0       -8.420812   -2.694848   -1.896409
     82          1           0       -6.804438   -3.140785   -1.050341
     83          1           0        6.922076    0.421036   -0.684386
     84          1           0       -6.399951    0.578519   -0.172242
     85          1           0        5.349614    3.060748    0.611885
     86          1           0       -5.029851   -2.248884   -0.586796
     87          1           0        4.658645    0.211474   -0.413208
     88          1           0       -4.339301    0.662289   -0.118049
     89          1           0        3.728350    2.943639    1.660652
     90          1           0        1.886793    3.130783    0.958294
     91          1           0        3.371975    3.628488    0.028339
     92          1           0       -2.973492   -2.931052   -0.019575
     93          1           0       -3.038864   -2.350880   -1.873188
     94          1           0       -1.373855   -2.617519   -0.947675
     95          1           0        2.521823   -0.380747   -0.196424
     96          1           0       -1.837332    1.188773    0.218493
     97          1           0        0.576618    1.841014    0.332809
     98          1           0        0.272947   -1.128254   -0.363214
 ---------------------------------------------------------------------

 SCF Done:  E(RCAM-B3LYP) =  -1706.95597393     A.U. after   15 cycles

 Excitation energies and oscillator strengths:

 Excited State   1:      Singlet-A      1.9815 eV  625.69 nm  f=3.7671  <S**2>=0.000
     155 ->158         0.14982
     156 ->157         0.69215
 This state for optimization and/or second-order correction.
 Total Energy, E(TD-HF/TD-DFT) =  -1706.88315331
 Copying the excited state density for this state as the 1-particle RhoCI density.

 The electronic state is 1-A.
 Alpha  occ. eigenvalues --  -19.21852 -19.21563 -10.32418 -10.28888 -10.28435
 Alpha  occ. eigenvalues --  -10.28136 -10.28122 -10.27676 -10.27310 -10.27224
 Alpha  occ. eigenvalues --  -10.27219 -10.27186 -10.27067 -10.27066 -10.26987
 Alpha  occ. eigenvalues --  -10.26963 -10.26825 -10.26781 -10.26746 -10.26687
 Alpha  occ. eigenvalues --  -10.26491 -10.26425 -10.26425 -10.26413 -10.26337
 Alpha  occ. eigenvalues --  -10.26332 -10.26250 -10.26000 -10.25783 -10.25725
 Alpha  occ. eigenvalues --  -10.25588 -10.25553 -10.25538 -10.25175 -10.25097
 Alpha  occ. eigenvalues --  -10.24735 -10.24608 -10.24463 -10.23724 -10.23052
 Alpha  occ. eigenvalues --  -10.22170 -10.22100  -1.08216  -1.08056  -0.93666
 Alpha  occ. eigenvalues --   -0.93564  -0.92186  -0.91526  -0.90710  -0.89978
 Alpha  occ. eigenvalues --   -0.87417  -0.87138  -0.86344  -0.85438  -0.84967
 Alpha  occ. eigenvalues --   -0.82737  -0.81343  -0.80524  -0.79102  -0.77837
 Alpha  occ. eigenvalues --   -0.77295  -0.76814  -0.76276  -0.76125  -0.75774
 Alpha  occ. eigenvalues --   -0.75038  -0.75011  -0.74633  -0.73129  -0.71054
 Alpha  occ. eigenvalues --   -0.69135  -0.67492  -0.65512  -0.64864  -0.64288
 Alpha  occ. eigenvalues --   -0.64037  -0.63038  -0.62346  -0.59842  -0.59607
 Alpha  occ. eigenvalues --   -0.59215  -0.58508  -0.57817  -0.57259  -0.56178
 Alpha  occ. eigenvalues --   -0.55762  -0.54848  -0.54485  -0.54246  -0.53542
 Alpha  occ. eigenvalues --   -0.53332  -0.53005  -0.52091  -0.51485  -0.51130
 Alpha  occ. eigenvalues --   -0.50924  -0.50393  -0.49916  -0.49400  -0.49270
 Alpha  occ. eigenvalues --   -0.48787  -0.48558  -0.48349  -0.48321  -0.48092
 Alpha  occ. eigenvalues --   -0.47660  -0.47601  -0.47051  -0.46054  -0.45813
 Alpha  occ. eigenvalues --   -0.45773  -0.45461  -0.45178  -0.44816  -0.44669
 Alpha  occ. eigenvalues --   -0.44536  -0.44228  -0.43831  -0.43613  -0.43513
 Alpha  occ. eigenvalues --   -0.43467  -0.43151  -0.42701  -0.42564  -0.41906
 Alpha  occ. eigenvalues --   -0.41707  -0.41426  -0.41063  -0.40881  -0.40363
 Alpha  occ. eigenvalues --   -0.40270  -0.40225  -0.39960  -0.39893  -0.39011
 Alpha  occ. eigenvalues --   -0.38792  -0.38766  -0.38388  -0.37915  -0.37663
 Alpha  occ. eigenvalues --   -0.37588  -0.37144  -0.37008  -0.36846  -0.36107
 Alpha  occ. eigenvalues --   -0.35584  -0.34947  -0.33992  -0.32260  -0.31577
 Alpha  occ. eigenvalues --   -0.29980  -0.29317  -0.28101  -0.26050  -0.23074
 Alpha  occ. eigenvalues --   -0.18852
 Alpha virt. eigenvalues --   -0.06580  -0.01561   0.02279   0.04980   0.07378
 Alpha virt. eigenvalues --    0.07587   0.09810   0.11522   0.11850   0.12285
 Alpha virt. eigenvalues --    0.12414   0.12607   0.13239   0.13490   0.13619

 Mulliken charges:
               1
     1  O   -0.571687
     2  O   -0.575022
     3  C    0.009538
     4  C   -0.064854
     5  C   -0.197350
     6  C   -0.180006
     7  C    0.182308
     8  C    0.192918
     9  C    0.053842
    10  C    0.135074
    11  C   -0.215180
    12  C   -0.213441
    13  C    0.062353
    14  C    0.041037
    15  C   -0.313440
    16  C   -0.305352
    17  C   -0.281314
    18  C   -0.304101
    19  C   -0.123523
    20  C   -0.172769
    21  C   -0.357585
    22  C   -0.359545
    23  C   -0.066752
    24  C   -0.088073
    25  C    0.056226
    26  C    0.125055
    27  C   -0.365250
    28  C   -0.360599
    29  C   -0.151064
    30  C   -0.133587
    31  C   -0.083923
    32  C   -0.109847
    33  C   -0.095885
    34  C   -0.126034
    35  C    0.084940
    36  C    0.106102
    37  C   -0.371772
    38  C   -0.348471
    39  C   -0.142345
    40  C   -0.125261
    41  C   -0.050760
    42  C   -0.076927
    43  H    0.107811
    44  H    0.086345
    45  H    0.041261
    46  H    0.106849
    47  H    0.040301
    48  H    0.076095
    49  H    0.114528
    50  H    0.103992
    51  H    0.093746
    52  H    0.107849
    53  H    0.090896
    54  H    0.108009
    55  H    0.105514
    56  H    0.082247
    57  H    0.101863
    58  H    0.113067
    59  H    0.104565
    60  H    0.114352
    61  H    0.081935
    62  H    0.105451
    63  H    0.094183
    64  H    0.109018
    65  H    0.098733
    66  H    0.078158
    67  H    0.100792
    68  H    0.130833
    69  H    0.094892
    70  H    0.083586
    71  H    0.127132
    72  H    0.118164
    73  H    0.311089
    74  H    0.309898
    75  H    0.083477
    76  H    0.077515
    77  H    0.104372
    78  H    0.109716
    79  H    0.138770
    80  H    0.103227
    81  H    0.140268
    82  H    0.109996
    83  H    0.079585
    84  H    0.075982
    85  H    0.094628
    86  H    0.082149
    87  H    0.075770
    88  H    0.077794
    89  H    0.112108
    90  H    0.102530
    91  H    0.137101
    92  H    0.082118
    93  H    0.107336
    94  H    0.121596
    95  H    0.070423
    96  H    0.089775
    97  H    0.074554
    98  H    0.088381
 Sum of Mulliken charges =  -0.00000

 Dipole moment (field-independent basis, Debye):
    X=              1.5559    Y=             -0.6139    Z=              2.0195  Tot=              2.6222
 Quadrupole moment (field-independent basis, Debye-Ang):
   XX=           -263.8709   YY=           -242.4064   ZZ=           -260.4161
   XY=             -0.7507   XZ=             -8.8291   YZ=              1.2686

 Normal termination of Gaussian 16 at Wed Jul 10 17:41:15 2019.
