 Gaussian 16, Revision A.03,
 Gaussian 16:  ES64L-G16RevA.03 25-Dec-2016

 -------------------------------------
 # td=(NStates=1) CAM-B3LYP/6-31G(d,p)
 -------------------------------------

 --
 TD
 --
 Symbolic Z-matrix:
 Charge =  0 Multiplicity = 1

                         Standard orientation:
 ---------------------------------------------------------------------
 Center     Atomic      Atomic             Coordinates (Angstroms)
 Number     Number       Type             X           Y           Z
 ---------------------------------------------------------------------
      1          8           0       14.667102   -2.369602   -0.139769
      2          8           0      -14.875089    1.877209    0.930756
      3          6           0       11.205148   -1.533919    1.077248
      4          6           0      -12.421103   -1.072861    0.699114
      5          6           0       12.634997   -1.927656    1.042086
      6          6           0      -13.805278   -0.377410    0.673216
      7          6           0       13.313658   -1.960292   -0.261313
      8          6           0      -13.656326    1.133352    0.920097
      9          6           0       10.925074   -0.329901    0.044342
     10          6           0      -11.251190   -0.299348   -0.146063
     11          6           0       13.245283   -0.525703   -0.859272
     12          6           0      -12.800594    1.850690   -0.202272
     13          6           0       11.863803    0.157043   -0.806769
     14          6           0      -11.472454    1.026212   -0.410307
     15          6           0       10.767487   -1.214478    2.427528
     16          6           0       10.283563   -2.551559    0.410523
     17          6           0      -11.852254   -1.194579    2.193535
     18          6           0      -12.471477   -2.438627    0.045479
     19          6           0        9.666737    0.450120    0.095534
     20          6           0       -9.969391   -0.940624   -0.325782
     21          6           0       11.715400    1.194229   -1.850321
     22          6           0      -10.560595    1.778976   -1.478973
     23          6           0        9.388289    1.730311    0.015314
     24          6           0       -8.739104   -0.549979   -0.326027
     25          6           0        8.060538    2.318261    0.112198
     26          6           0       -7.543570   -1.209780   -0.676410
     27          6           0        7.926690    3.804703    0.463408
     28          6           0       -7.721739   -2.565975   -1.087781
     29          6           0        6.928551    1.611439   -0.010962
     30          6           0       -6.354221   -0.470094   -0.595558
     31          6           0        5.648133    2.155300    0.243976
     32          6           0       -5.001780   -1.094019   -0.630840
     33          6           0        4.496221    1.398145   -0.126769
     34          6           0       -3.988600   -0.302944   -0.350203
     35          6           0        3.119050    1.680478    0.164289
     36          6           0       -2.546738   -0.726288   -0.458220
     37          6           0        2.858363    3.008483    0.671023
     38          6           0       -2.418902   -2.172045   -0.989006
     39          6           0        2.237439    0.799774   -0.232417
     40          6           0       -1.565314    0.144347   -0.268710
     41          6           0        0.806384    0.949832   -0.197216
     42          6           0       -0.194496   -0.065293   -0.413776
     43          1           0       13.267828   -1.318842    1.678301
     44          1           0       12.925325   -3.016919    1.539194
     45          1           0      -14.381936   -0.639243    1.510069
     46          1           0      -14.323221   -0.650700   -0.355910
     47          1           0       12.892659   -2.667221   -0.848174
     48          1           0      -13.090479    1.188341    1.951777
     49          1           0       14.069579    0.020027   -0.307302
     50          1           0       13.518604   -0.717817   -1.917689
     51          1           0      -13.352283    1.677396   -1.103465
     52          1           0      -12.775370    2.786105   -0.127561
     53          1           0       10.997025   -1.686317    3.199964
     54          1           0        9.731639   -0.990992    2.314609
     55          1           0       11.368748   -0.292226    2.826943
     56          1           0       10.493181   -2.743511   -0.739172
     57          1           0       10.338256   -3.435589    1.063104
     58          1           0        9.343659   -2.121911    0.487514
     59          1           0      -11.574805   -0.173796    2.579013
     60          1           0      -10.792621   -1.824091    2.326515
     61          1           0      -12.707214   -1.461056    2.755709
     62          1           0      -13.180117   -3.087681    0.393676
     63          1           0      -11.651353   -3.106248    0.197528
     64          1           0      -12.730892   -2.559341   -1.137820
     65          1           0        8.660861   -0.209802    0.057809
     66          1           0       -9.994613   -2.188576   -0.733028
     67          1           0       10.770314    1.493396   -2.157151
     68          1           0       12.313872    2.084870   -1.433692
     69          1           0       12.127794    0.792593   -2.842968
     70          1           0      -11.093811    2.447954   -2.154526
     71          1           0      -10.197573    0.945697   -2.178237
     72          1           0       -9.834677    2.470315   -0.976719
     73          1           0       14.718442   -3.141617    0.293020
     74          1           0      -15.382116    1.508650    1.638177
     75          1           0       10.204717    2.382395   -0.040883
     76          1           0       -8.839057    0.579600   -0.077313
     77          1           0        9.115437    4.324248    0.902066
     78          1           0        7.582102    4.437171   -0.446063
     79          1           0        7.137042    3.921915    1.380674
     80          1           0       -8.217964   -3.159196   -0.508013
     81          1           0       -8.261963   -2.441095   -2.254806
     82          1           0       -6.658755   -2.969644   -1.492164
     83          1           0        7.007354    0.720958   -0.373950
     84          1           0       -6.548834    0.516926   -0.310701
     85          1           0        5.502533    3.029854    0.615812
     86          1           0       -4.917006   -2.227177   -0.725825
     87          1           0        4.789212    0.379289   -0.640976
     88          1           0       -4.189163    0.834886   -0.077333
     89          1           0        3.435894    3.489895    1.595574
     90          1           0        1.759269    3.237920    0.912534
     91          1           0        3.280398    3.617026   -0.093943
     92          1           0       -3.084675   -2.996839   -0.561380
     93          1           0       -2.655417   -2.253133   -2.112936
     94          1           0       -1.387547   -2.519786   -0.843029
     95          1           0        2.568068   -0.208208   -0.497741
     96          1           0       -1.780144    1.000521    0.327502
     97          1           0        0.550074    1.850941    0.303544
     98          1           0        0.263542   -1.001097   -0.671708
 ---------------------------------------------------------------------

 SCF Done:  E(RCAM-B3LYP) =  -1706.87998118     A.U. after   14 cycles

 Excitation energies and oscillator strengths:

 Excited State   1:      Singlet-A      2.6164 eV  473.87 nm  f=3.5680  <S**2>=0.000
     155 ->158         0.17331
     156 ->157         0.68002
 This state for optimization and/or second-order correction.
 Total Energy, E(TD-HF/TD-DFT) =  -1706.78382879
 Copying the excited state density for this state as the 1-particle RhoCI density.

 The electronic state is 1-A.
 Alpha  occ. eigenvalues --  -19.21515 -19.19830 -10.31419 -10.29494 -10.28806
 Alpha  occ. eigenvalues --  -10.28775 -10.27804 -10.27504 -10.27338 -10.27094
 Alpha  occ. eigenvalues --  -10.26922 -10.26858 -10.26836 -10.26789 -10.26745
 Alpha  occ. eigenvalues --  -10.26740 -10.26728 -10.26725 -10.26693 -10.26590
 Alpha  occ. eigenvalues --  -10.26547 -10.26493 -10.26492 -10.26418 -10.26302
 Alpha  occ. eigenvalues --  -10.26302 -10.26257 -10.26217 -10.25618 -10.25465
 Alpha  occ. eigenvalues --  -10.25463 -10.25387 -10.25360 -10.25217 -10.25203
 Alpha  occ. eigenvalues --  -10.25098 -10.24869 -10.24758 -10.24168 -10.24114
 Alpha  occ. eigenvalues --  -10.23782 -10.23118  -1.10767  -1.10031  -0.94165
 Alpha  occ. eigenvalues --   -0.92944  -0.92775  -0.91608  -0.91213  -0.90637
 Alpha  occ. eigenvalues --   -0.88112  -0.87094  -0.86063  -0.85652  -0.84448
 Alpha  occ. eigenvalues --   -0.83506  -0.82285  -0.80121  -0.79664  -0.78645
 Alpha  occ. eigenvalues --   -0.77916  -0.76585  -0.76228  -0.75980  -0.75700
 Alpha  occ. eigenvalues --   -0.75470  -0.75259  -0.74727  -0.73960  -0.70631
 Alpha  occ. eigenvalues --   -0.68907  -0.67536  -0.65998  -0.64816  -0.64120
 Alpha  occ. eigenvalues --   -0.63824  -0.63119  -0.61970  -0.60912  -0.60242
 Alpha  occ. eigenvalues --   -0.59585  -0.59369  -0.58161  -0.57637  -0.56873
 Alpha  occ. eigenvalues --   -0.56231  -0.55305  -0.54903  -0.54717  -0.54537
 Alpha  occ. eigenvalues --   -0.53747  -0.53300  -0.52887  -0.51631  -0.51035
 Alpha  occ. eigenvalues --   -0.50927  -0.50317  -0.49872  -0.49511  -0.49293
 Alpha  occ. eigenvalues --   -0.49084  -0.48700  -0.48267  -0.48142  -0.47661
 Alpha  occ. eigenvalues --   -0.47226  -0.47144  -0.46813  -0.46416  -0.46109
 Alpha  occ. eigenvalues --   -0.46018  -0.45651  -0.45533  -0.45231  -0.45000
 Alpha  occ. eigenvalues --   -0.44881  -0.44434  -0.44110  -0.43704  -0.43358
 Alpha  occ. eigenvalues --   -0.43189  -0.42657  -0.42408  -0.42355  -0.42048
 Alpha  occ. eigenvalues --   -0.41808  -0.41161  -0.41120  -0.40931  -0.40827
 Alpha  occ. eigenvalues --   -0.40717  -0.40287  -0.39776  -0.39708  -0.39658
 Alpha  occ. eigenvalues --   -0.39087  -0.38509  -0.38363  -0.38021  -0.37800
 Alpha  occ. eigenvalues --   -0.37363  -0.37017  -0.36106  -0.36019  -0.35424
 Alpha  occ. eigenvalues --   -0.34727  -0.33945  -0.33635  -0.32754  -0.32420
 Alpha  occ. eigenvalues --   -0.32145  -0.29453  -0.28435  -0.26336  -0.23653
 Alpha  occ. eigenvalues --   -0.20597
 Alpha virt. eigenvalues --   -0.04647  -0.00547   0.02371   0.05987   0.07628
 Alpha virt. eigenvalues --    0.09609   0.11203   0.11743   0.11826   0.12174
 Alpha virt. eigenvalues --    0.12382   0.13015   0.13118   0.13651   0.13842

 Mulliken charges:
               1
     1  O   -0.553992
     2  O   -0.548867
     3  C    0.005038
     4  C    0.011042
     5  C   -0.190014
     6  C   -0.186107
     7  C    0.174461
     8  C    0.146845
     9  C    0.036935
    10  C    0.066482
    11  C   -0.226278
    12  C   -0.180316
    13  C    0.042587
    14  C   -0.014039
    15  C   -0.276963
    16  C   -0.287449
    17  C   -0.308131
    18  C   -0.306513
    19  C   -0.108383
    20  C   -0.117155
    21  C   -0.351328
    22  C   -0.367610
    23  C   -0.087284
    24  C   -0.080926
    25  C    0.080003
    26  C    0.125042
    27  C   -0.346167
    28  C   -0.361007
    29  C   -0.070095
    30  C   -0.121412
    31  C   -0.053399
    32  C   -0.080402
    33  C   -0.155865
    34  C   -0.105169
    35  C    0.172054
    36  C    0.108225
    37  C   -0.395775
    38  C   -0.378974
    39  C   -0.127825
    40  C   -0.116139
    41  C   -0.100455
    42  C   -0.092462
    43  H    0.101732
    44  H    0.034475
    45  H    0.087573
    46  H    0.099630
    47  H    0.085662
    48  H    0.062549
    49  H    0.117115
    50  H    0.102971
    51  H    0.125752
    52  H    0.110276
    53  H    0.114007
    54  H    0.106399
    55  H    0.083568
    56  H    0.098646
    57  H    0.093515
    58  H    0.110828
    59  H    0.108867
    60  H    0.098507
    61  H    0.103795
    62  H    0.098580
    63  H    0.108762
    64  H    0.078985
    65  H    0.057341
    66  H    0.031401
    67  H    0.129041
    68  H    0.113572
    69  H    0.098935
    70  H    0.104273
    71  H    0.121783
    72  H    0.110777
    73  H    0.289103
    74  H    0.299257
    75  H    0.079277
    76  H    0.069111
    77  H    0.054892
    78  H    0.124831
    79  H    0.110218
    80  H    0.137566
    81  H    0.094630
    82  H    0.089464
    83  H    0.062103
    84  H    0.086588
    85  H    0.057032
    86  H    0.095927
    87  H    0.072419
    88  H    0.081663
    89  H    0.108709
    90  H    0.108084
    91  H    0.140479
    92  H    0.114684
    93  H    0.121553
    94  H    0.108696
    95  H    0.080862
    96  H    0.091318
    97  H    0.066944
    98  H    0.083061
 Sum of Mulliken charges =  -0.00000

 Dipole moment (field-independent basis, Debye):
    X=             -1.2470    Y=             -1.6000    Z=              1.5365  Tot=              2.5448
 Quadrupole moment (field-independent basis, Debye-Ang):
   XX=           -277.9032   YY=           -245.3075   ZZ=           -258.8427
   XY=             10.4391   XZ=             -5.9381   YZ=              1.8255

 Normal termination of Gaussian 16 at Wed Jul 10 11:36:09 2019.
