 Gaussian 16, Revision A.03,
 Gaussian 16:  ES64L-G16RevA.03 25-Dec-2016

 -------------------------------------
 # td=(NStates=1) CAM-B3LYP/6-31G(d,p)
 -------------------------------------

 --
 TD
 --
 Symbolic Z-matrix:
 Charge =  0 Multiplicity = 1

                         Standard orientation:
 ---------------------------------------------------------------------
 Center     Atomic      Atomic             Coordinates (Angstroms)
 Number     Number       Type             X           Y           Z
 ---------------------------------------------------------------------
      1          8           0       14.624355   -2.415866   -0.337164
      2          8           0      -14.734089    2.024784    0.746739
      3          6           0       11.172389   -1.401178    0.924398
      4          6           0      -12.454164   -1.006719    0.555776
      5          6           0       12.672448   -1.794414    1.002769
      6          6           0      -13.723221   -0.230652    0.584028
      7          6           0       13.339712   -1.898036   -0.360250
      8          6           0      -13.571327    1.325902    0.810960
      9          6           0       10.981288   -0.234282    0.024151
     10          6           0      -11.297923   -0.245567   -0.213151
     11          6           0       13.316203   -0.611063   -1.074101
     12          6           0      -12.614727    1.976723   -0.316430
     13          6           0       11.942694    0.125777   -0.854128
     14          6           0      -11.419698    1.000342   -0.635773
     15          6           0       10.623688   -1.066842    2.352108
     16          6           0       10.430886   -2.518873    0.338573
     17          6           0      -11.971211   -1.216320    1.987414
     18          6           0      -12.783666   -2.420833   -0.070934
     19          6           0        9.698825    0.456539    0.177722
     20          6           0      -10.114330   -1.001769   -0.371295
     21          6           0       11.700374    1.185605   -1.916352
     22          6           0      -10.474619    1.683078   -1.525678
     23          6           0        9.339062    1.794846    0.134511
     24          6           0       -8.753257   -0.524585   -0.440717
     25          6           0        7.983808    2.245999    0.269991
     26          6           0       -7.527606   -1.274399   -0.543421
     27          6           0        7.952003    3.729818    0.519953
     28          6           0       -7.551465   -2.733864   -0.936768
     29          6           0        6.903474    1.478766   -0.024868
     30          6           0       -6.321236   -0.634317   -0.336415
     31          6           0        5.604447    2.098485    0.274725
     32          6           0       -5.039445   -1.215056   -0.381605
     33          6           0        4.478453    1.306568    0.039888
     34          6           0       -3.916600   -0.445963   -0.325343
     35          6           0        3.114613    1.701116    0.207566
     36          6           0       -2.544215   -0.867542   -0.349410
     37          6           0        2.774972    3.134204    0.413219
     38          6           0       -2.168354   -2.330391   -0.550083
     39          6           0        2.162895    0.776695   -0.092656
     40          6           0       -1.504035    0.130723   -0.151669
     41          6           0        0.694975    0.988012    0.050406
     42          6           0       -0.172321   -0.041534   -0.146743
     43          1           0       12.925810   -1.011669    1.767258
     44          1           0       12.616927   -2.622812    1.581724
     45          1           0      -14.310277   -0.616210    1.242896
     46          1           0      -14.231294   -0.524429   -0.500989
     47          1           0       12.924622   -2.552904   -1.220633
     48          1           0      -12.868507    1.436503    1.702953
     49          1           0       14.108459    0.046502   -0.924889
     50          1           0       13.385394   -0.631708   -1.977033
     51          1           0      -13.230002    2.067803   -1.135352
     52          1           0      -12.169602    2.835716   -0.051767
     53          1           0       10.703341   -1.835800    2.943361
     54          1           0        9.495895   -1.082653    2.463710
     55          1           0       10.969966   -0.110709    2.656138
     56          1           0       10.763982   -2.886324   -0.644165
     57          1           0       10.594960   -3.243906    1.158238
     58          1           0        9.292220   -2.264893    0.287279
     59          1           0      -12.005568   -0.283871    2.548725
     60          1           0      -10.960271   -1.797225    2.246586
     61          1           0      -12.773508   -1.995015    2.574873
     62          1           0      -13.680886   -2.576421    0.326655
     63          1           0      -12.104441   -3.164954    0.055886
     64          1           0      -12.859511   -2.224851   -1.283502
     65          1           0        8.709046   -0.268856    0.521518
     66          1           0      -10.182099   -2.160900   -0.319957
     67          1           0       10.578671    1.462218   -2.246133
     68          1           0       11.966718    2.318535   -1.577613
     69          1           0       12.232272    0.920825   -2.831085
     70          1           0      -10.924305    2.581134   -2.308987
     71          1           0       -9.842503    1.071223   -2.121105
     72          1           0       -9.764054    2.275714   -0.992779
     73          1           0       14.727956   -3.158422    0.292110
     74          1           0      -15.459681    1.525775    1.330312
     75          1           0       10.062058    2.674671   -0.125264
     76          1           0       -8.624188    0.747162   -0.436655
     77          1           0        9.070827    4.101287    0.932621
     78          1           0        7.491110    4.344224   -0.282866
     79          1           0        7.047005    3.945142    1.368320
     80          1           0       -8.069336   -3.344062   -0.147654
     81          1           0       -8.100643   -2.896509   -1.994817
     82          1           0       -6.524228   -3.237700   -0.956842
     83          1           0        7.011144    0.498717   -0.461576
     84          1           0       -6.544933    0.401475   -0.002891
     85          1           0        5.501947    3.157921    0.601828
     86          1           0       -4.893254   -2.215422   -0.841903
     87          1           0        4.556827    0.268926   -0.503325
     88          1           0       -4.047410    0.541642   -0.100868
     89          1           0        3.038018    3.526132    1.544253
     90          1           0        1.690573    3.263413    0.434576
     91          1           0        3.529309    3.804432   -0.160669
     92          1           0       -2.446753   -3.153449    0.418007
     93          1           0       -2.931127   -2.566069   -1.361074
     94          1           0       -1.125743   -2.458852   -0.943880
     95          1           0        2.369326   -0.279011   -0.332305
     96          1           0       -1.968569    1.137743   -0.108008
     97          1           0        0.251132    1.930971    0.439518
     98          1           0        0.122321   -1.141535   -0.121592
 ---------------------------------------------------------------------

 SCF Done:  E(RCAM-B3LYP) =  -1706.88863511     A.U. after   15 cycles

 Excitation energies and oscillator strengths:

 Excited State   1:      Singlet-A      2.2280 eV  556.48 nm  f=3.7241  <S**2>=0.000
     155 ->158         0.16682
     156 ->157         0.68476
 This state for optimization and/or second-order correction.
 Total Energy, E(TD-HF/TD-DFT) =  -1706.80675727
 Copying the excited state density for this state as the 1-particle RhoCI density.

 The electronic state is 1-A.
 Alpha  occ. eigenvalues --  -19.23130 -19.20550 -10.31353 -10.31085 -10.28386
 Alpha  occ. eigenvalues --  -10.28087 -10.28084 -10.28013 -10.27744 -10.27635
 Alpha  occ. eigenvalues --  -10.27324 -10.27201 -10.27162 -10.27045 -10.26971
 Alpha  occ. eigenvalues --  -10.26959 -10.26949 -10.26920 -10.26653 -10.26639
 Alpha  occ. eigenvalues --  -10.26627 -10.26590 -10.26580 -10.26384 -10.26382
 Alpha  occ. eigenvalues --  -10.26219 -10.26192 -10.26160 -10.26132 -10.25967
 Alpha  occ. eigenvalues --  -10.25678 -10.25450 -10.25422 -10.25368 -10.25299
 Alpha  occ. eigenvalues --  -10.25086 -10.24990 -10.24701 -10.24565 -10.23958
 Alpha  occ. eigenvalues --  -10.23622 -10.23053  -1.10770  -1.09989  -0.94529
 Alpha  occ. eigenvalues --   -0.93381  -0.92046  -0.91428  -0.90568  -0.89595
 Alpha  occ. eigenvalues --   -0.87925  -0.87898  -0.86937  -0.85127  -0.83917
 Alpha  occ. eigenvalues --   -0.82731  -0.81490  -0.79005  -0.78761  -0.77875
 Alpha  occ. eigenvalues --   -0.77474  -0.76836  -0.76385  -0.76018  -0.75425
 Alpha  occ. eigenvalues --   -0.75353  -0.75254  -0.74859  -0.73009  -0.70462
 Alpha  occ. eigenvalues --   -0.69124  -0.67671  -0.66732  -0.65493  -0.64427
 Alpha  occ. eigenvalues --   -0.63872  -0.62695  -0.61511  -0.60040  -0.59486
 Alpha  occ. eigenvalues --   -0.58405  -0.58232  -0.58089  -0.56928  -0.56381
 Alpha  occ. eigenvalues --   -0.55744  -0.55364  -0.55265  -0.54216  -0.53883
 Alpha  occ. eigenvalues --   -0.53301  -0.53147  -0.52827  -0.51739  -0.51452
 Alpha  occ. eigenvalues --   -0.50535  -0.50337  -0.49891  -0.49588  -0.49171
 Alpha  occ. eigenvalues --   -0.48671  -0.48225  -0.48151  -0.47870  -0.47711
 Alpha  occ. eigenvalues --   -0.47196  -0.46763  -0.46689  -0.46290  -0.46220
 Alpha  occ. eigenvalues --   -0.45943  -0.45650  -0.45386  -0.45294  -0.44827
 Alpha  occ. eigenvalues --   -0.44515  -0.44213  -0.43870  -0.43649  -0.43191
 Alpha  occ. eigenvalues --   -0.42991  -0.42824  -0.42586  -0.41960  -0.41945
 Alpha  occ. eigenvalues --   -0.41829  -0.41640  -0.41543  -0.40923  -0.40475
 Alpha  occ. eigenvalues --   -0.40400  -0.40333  -0.39912  -0.39751  -0.39536
 Alpha  occ. eigenvalues --   -0.38929  -0.38721  -0.38305  -0.38169  -0.37808
 Alpha  occ. eigenvalues --   -0.36855  -0.36702  -0.36568  -0.36381  -0.35161
 Alpha  occ. eigenvalues --   -0.35095  -0.34510  -0.34151  -0.32205  -0.31759
 Alpha  occ. eigenvalues --   -0.31132  -0.30139  -0.28167  -0.25682  -0.22905
 Alpha  occ. eigenvalues --   -0.19354
 Alpha virt. eigenvalues --   -0.05576  -0.01149   0.01777   0.05433   0.08300
 Alpha virt. eigenvalues --    0.09785   0.10461   0.10890   0.11517   0.11819
 Alpha virt. eigenvalues --    0.12132   0.12393   0.12579   0.12790   0.12902

 Mulliken charges:
               1
     1  O   -0.581237
     2  O   -0.543804
     3  C   -0.063586
     4  C   -0.017460
     5  C   -0.198769
     6  C   -0.191594
     7  C    0.205029
     8  C    0.177014
     9  C    0.101301
    10  C    0.117970
    11  C   -0.171861
    12  C   -0.208547
    13  C    0.014150
    14  C    0.030109
    15  C   -0.313243
    16  C   -0.270359
    17  C   -0.283215
    18  C   -0.290349
    19  C   -0.124815
    20  C   -0.146296
    21  C   -0.366187
    22  C   -0.386339
    23  C   -0.117105
    24  C   -0.126542
    25  C    0.115458
    26  C    0.122148
    27  C   -0.370272
    28  C   -0.367464
    29  C   -0.099763
    30  C   -0.112404
    31  C   -0.106672
    32  C   -0.099523
    33  C   -0.127175
    34  C   -0.091556
    35  C    0.152558
    36  C    0.083228
    37  C   -0.370047
    38  C   -0.353614
    39  C   -0.139778
    40  C   -0.113234
    41  C   -0.106458
    42  C   -0.073949
    43  H    0.108478
    44  H    0.085894
    45  H    0.089213
    46  H    0.072538
    47  H    0.075842
    48  H    0.065324
    49  H    0.118293
    50  H    0.104420
    51  H    0.128228
    52  H    0.118010
    53  H    0.102745
    54  H    0.096504
    55  H    0.121699
    56  H    0.110066
    57  H    0.084033
    58  H    0.083768
    59  H    0.110322
    60  H    0.100706
    61  H    0.047150
    62  H    0.113512
    63  H    0.112510
    64  H    0.080607
    65  H    0.067714
    66  H    0.076878
    67  H    0.109585
    68  H    0.093267
    69  H    0.104272
    70  H    0.069422
    71  H    0.134180
    72  H    0.125568
    73  H    0.305999
    74  H    0.311518
    75  H    0.085469
    76  H    0.062730
    77  H    0.096366
    78  H    0.135202
    79  H    0.083641
    80  H    0.115660
    81  H    0.107280
    82  H    0.104278
    83  H    0.099449
    84  H    0.079949
    85  H    0.089163
    86  H    0.084615
    87  H    0.079242
    88  H    0.076235
    89  H    0.087996
    90  H    0.116937
    91  H    0.121075
    92  H    0.091022
    93  H    0.112158
    94  H    0.114659
    95  H    0.086563
    96  H    0.073622
    97  H    0.094792
    98  H    0.087888
 Sum of Mulliken charges =  -0.00000

 Dipole moment (field-independent basis, Debye):
    X=             -0.3544    Y=             -1.4269    Z=              1.5581  Tot=              2.1423
 Quadrupole moment (field-independent basis, Debye-Ang):
   XX=           -256.1098   YY=           -246.0623   ZZ=           -263.5241
   XY=              9.2868   XZ=             -4.7702   YZ=             -1.4519

 Normal termination of Gaussian 16 at Mon Jul 15 22:17:58 2019.
