 Gaussian 16, Revision A.03,
 Gaussian 16:  ES64L-G16RevA.03 25-Dec-2016

 -------------------------------------
 # td=(NStates=1) CAM-B3LYP/6-31G(d,p)
 -------------------------------------

 --
 TD
 --
 Symbolic Z-matrix:
 Charge =  0 Multiplicity = 1

                         Standard orientation:
 ---------------------------------------------------------------------
 Center     Atomic      Atomic             Coordinates (Angstroms)
 Number     Number       Type             X           Y           Z
 ---------------------------------------------------------------------
      1          8           0       14.627541   -2.343819   -0.753295
      2          8           0      -14.848115    1.855949    0.472347
      3          6           0       11.272187   -1.571161    0.826967
      4          6           0      -12.379187   -1.005605    0.525662
      5          6           0       12.746553   -1.813821    0.819257
      6          6           0      -13.698415   -0.393887    0.449240
      7          6           0       13.321938   -1.947481   -0.595450
      8          6           0      -13.578569    1.148576    0.546134
      9          6           0       11.003038   -0.230596   -0.010773
     10          6           0      -11.273897   -0.314994   -0.280793
     11          6           0       13.256957   -0.521278   -1.155195
     12          6           0      -12.805259    1.754231   -0.510333
     13          6           0       11.840622    0.044796   -0.995139
     14          6           0      -11.513214    0.854137   -0.748868
     15          6           0       10.897422   -1.187537    2.371305
     16          6           0       10.303143   -2.694480    0.504992
     17          6           0      -12.001272   -1.023947    2.101299
     18          6           0      -12.597727   -2.436806    0.017263
     19          6           0        9.662277    0.426134    0.197244
     20          6           0      -10.051559   -0.990672   -0.424843
     21          6           0       11.464713    1.123064   -1.989591
     22          6           0      -10.510395    1.531345   -1.752979
     23          6           0        9.354322    1.726204   -0.014418
     24          6           0       -8.732288   -0.428065   -0.329041
     25          6           0        8.105600    2.361102    0.179802
     26          6           0       -7.551149   -1.158786   -0.360557
     27          6           0        8.034664    3.791463    0.553180
     28          6           0       -7.606476   -2.595567   -0.888974
     29          6           0        6.828641    1.599742    0.088698
     30          6           0       -6.342995   -0.529572   -0.239698
     31          6           0        5.612017    2.123521    0.380064
     32          6           0       -5.012023   -1.085767   -0.338146
     33          6           0        4.478154    1.315146    0.238099
     34          6           0       -3.968615   -0.290700    0.034727
     35          6           0        3.140442    1.687975    0.406985
     36          6           0       -2.618075   -0.701662   -0.082814
     37          6           0        2.869317    3.210443    0.631969
     38          6           0       -2.393864   -2.110328   -0.510529
     39          6           0        2.113059    0.763599    0.132055
     40          6           0       -1.528684    0.198109    0.127958
     41          6           0        0.777544    0.988615    0.154859
     42          6           0       -0.140629   -0.028845   -0.088018
     43          1           0       13.402192   -1.167752    1.303793
     44          1           0       12.788142   -2.747729    1.299296
     45          1           0      -14.343673   -0.682664    1.307332
     46          1           0      -14.308027   -0.533679   -0.536879
     47          1           0       12.418311   -2.686561   -1.149770
     48          1           0      -13.203405    1.310992    1.424515
     49          1           0       13.862779   -0.054177   -0.414993
     50          1           0       13.559881   -0.381530   -2.179776
     51          1           0      -13.228919    1.833536   -1.593183
     52          1           0      -12.533346    2.700366   -0.161844
     53          1           0       11.656258   -1.902276    2.981482
     54          1           0        9.661690   -1.052648    2.689955
     55          1           0       11.530262   -0.292041    2.456545
     56          1           0       10.304626   -3.149378   -0.630877
     57          1           0       10.583267   -3.611528    1.041217
     58          1           0        9.338951   -2.303924    0.806953
     59          1           0      -12.021873   -0.116948    2.427302
     60          1           0      -11.032354   -1.646417    2.229848
     61          1           0      -12.591167   -1.590341    2.586649
     62          1           0      -13.467436   -2.874213    0.451320
     63          1           0      -11.623698   -2.929554    0.193218
     64          1           0      -12.701052   -2.344799   -1.119625
     65          1           0        8.896019   -0.251381    0.670471
     66          1           0       -9.994943   -2.207051   -0.445596
     67          1           0       10.515553    1.089791   -2.503333
     68          1           0       11.942288    2.127805   -1.814152
     69          1           0       12.262589    0.891005   -2.957626
     70          1           0      -11.041465    1.943157   -2.726052
     71          1           0       -9.747238    0.827611   -2.185831
     72          1           0       -9.875269    2.360541   -1.384078
     73          1           0       14.997528   -3.142601   -0.208059
     74          1           0      -15.712204    1.457996    1.023234
     75          1           0       10.211105    2.492330   -0.085861
     76          1           0       -8.616684    0.784282   -0.150543
     77          1           0        9.004277    4.306650    0.880699
     78          1           0        7.481615    4.199916   -0.240336
     79          1           0        7.231471    3.856742    1.439612
     80          1           0       -8.149604   -3.293890   -0.012932
     81          1           0       -8.290699   -2.810543   -1.771249
     82          1           0       -6.492877   -2.874089   -0.999478
     83          1           0        6.917279    0.439233   -0.051909
     84          1           0       -6.429788    0.605719   -0.071809
     85          1           0        5.366621    3.156649    0.378938
     86          1           0       -4.888757   -2.001160   -0.754439
     87          1           0        4.812299    0.260257   -0.095718
     88          1           0       -4.242228    0.855090    0.195681
     89          1           0        3.870404    3.677812    1.393858
     90          1           0        1.804250    3.396769    1.053532
     91          1           0        3.141335    3.856926   -0.217170
     92          1           0       -2.777846   -2.847105    0.192058
     93          1           0       -2.977767   -2.207467   -1.365491
     94          1           0       -1.366392   -2.111886   -0.682389
     95          1           0        2.274010   -0.284777    0.067006
     96          1           0       -1.784362    1.173616    0.255651
     97          1           0        0.578153    2.010733    0.370515
     98          1           0        0.124592   -1.132332   -0.191708
 ---------------------------------------------------------------------

 SCF Done:  E(RCAM-B3LYP) =  -1706.88895147     A.U. after   16 cycles

 Excitation energies and oscillator strengths:

 Excited State   1:      Singlet-A      1.8475 eV  671.09 nm  f=3.6733  <S**2>=0.000
     155 ->158        -0.14560
     156 ->157         0.69571
     156 <-157        -0.10835
 This state for optimization and/or second-order correction.
 Total Energy, E(TD-HF/TD-DFT) =  -1706.82105680
 Copying the excited state density for this state as the 1-particle RhoCI density.

 The electronic state is 1-A.
 Alpha  occ. eigenvalues --  -19.22873 -19.20433 -10.32129 -10.29153 -10.28186
 Alpha  occ. eigenvalues --  -10.28095 -10.28089 -10.27825 -10.27821 -10.27549
 Alpha  occ. eigenvalues --  -10.27524 -10.27407 -10.27365 -10.27218 -10.27061
 Alpha  occ. eigenvalues --  -10.26993 -10.26764 -10.26633 -10.26591 -10.26586
 Alpha  occ. eigenvalues --  -10.26500 -10.26380 -10.26360 -10.26329 -10.26269
 Alpha  occ. eigenvalues --  -10.26162 -10.26108 -10.26058 -10.25998 -10.25906
 Alpha  occ. eigenvalues --  -10.25723 -10.25615 -10.25468 -10.25305 -10.25121
 Alpha  occ. eigenvalues --  -10.25015 -10.24914 -10.24753 -10.24456 -10.24388
 Alpha  occ. eigenvalues --  -10.24290 -10.22561  -1.10233  -1.05249  -0.94200
 Alpha  occ. eigenvalues --   -0.93570  -0.92580  -0.91886  -0.90750  -0.90008
 Alpha  occ. eigenvalues --   -0.87968  -0.86910  -0.86716  -0.85453  -0.84810
 Alpha  occ. eigenvalues --   -0.83768  -0.82344  -0.80237  -0.79014  -0.78094
 Alpha  occ. eigenvalues --   -0.77576  -0.76507  -0.75692  -0.75346  -0.75292
 Alpha  occ. eigenvalues --   -0.75203  -0.74598  -0.73992  -0.73070  -0.70644
 Alpha  occ. eigenvalues --   -0.69121  -0.67475  -0.66013  -0.65231  -0.64147
 Alpha  occ. eigenvalues --   -0.63038  -0.62957  -0.62585  -0.60879  -0.60178
 Alpha  occ. eigenvalues --   -0.59158  -0.58414  -0.57942  -0.57364  -0.57199
 Alpha  occ. eigenvalues --   -0.56488  -0.55305  -0.54522  -0.53959  -0.53336
 Alpha  occ. eigenvalues --   -0.52867  -0.52243  -0.51741  -0.51586  -0.50755
 Alpha  occ. eigenvalues --   -0.50626  -0.50188  -0.49765  -0.49498  -0.49396
 Alpha  occ. eigenvalues --   -0.49021  -0.48628  -0.48342  -0.48108  -0.47816
 Alpha  occ. eigenvalues --   -0.47255  -0.46830  -0.46758  -0.46481  -0.45981
 Alpha  occ. eigenvalues --   -0.45900  -0.45433  -0.45220  -0.44947  -0.44703
 Alpha  occ. eigenvalues --   -0.44664  -0.44311  -0.43956  -0.43521  -0.43105
 Alpha  occ. eigenvalues --   -0.42927  -0.42740  -0.42552  -0.42360  -0.42128
 Alpha  occ. eigenvalues --   -0.42064  -0.41566  -0.41472  -0.41347  -0.40926
 Alpha  occ. eigenvalues --   -0.40619  -0.40286  -0.40065  -0.39935  -0.39465
 Alpha  occ. eigenvalues --   -0.39148  -0.38451  -0.38053  -0.37541  -0.37408
 Alpha  occ. eigenvalues --   -0.36619  -0.36495  -0.36426  -0.36255  -0.35286
 Alpha  occ. eigenvalues --   -0.34887  -0.34478  -0.34323  -0.32863  -0.31592
 Alpha  occ. eigenvalues --   -0.31084  -0.30369  -0.28584  -0.26025  -0.22634
 Alpha  occ. eigenvalues --   -0.18396
 Alpha virt. eigenvalues --   -0.06961  -0.01784   0.01816   0.05570   0.08195
 Alpha virt. eigenvalues --    0.10171   0.10241   0.10616   0.10892   0.11148
 Alpha virt. eigenvalues --    0.11402   0.11975   0.13006   0.13191   0.13302

 Mulliken charges:
               1
     1  O   -0.564796
     2  O   -0.606206
     3  C   -0.020937
     4  C   -0.041922
     5  C   -0.208758
     6  C   -0.200071
     7  C    0.206282
     8  C    0.202613
     9  C    0.078154
    10  C    0.168820
    11  C   -0.185932
    12  C   -0.182032
    13  C    0.039436
    14  C   -0.022859
    15  C   -0.299815
    16  C   -0.273766
    17  C   -0.293493
    18  C   -0.295885
    19  C   -0.107931
    20  C   -0.172845
    21  C   -0.361058
    22  C   -0.372012
    23  C   -0.103578
    24  C   -0.101004
    25  C    0.063719
    26  C    0.133103
    27  C   -0.374292
    28  C   -0.353317
    29  C   -0.129182
    30  C   -0.137481
    31  C   -0.060411
    32  C   -0.084076
    33  C   -0.116366
    34  C   -0.096101
    35  C    0.090247
    36  C    0.059886
    37  C   -0.366507
    38  C   -0.355894
    39  C   -0.097940
    40  C   -0.100220
    41  C   -0.054026
    42  C   -0.118485
    43  H    0.103495
    44  H    0.085078
    45  H    0.079209
    46  H    0.085997
    47  H    0.022471
    48  H    0.087204
    49  H    0.121654
    50  H    0.110929
    51  H    0.114943
    52  H    0.124000
    53  H    0.076974
    54  H    0.093150
    55  H    0.112419
    56  H    0.080685
    57  H    0.105218
    58  H    0.105192
    59  H    0.111449
    60  H    0.089153
    61  H    0.109090
    62  H    0.105398
    63  H    0.091620
    64  H    0.097622
    65  H    0.081839
    66  H    0.073185
    67  H    0.141344
    68  H    0.120183
    69  H    0.041677
    70  H    0.080806
    71  H    0.120108
    72  H    0.107896
    73  H    0.316255
    74  H    0.295417
    75  H    0.084780
    76  H    0.078016
    77  H    0.112478
    78  H    0.142814
    79  H    0.111674
    80  H    0.085276
    81  H    0.131236
    82  H    0.094800
    83  H    0.079072
    84  H    0.076397
    85  H    0.080599
    86  H    0.089678
    87  H    0.075472
    88  H    0.081227
    89  H    0.069997
    90  H    0.112201
    91  H    0.141216
    92  H    0.125863
    93  H    0.129994
    94  H    0.101290
    95  H    0.078916
    96  H    0.074834
    97  H    0.074049
    98  H    0.093398
 Sum of Mulliken charges =  -0.00000

 Dipole moment (field-independent basis, Debye):
    X=              1.9789    Y=             -1.4202    Z=              1.6749  Tot=              2.9560
 Quadrupole moment (field-independent basis, Debye-Ang):
   XX=           -244.5811   YY=           -245.6127   ZZ=           -267.6540
   XY=             10.2232   XZ=              1.7479   YZ=             -1.3847

 Normal termination of Gaussian 16 at Fri Jul 12 17:24:14 2019.
