 Gaussian 16, Revision A.03,
 Gaussian 16:  ES64L-G16RevA.03 25-Dec-2016

 -------------------------------------
 # td=(NStates=1) CAM-B3LYP/6-31G(d,p)
 -------------------------------------

 --
 TD
 --
 Symbolic Z-matrix:
 Charge =  0 Multiplicity = 1

                         Standard orientation:
 ---------------------------------------------------------------------
 Center     Atomic      Atomic             Coordinates (Angstroms)
 Number     Number       Type             X           Y           Z
 ---------------------------------------------------------------------
      1          8           0       14.712295   -2.187420   -0.125329
      2          8           0      -14.615811    2.016733    0.985539
      3          6           0       11.115936   -1.438086    1.060951
      4          6           0      -12.381416   -0.975004    0.692872
      5          6           0       12.641724   -1.920875    1.154533
      6          6           0      -13.686600   -0.240000    0.772870
      7          6           0       13.324120   -1.869965   -0.238787
      8          6           0      -13.379162    1.363262    0.951975
      9          6           0       10.881322   -0.210529    0.089505
     10          6           0      -11.193119   -0.293585   -0.089631
     11          6           0       13.252171   -0.529684   -0.848496
     12          6           0      -12.588243    1.892363   -0.214019
     13          6           0       11.929225    0.046972   -0.787803
     14          6           0      -11.355544    1.080553   -0.515154
     15          6           0       10.765973   -1.069697    2.437645
     16          6           0       10.299860   -2.618379    0.573031
     17          6           0      -11.967357   -1.133974    2.164238
     18          6           0      -12.732388   -2.259198    0.128236
     19          6           0        9.668069    0.384043    0.043241
     20          6           0      -10.099988   -1.062367   -0.357316
     21          6           0       11.633581    1.177648   -1.841633
     22          6           0      -10.466377    1.699104   -1.513043
     23          6           0        9.340454    1.672395   -0.066677
     24          6           0       -8.756562   -0.560669   -0.305073
     25          6           0        8.038264    2.321600    0.019828
     26          6           0       -7.565078   -1.283658   -0.537632
     27          6           0        7.973731    3.750082    0.620392
     28          6           0       -7.686250   -2.733323   -1.052796
     29          6           0        6.817371    1.580728   -0.040720
     30          6           0       -6.342965   -0.658266   -0.436379
     31          6           0        5.572665    2.086180    0.135033
     32          6           0       -5.084587   -1.206221   -0.697548
     33          6           0        4.439486    1.242275   -0.138655
     34          6           0       -3.960646   -0.403562   -0.301429
     35          6           0        3.165787    1.746852   -0.019080
     36          6           0       -2.612987   -0.820537   -0.541183
     37          6           0        2.837007    3.005366    0.605464
     38          6           0       -2.295055   -2.250722   -1.166051
     39          6           0        2.136121    0.801958   -0.310720
     40          6           0       -1.608508    0.075832   -0.400819
     41          6           0        0.709430    0.907282   -0.162127
     42          6           0       -0.228981   -0.044166   -0.514723
     43          1           0       12.987897   -1.068672    1.707801
     44          1           0       12.663878   -2.855214    1.709111
     45          1           0      -14.466282   -0.388615    1.494752
     46          1           0      -13.958267   -0.348127   -0.285938
     47          1           0       12.653228   -2.603090   -0.796599
     48          1           0      -12.836546    1.433426    1.726328
     49          1           0       14.203844    0.077971   -0.571684
     50          1           0       13.324701   -0.686152   -1.862240
     51          1           0      -13.384960    1.680677   -1.007785
     52          1           0      -12.396596    2.972278   -0.084035
     53          1           0       11.229407   -1.831667    3.300196
     54          1           0        9.710682   -0.727536    2.799579
     55          1           0       11.426384   -0.190440    2.533714
     56          1           0       10.647741   -3.197526   -0.339415
     57          1           0       10.220747   -3.436228    1.341608
     58          1           0        9.282150   -2.238715    0.344143
     59          1           0      -11.765850   -0.184834    2.715332
     60          1           0      -11.086249   -1.774865    2.264962
     61          1           0      -12.744481   -1.521553    2.843833
     62          1           0      -13.695772   -2.531502    0.543238
     63          1           0      -11.902185   -3.249661    0.287786
     64          1           0      -12.857411   -2.091662   -0.967330
     65          1           0        8.902462   -0.228172    0.382308
     66          1           0      -10.317969   -2.152523   -0.681016
     67          1           0       10.583016    1.515335   -1.866663
     68          1           0       12.196433    2.086424   -1.435017
     69          1           0       12.102297    1.171093   -2.918077
     70          1           0      -11.014605    2.386841   -2.233726
     71          1           0       -9.884999    0.924446   -2.101916
     72          1           0       -9.670354    2.190856   -1.043972
     73          1           0       14.694720   -2.896129    0.237894
     74          1           0      -15.415179    1.226103    1.268875
     75          1           0       10.191430    2.257562   -0.211753
     76          1           0       -8.523612    0.508379   -0.187540
     77          1           0        9.060516    4.118463    0.553703
     78          1           0        7.540873    4.474934   -0.296140
     79          1           0        7.307363    3.998532    1.622536
     80          1           0       -8.204251   -3.602948   -0.493859
     81          1           0       -7.980000   -2.841296   -1.990555
     82          1           0       -6.636285   -2.933497   -1.107062
     83          1           0        7.093906    0.545802   -0.240374
     84          1           0       -6.071456    0.411237   -0.343761
     85          1           0        5.359882    3.164421    0.403993
     86          1           0       -5.103387   -2.239135   -1.300025
     87          1           0        4.647861    0.371734   -0.424471
     88          1           0       -4.234063    0.489230    0.170829
     89          1           0        3.819070    3.323666    1.417724
     90          1           0        1.826220    2.981327    1.422748
     91          1           0        2.666722    3.832651   -0.254031
     92          1           0       -2.913651   -2.925317   -0.590549
     93          1           0       -2.838469   -2.567409   -2.118123
     94          1           0       -1.276362   -2.656087   -0.979807
     95          1           0        2.327453   -0.375727   -0.720322
     96          1           0       -2.007849    1.045125   -0.018350
     97          1           0        0.274408    1.862221    0.365532
     98          1           0        0.167023   -0.853118   -0.981997
 ---------------------------------------------------------------------

 SCF Done:  E(RCAM-B3LYP) =  -1706.81890479     A.U. after   16 cycles

 Excitation energies and oscillator strengths:

 Excited State   1:      Singlet-A      1.8620 eV  665.86 nm  f=3.8406  <S**2>=0.000
     155 ->158         0.16235
     156 ->157         0.68930
 This state for optimization and/or second-order correction.
 Total Energy, E(TD-HF/TD-DFT) =  -1706.75047720
 Copying the excited state density for this state as the 1-particle RhoCI density.

 The electronic state is 1-A.
 Alpha  occ. eigenvalues --  -19.22167 -19.20155 -10.30810 -10.30304 -10.28618
 Alpha  occ. eigenvalues --  -10.28568 -10.28408 -10.28143 -10.27917 -10.27799
 Alpha  occ. eigenvalues --  -10.27654 -10.27625 -10.27594 -10.27494 -10.27467
 Alpha  occ. eigenvalues --  -10.27455 -10.27270 -10.27007 -10.26897 -10.26509
 Alpha  occ. eigenvalues --  -10.26483 -10.26461 -10.26435 -10.26303 -10.26255
 Alpha  occ. eigenvalues --  -10.26063 -10.26046 -10.25893 -10.25821 -10.25746
 Alpha  occ. eigenvalues --  -10.25626 -10.25616 -10.25525 -10.25441 -10.25208
 Alpha  occ. eigenvalues --  -10.24984 -10.24980 -10.24878 -10.24821 -10.24817
 Alpha  occ. eigenvalues --  -10.24493 -10.24097  -1.14139  -1.07524  -0.94563
 Alpha  occ. eigenvalues --   -0.94099  -0.92543  -0.92114  -0.90696  -0.90099
 Alpha  occ. eigenvalues --   -0.88263  -0.87944  -0.87483  -0.86527  -0.85093
 Alpha  occ. eigenvalues --   -0.83164  -0.82130  -0.79823  -0.79603  -0.77837
 Alpha  occ. eigenvalues --   -0.77272  -0.76477  -0.76421  -0.76105  -0.75766
 Alpha  occ. eigenvalues --   -0.75502  -0.75190  -0.75039  -0.72720  -0.70450
 Alpha  occ. eigenvalues --   -0.69465  -0.67987  -0.66521  -0.65609  -0.63795
 Alpha  occ. eigenvalues --   -0.63297  -0.62495  -0.62041  -0.61714  -0.60787
 Alpha  occ. eigenvalues --   -0.60367  -0.59845  -0.58150  -0.57416  -0.56556
 Alpha  occ. eigenvalues --   -0.55943  -0.55629  -0.55366  -0.54622  -0.53925
 Alpha  occ. eigenvalues --   -0.53535  -0.52850  -0.52306  -0.51748  -0.51320
 Alpha  occ. eigenvalues --   -0.50669  -0.50232  -0.49729  -0.49107  -0.48765
 Alpha  occ. eigenvalues --   -0.48606  -0.48426  -0.48257  -0.48089  -0.47922
 Alpha  occ. eigenvalues --   -0.47560  -0.47205  -0.46976  -0.46508  -0.46308
 Alpha  occ. eigenvalues --   -0.46015  -0.45615  -0.45537  -0.45383  -0.44976
 Alpha  occ. eigenvalues --   -0.44854  -0.44564  -0.44359  -0.43972  -0.43638
 Alpha  occ. eigenvalues --   -0.43552  -0.42991  -0.42870  -0.42706  -0.42539
 Alpha  occ. eigenvalues --   -0.42277  -0.41312  -0.41220  -0.40784  -0.40711
 Alpha  occ. eigenvalues --   -0.40413  -0.40274  -0.40028  -0.39510  -0.39498
 Alpha  occ. eigenvalues --   -0.39169  -0.38889  -0.38712  -0.38041  -0.37787
 Alpha  occ. eigenvalues --   -0.37278  -0.37172  -0.37004  -0.36771  -0.36061
 Alpha  occ. eigenvalues --   -0.35171  -0.34509  -0.33872  -0.32733  -0.32106
 Alpha  occ. eigenvalues --   -0.31549  -0.30224  -0.27928  -0.25772  -0.22104
 Alpha  occ. eigenvalues --   -0.18701
 Alpha virt. eigenvalues --   -0.06976  -0.02526   0.01478   0.04556   0.07079
 Alpha virt. eigenvalues --    0.07339   0.09392   0.10906   0.11271   0.11446
 Alpha virt. eigenvalues --    0.12049   0.12342   0.12747   0.12954   0.13712

 Mulliken charges:
               1
     1  O   -0.496685
     2  O   -0.576898
     3  C   -0.028530
     4  C    0.001545
     5  C   -0.201678
     6  C   -0.233549
     7  C    0.140340
     8  C    0.215804
     9  C    0.063621
    10  C    0.067721
    11  C   -0.215022
    12  C   -0.233028
    13  C    0.049146
    14  C    0.061445
    15  C   -0.293280
    16  C   -0.296661
    17  C   -0.298233
    18  C   -0.293322
    19  C   -0.088067
    20  C   -0.149506
    21  C   -0.385816
    22  C   -0.378435
    23  C   -0.122899
    24  C   -0.101517
    25  C    0.058989
    26  C    0.080520
    27  C   -0.354411
    28  C   -0.358834
    29  C   -0.097811
    30  C   -0.120787
    31  C   -0.107803
    32  C   -0.084040
    33  C   -0.040967
    34  C   -0.148009
    35  C    0.134796
    36  C    0.119274
    37  C   -0.357157
    38  C   -0.384675
    39  C   -0.135170
    40  C   -0.121412
    41  C   -0.077499
    42  C   -0.069149
    43  H    0.101168
    44  H    0.094533
    45  H    0.088098
    46  H    0.094240
    47  H    0.075221
    48  H    0.088080
    49  H    0.127994
    50  H    0.130885
    51  H    0.115656
    52  H    0.113173
    53  H    0.071370
    54  H    0.101424
    55  H    0.108202
    56  H    0.093289
    57  H    0.093107
    58  H    0.096508
    59  H    0.099250
    60  H    0.101753
    61  H    0.088197
    62  H    0.109842
    63  H    0.060041
    64  H    0.105165
    65  H    0.075933
    66  H    0.097501
    67  H    0.129814
    68  H    0.105362
    69  H    0.092096
    70  H    0.105717
    71  H    0.117406
    72  H    0.128201
    73  H    0.264381
    74  H    0.301068
    75  H    0.088778
    76  H    0.078922
    77  H    0.106502
    78  H    0.087024
    79  H    0.117314
    80  H    0.109168
    81  H    0.137967
    82  H    0.090635
    83  H    0.080132
    84  H    0.091417
    85  H    0.096174
    86  H    0.092306
    87  H    0.063097
    88  H    0.098437
    89  H    0.084189
    90  H    0.099216
    91  H    0.121900
    92  H    0.120845
    93  H    0.119572
    94  H    0.117684
    95  H    0.066806
    96  H    0.070414
    97  H    0.068828
    98  H    0.075644
 Sum of Mulliken charges =  -0.00000

 Dipole moment (field-independent basis, Debye):
    X=             -1.5246    Y=             -2.0403    Z=              0.3688  Tot=              2.5735
 Quadrupole moment (field-independent basis, Debye-Ang):
   XX=           -274.1337   YY=           -248.5881   ZZ=           -264.1849
   XY=             15.5430   XZ=              5.5275   YZ=              1.8053

 Normal termination of Gaussian 16 at Wed Jul 10 00:12:23 2019.
