 Gaussian 16, Revision A.03,
 Gaussian 16:  ES64L-G16RevA.03 25-Dec-2016

 -------------------------------------
 # td=(NStates=1) CAM-B3LYP/6-31G(d,p)
 -------------------------------------

 --
 TD
 --
 Symbolic Z-matrix:
 Charge =  0 Multiplicity = 1

                         Standard orientation:
 ---------------------------------------------------------------------
 Center     Atomic      Atomic             Coordinates (Angstroms)
 Number     Number       Type             X           Y           Z
 ---------------------------------------------------------------------
      1          8           0       14.766649   -2.166375   -0.199937
      2          8           0      -15.004310    1.816654    0.648152
      3          6           0       11.240850   -1.458387    0.859579
      4          6           0      -12.453896   -1.117903    0.529654
      5          6           0       12.735949   -1.884174    0.969141
      6          6           0      -13.794115   -0.322958    0.324819
      7          6           0       13.392649   -1.946404   -0.326524
      8          6           0      -13.710518    1.110909    0.704851
      9          6           0       11.044934   -0.319567   -0.058484
     10          6           0      -11.292715   -0.280034   -0.094869
     11          6           0       13.353490   -0.611364   -1.080655
     12          6           0      -12.818424    1.749641   -0.354480
     13          6           0       11.992007    0.025077   -1.089321
     14          6           0      -11.403189    1.008486   -0.537105
     15          6           0       10.751472   -1.072584    2.319835
     16          6           0       10.387194   -2.730877    0.469649
     17          6           0      -12.158386   -1.391692    1.986275
     18          6           0      -12.686418   -2.352249   -0.243631
     19          6           0        9.686421    0.352365    0.015599
     20          6           0      -10.066879   -1.008059   -0.286223
     21          6           0       11.775327    1.129396   -2.041434
     22          6           0      -10.492722    1.863346   -1.383634
     23          6           0        9.380970    1.612162   -0.163641
     24          6           0       -8.759126   -0.448940   -0.284087
     25          6           0        8.071097    2.211374    0.175637
     26          6           0       -7.594008   -1.261508   -0.474686
     27          6           0        8.112273    3.725897    0.590292
     28          6           0       -7.485074   -2.617709   -0.858346
     29          6           0        6.893929    1.602662   -0.006900
     30          6           0       -6.413007   -0.502140   -0.270043
     31          6           0        5.619819    2.018540    0.296359
     32          6           0       -5.180788   -0.984902   -0.378786
     33          6           0        4.461782    1.323926    0.024517
     34          6           0       -3.969650   -0.269448   -0.247581
     35          6           0        3.166528    1.770948    0.257707
     36          6           0       -2.569821   -0.636638   -0.395254
     37          6           0        2.863301    3.144559    0.768144
     38          6           0       -2.411455   -2.076389   -0.798326
     39          6           0        2.135154    0.881578    0.090279
     40          6           0       -1.608134    0.254415   -0.111981
     41          6           0        0.781406    1.030406    0.298708
     42          6           0       -0.264100   -0.009510   -0.114914
     43          1           0       13.360711   -1.380822    1.652435
     44          1           0       12.976006   -2.817483    1.585343
     45          1           0      -14.632159   -0.948307    0.837842
     46          1           0      -14.179091   -0.352114   -0.834437
     47          1           0       12.874084   -2.787682   -1.057791
     48          1           0      -13.132145    1.289479    1.752444
     49          1           0       14.044031    0.297531   -0.694809
     50          1           0       13.506773   -0.847351   -2.023655
     51          1           0      -13.218248    1.946906   -1.287959
     52          1           0      -12.517644    2.773640   -0.014146
     53          1           0       10.792735   -2.046125    2.969411
     54          1           0        9.579906   -0.881011    2.129469
     55          1           0       11.140314   -0.116291    2.721065
     56          1           0       10.852179   -3.199367   -0.565095
     57          1           0       10.212410   -3.704146    1.149377
     58          1           0        9.368539   -2.521333    0.167987
     59          1           0      -12.049027   -0.397665    2.514435
     60          1           0      -10.941095   -1.628965    1.907731
     61          1           0      -12.954199   -2.324017    2.708559
     62          1           0      -13.627419   -3.062648   -0.107138
     63          1           0      -11.782525   -3.015475   -0.107520
     64          1           0      -12.684595   -2.223957   -1.293745
     65          1           0        8.793301   -0.115296    0.554635
     66          1           0      -10.293570   -2.019990   -0.519516
     67          1           0       10.724088    1.433608   -2.238176
     68          1           0       12.298521    2.161378   -1.749722
     69          1           0       12.242151    0.866223   -3.103191
     70          1           0      -10.804557    2.511780   -2.090977
     71          1           0      -10.063242    1.130247   -2.127771
     72          1           0       -9.787193    2.473849   -0.877599
     73          1           0       14.984016   -2.873414    0.465713
     74          1           0      -15.617537    1.343228    1.305807
     75          1           0       10.189423    2.337241   -0.440979
     76          1           0       -8.634045    0.502857    0.044354
     77          1           0        9.049227    4.136528    0.758811
     78          1           0        7.629176    4.401264   -0.262684
     79          1           0        7.514509    3.914467    1.664613
     80          1           0       -7.997190   -3.275565   -0.144882
     81          1           0       -8.003627   -2.754234   -1.794824
     82          1           0       -6.487881   -2.967829   -0.681155
     83          1           0        6.890618    0.503509   -0.317644
     84          1           0       -6.346709    0.646183    0.020568
     85          1           0        5.604384    2.990275    0.827027
     86          1           0       -4.902181   -2.044055   -0.847687
     87          1           0        4.627729    0.233120   -0.478513
     88          1           0       -4.132538    0.632041    0.201811
     89          1           0        3.452869    3.242098    1.673968
     90          1           0        1.779040    3.319900    0.889100
     91          1           0        3.331286    3.950450    0.214388
     92          1           0       -2.580737   -2.700947   -0.054133
     93          1           0       -3.039519   -2.291589   -1.578991
     94          1           0       -1.308124   -2.314806   -1.237102
     95          1           0        2.507010   -0.155875   -0.392559
     96          1           0       -1.707085    1.235613    0.187824
     97          1           0        0.462555    2.056608    0.580736
     98          1           0        0.252812   -0.837416   -0.627615
 ---------------------------------------------------------------------

 SCF Done:  E(RCAM-B3LYP) =  -1706.92041549     A.U. after   15 cycles

 Excitation energies and oscillator strengths:

 Excited State   1:      Singlet-A      1.9171 eV  646.73 nm  f=3.9003  <S**2>=0.000
     155 ->158        -0.13409
     156 ->157         0.69871
     156 <-157        -0.10837
 This state for optimization and/or second-order correction.
 Total Energy, E(TD-HF/TD-DFT) =  -1706.84996369
 Copying the excited state density for this state as the 1-particle RhoCI density.

 The electronic state is 1-A.
 Alpha  occ. eigenvalues --  -19.21447 -19.21196 -10.31334 -10.31099 -10.28960
 Alpha  occ. eigenvalues --  -10.28521 -10.28251 -10.28029 -10.27667 -10.27534
 Alpha  occ. eigenvalues --  -10.27485 -10.27401 -10.27374 -10.27351 -10.27250
 Alpha  occ. eigenvalues --  -10.27199 -10.26972 -10.26893 -10.26804 -10.26681
 Alpha  occ. eigenvalues --  -10.26586 -10.26558 -10.26533 -10.26442 -10.26396
 Alpha  occ. eigenvalues --  -10.26263 -10.26077 -10.26058 -10.26003 -10.25694
 Alpha  occ. eigenvalues --  -10.25612 -10.25354 -10.25347 -10.25339 -10.25224
 Alpha  occ. eigenvalues --  -10.25060 -10.25052 -10.25009 -10.24888 -10.24835
 Alpha  occ. eigenvalues --  -10.24804 -10.24802  -1.09707  -1.06786  -0.93980
 Alpha  occ. eigenvalues --   -0.93116  -0.92664  -0.92146  -0.91239  -0.90124
 Alpha  occ. eigenvalues --   -0.87277  -0.86701  -0.86595  -0.85904  -0.84771
 Alpha  occ. eigenvalues --   -0.83433  -0.82231  -0.80780  -0.80145  -0.79126
 Alpha  occ. eigenvalues --   -0.77931  -0.76569  -0.76487  -0.76092  -0.75876
 Alpha  occ. eigenvalues --   -0.74852  -0.74456  -0.73970  -0.73013  -0.71114
 Alpha  occ. eigenvalues --   -0.68840  -0.67405  -0.65577  -0.64633  -0.64049
 Alpha  occ. eigenvalues --   -0.63406  -0.62240  -0.61753  -0.60930  -0.59894
 Alpha  occ. eigenvalues --   -0.59432  -0.58141  -0.57877  -0.57093  -0.56053
 Alpha  occ. eigenvalues --   -0.55834  -0.55730  -0.55113  -0.54476  -0.53855
 Alpha  occ. eigenvalues --   -0.53045  -0.52867  -0.52232  -0.51650  -0.51156
 Alpha  occ. eigenvalues --   -0.50784  -0.50351  -0.50287  -0.49976  -0.49376
 Alpha  occ. eigenvalues --   -0.49099  -0.48946  -0.47989  -0.47717  -0.47589
 Alpha  occ. eigenvalues --   -0.47443  -0.47012  -0.46707  -0.46386  -0.46173
 Alpha  occ. eigenvalues --   -0.45802  -0.45461  -0.45347  -0.45050  -0.44536
 Alpha  occ. eigenvalues --   -0.44409  -0.44170  -0.43663  -0.43178  -0.43056
 Alpha  occ. eigenvalues --   -0.42725  -0.42554  -0.42448  -0.42121  -0.41830
 Alpha  occ. eigenvalues --   -0.41550  -0.41365  -0.41331  -0.40513  -0.40418
 Alpha  occ. eigenvalues --   -0.40254  -0.39844  -0.39590  -0.39359  -0.38999
 Alpha  occ. eigenvalues --   -0.38843  -0.38630  -0.38164  -0.38031  -0.37915
 Alpha  occ. eigenvalues --   -0.37704  -0.37371  -0.36814  -0.36045  -0.35665
 Alpha  occ. eigenvalues --   -0.35203  -0.34957  -0.34526  -0.33529  -0.32052
 Alpha  occ. eigenvalues --   -0.31714  -0.30060  -0.28344  -0.25688  -0.23031
 Alpha  occ. eigenvalues --   -0.18337
 Alpha virt. eigenvalues --   -0.06679  -0.01248   0.01974   0.05089   0.06933
 Alpha virt. eigenvalues --    0.09814   0.10587   0.11356   0.11767   0.12292
 Alpha virt. eigenvalues --    0.12364   0.12787   0.12868   0.13220   0.13655

 Mulliken charges:
               1
     1  O   -0.564631
     2  O   -0.571800
     3  C   -0.019697
     4  C    0.013439
     5  C   -0.192349
     6  C   -0.174322
     7  C    0.191233
     8  C    0.171239
     9  C    0.071839
    10  C    0.051107
    11  C   -0.169702
    12  C   -0.215770
    13  C    0.045132
    14  C    0.026201
    15  C   -0.292930
    16  C   -0.299489
    17  C   -0.262258
    18  C   -0.311601
    19  C   -0.114456
    20  C   -0.147048
    21  C   -0.370645
    22  C   -0.373642
    23  C   -0.103848
    24  C   -0.078267
    25  C    0.047661
    26  C    0.116204
    27  C   -0.358502
    28  C   -0.379961
    29  C   -0.095277
    30  C   -0.117300
    31  C   -0.084029
    32  C   -0.078869
    33  C   -0.124848
    34  C   -0.141335
    35  C    0.138323
    36  C    0.111229
    37  C   -0.375073
    38  C   -0.370637
    39  C   -0.113853
    40  C   -0.095011
    41  C   -0.126234
    42  C   -0.101220
    43  H    0.107675
    44  H    0.064993
    45  H    0.069030
    46  H    0.083557
    47  H    0.054721
    48  H    0.067321
    49  H    0.109223
    50  H    0.118509
    51  H    0.126393
    52  H    0.098707
    53  H    0.093958
    54  H    0.081210
    55  H    0.112376
    56  H    0.075576
    57  H    0.091283
    58  H    0.113151
    59  H    0.107770
    60  H    0.088605
    61  H    0.060711
    62  H    0.095424
    63  H    0.089848
    64  H    0.118211
    65  H    0.089675
    66  H    0.081612
    67  H    0.132954
    68  H    0.102154
    69  H    0.090564
    70  H    0.122593
    71  H    0.119281
    72  H    0.124621
    73  H    0.301227
    74  H    0.305924
    75  H    0.086601
    76  H    0.088061
    77  H    0.120856
    78  H    0.109705
    79  H    0.091104
    80  H    0.120035
    81  H    0.132366
    82  H    0.123874
    83  H    0.070297
    84  H    0.083100
    85  H    0.075404
    86  H    0.063954
    87  H    0.077594
    88  H    0.061913
    89  H    0.125957
    90  H    0.108251
    91  H    0.124857
    92  H    0.143434
    93  H    0.133165
    94  H    0.083324
    95  H    0.064850
    96  H    0.087549
    97  H    0.077734
    98  H    0.088159
 Sum of Mulliken charges =  -0.00000

 Dipole moment (field-independent basis, Debye):
    X=             -0.5234    Y=             -1.2790    Z=              0.8049  Tot=              1.5993
 Quadrupole moment (field-independent basis, Debye-Ang):
   XX=           -268.0569   YY=           -244.4448   ZZ=           -261.7462
   XY=             18.0627   XZ=              9.7961   YZ=              0.6522

 Normal termination of Gaussian 16 at Tue Jul 16 07:10:41 2019.
