 Gaussian 16, Revision A.03,
 Gaussian 16:  ES64L-G16RevA.03 25-Dec-2016

 -------------------------------------
 # td=(NStates=1) CAM-B3LYP/6-31G(d,p)
 -------------------------------------

 --
 TD
 --
 Symbolic Z-matrix:
 Charge =  0 Multiplicity = 1

                         Standard orientation:
 ---------------------------------------------------------------------
 Center     Atomic      Atomic             Coordinates (Angstroms)
 Number     Number       Type             X           Y           Z
 ---------------------------------------------------------------------
      1          8           0       14.666059   -2.426575   -0.373225
      2          8           0      -14.960451    1.684132    0.780285
      3          6           0       11.095532   -1.572772    0.838636
      4          6           0      -12.444490   -1.072014    0.452343
      5          6           0       12.670737   -2.013475    0.938306
      6          6           0      -13.773286   -0.371063    0.427087
      7          6           0       13.309367   -2.024722   -0.333190
      8          6           0      -13.649370    1.164715    0.811222
      9          6           0       10.955906   -0.347476   -0.036988
     10          6           0      -11.235598   -0.241453   -0.213545
     11          6           0       13.263986   -0.553550   -0.965361
     12          6           0      -12.711820    1.878551   -0.323884
     13          6           0       11.931079    0.128728   -0.898309
     14          6           0      -11.436562    1.045948   -0.632662
     15          6           0       10.697748   -1.176673    2.289361
     16          6           0       10.304570   -2.678582    0.269934
     17          6           0      -12.009113   -1.400956    1.963686
     18          6           0      -12.628419   -2.438917   -0.188065
     19          6           0        9.753022    0.454349    0.110908
     20          6           0       -9.987681   -0.954608   -0.432297
     21          6           0       11.765086    1.300338   -1.833951
     22          6           0      -10.398981    1.885318   -1.389430
     23          6           0        9.425415    1.870842    0.045122
     24          6           0       -8.730245   -0.468965   -0.403346
     25          6           0        8.097186    2.326605    0.210664
     26          6           0       -7.570536   -1.203557   -0.447295
     27          6           0        7.967117    3.755135    0.684822
     28          6           0       -7.599334   -2.702913   -0.851839
     29          6           0        6.868493    1.547263    0.206086
     30          6           0       -6.379575   -0.578549   -0.182415
     31          6           0        5.571052    2.097014    0.280656
     32          6           0       -5.038454   -1.138021   -0.290304
     33          6           0        4.480707    1.290211   -0.037143
     34          6           0       -3.931383   -0.316782   -0.133367
     35          6           0        3.137181    1.661617    0.132472
     36          6           0       -2.616348   -0.616038   -0.284514
     37          6           0        2.972519    3.131566    0.526432
     38          6           0       -2.309300   -2.062771   -0.693685
     39          6           0        2.101824    0.746120   -0.048362
     40          6           0       -1.636186    0.301005   -0.097279
     41          6           0        0.717832    1.089256    0.014716
     42          6           0       -0.199962    0.145920   -0.299888
     43          1           0       13.271046   -1.261952    1.488952
     44          1           0       12.681889   -2.812642    1.551900
     45          1           0      -14.223853   -0.916230    1.298176
     46          1           0      -14.164351   -0.547112   -0.554168
     47          1           0       12.761488   -2.706466   -1.234189
     48          1           0      -13.174410    1.142543    1.728583
     49          1           0       14.009971    0.035028   -0.431127
     50          1           0       13.765575   -0.688073   -2.071319
     51          1           0      -13.462517    1.981975   -1.214142
     52          1           0      -12.459652    2.918339   -0.259594
     53          1           0       11.220040   -2.079278    2.822077
     54          1           0        9.590497   -1.105249    2.601821
     55          1           0       11.004750   -0.228502    2.786081
     56          1           0       10.800146   -3.126587   -0.601536
     57          1           0       10.369039   -3.391964    0.980131
     58          1           0        9.229123   -2.471544   -0.146298
     59          1           0      -11.706648   -0.483844    2.540585
     60          1           0      -10.807878   -1.696055    1.909281
     61          1           0      -12.669240   -2.014780    2.422649
     62          1           0      -13.488110   -2.883334    0.260353
     63          1           0      -11.855629   -3.111439   -0.134115
     64          1           0      -12.755936   -2.244396   -1.350183
     65          1           0        8.961637   -0.249038    0.507183
     66          1           0      -10.195722   -2.051703   -0.575865
     67          1           0       10.621378    1.619027   -2.090562
     68          1           0       12.252974    2.127127   -1.262001
     69          1           0       12.557844    1.210055   -2.599796
     70          1           0      -11.050282    2.318860   -2.329630
     71          1           0       -9.747564    1.175456   -1.893259
     72          1           0       -9.922909    2.748510   -0.745460
     73          1           0       14.796595   -3.332669   -0.119339
     74          1           0      -15.640526    1.292172    1.463624
     75          1           0       10.104573    2.669911   -0.343409
     76          1           0       -8.500017    0.566090   -0.238516
     77          1           0        8.872096    4.134375    0.947905
     78          1           0        7.578251    4.428300   -0.209085
     79          1           0        7.388215    3.860422    1.508705
     80          1           0       -8.085633   -3.183873   -0.049716
     81          1           0       -8.049947   -2.641033   -1.906024
     82          1           0       -6.611806   -2.971114   -1.090180
     83          1           0        6.956664    0.517074   -0.028121
     84          1           0       -6.448974    0.502435    0.055784
     85          1           0        5.470665    3.048982    0.480617
     86          1           0       -4.905428   -2.025532   -0.875118
     87          1           0        4.597172    0.346709   -0.554827
     88          1           0       -4.313171    0.569164    0.023763
     89          1           0        3.376784    3.221638    1.496593
     90          1           0        1.907223    3.327315    0.591029
     91          1           0        3.445727    3.829183   -0.168570
     92          1           0       -2.904300   -2.575933    0.054296
     93          1           0       -2.721242   -2.237213   -1.659151
     94          1           0       -1.410346   -2.157378   -0.805888
     95          1           0        2.291182   -0.204523   -0.500583
     96          1           0       -1.995979    1.232317    0.302156
     97          1           0        0.634238    2.039748    0.483435
     98          1           0        0.312130   -0.843600   -0.632388
 ---------------------------------------------------------------------

 SCF Done:  E(RCAM-B3LYP) =  -1706.98237309     A.U. after   15 cycles

 Excitation energies and oscillator strengths:

 Excited State   1:      Singlet-A      2.1257 eV  583.26 nm  f=3.6877  <S**2>=0.000
     155 ->158        -0.18168
     156 ->157         0.68028
 This state for optimization and/or second-order correction.
 Total Energy, E(TD-HF/TD-DFT) =  -1706.90425438
 Copying the excited state density for this state as the 1-particle RhoCI density.

 The electronic state is 1-A.
 Alpha  occ. eigenvalues --  -19.21469 -19.21110 -10.32185 -10.30645 -10.28634
 Alpha  occ. eigenvalues --  -10.27443 -10.27272 -10.27236 -10.27216 -10.27186
 Alpha  occ. eigenvalues --  -10.27059 -10.26812 -10.26724 -10.26710 -10.26602
 Alpha  occ. eigenvalues --  -10.26512 -10.26377 -10.26298 -10.25884 -10.25884
 Alpha  occ. eigenvalues --  -10.25882 -10.25846 -10.25772 -10.25758 -10.25752
 Alpha  occ. eigenvalues --  -10.25670 -10.25664 -10.25486 -10.25239 -10.25226
 Alpha  occ. eigenvalues --  -10.25219 -10.25167 -10.25009 -10.24947 -10.24915
 Alpha  occ. eigenvalues --  -10.24779 -10.24749 -10.24409 -10.24269 -10.24257
 Alpha  occ. eigenvalues --  -10.23954 -10.22693  -1.10145  -1.07546  -0.93964
 Alpha  occ. eigenvalues --   -0.92671  -0.92187  -0.91584  -0.90533  -0.89721
 Alpha  occ. eigenvalues --   -0.87575  -0.87137  -0.86411  -0.85192  -0.84418
 Alpha  occ. eigenvalues --   -0.82878  -0.81836  -0.80119  -0.78962  -0.78818
 Alpha  occ. eigenvalues --   -0.77031  -0.76900  -0.76585  -0.76304  -0.75652
 Alpha  occ. eigenvalues --   -0.75345  -0.75080  -0.74455  -0.73238  -0.70401
 Alpha  occ. eigenvalues --   -0.69231  -0.67682  -0.66307  -0.65224  -0.64332
 Alpha  occ. eigenvalues --   -0.63759  -0.62697  -0.61814  -0.61680  -0.60700
 Alpha  occ. eigenvalues --   -0.58862  -0.58487  -0.58467  -0.57768  -0.56906
 Alpha  occ. eigenvalues --   -0.55946  -0.55125  -0.54701  -0.54273  -0.53931
 Alpha  occ. eigenvalues --   -0.53488  -0.52471  -0.51713  -0.51397  -0.51173
 Alpha  occ. eigenvalues --   -0.50726  -0.50059  -0.49871  -0.49529  -0.49280
 Alpha  occ. eigenvalues --   -0.49113  -0.48811  -0.48710  -0.48349  -0.48244
 Alpha  occ. eigenvalues --   -0.48048  -0.47209  -0.47167  -0.46709  -0.46666
 Alpha  occ. eigenvalues --   -0.46440  -0.46093  -0.45529  -0.45443  -0.45214
 Alpha  occ. eigenvalues --   -0.44848  -0.44541  -0.44403  -0.44351  -0.44096
 Alpha  occ. eigenvalues --   -0.43430  -0.42943  -0.42536  -0.42130  -0.42046
 Alpha  occ. eigenvalues --   -0.41834  -0.41733  -0.41228  -0.41082  -0.40908
 Alpha  occ. eigenvalues --   -0.40578  -0.39878  -0.39825  -0.39617  -0.39433
 Alpha  occ. eigenvalues --   -0.38840  -0.38441  -0.37857  -0.37762  -0.37186
 Alpha  occ. eigenvalues --   -0.36871  -0.36748  -0.36617  -0.36582  -0.35672
 Alpha  occ. eigenvalues --   -0.35532  -0.34426  -0.33972  -0.32417  -0.32349
 Alpha  occ. eigenvalues --   -0.30934  -0.29893  -0.27993  -0.25687  -0.22045
 Alpha  occ. eigenvalues --   -0.18849
 Alpha virt. eigenvalues --   -0.05405  -0.01724   0.02310   0.05367   0.08676
 Alpha virt. eigenvalues --    0.10396   0.11316   0.11558   0.12094   0.12638
 Alpha virt. eigenvalues --    0.12926   0.13384   0.13918   0.14127   0.14393

 Mulliken charges:
               1
     1  O   -0.561153
     2  O   -0.577044
     3  C   -0.028887
     4  C   -0.025497
     5  C   -0.180676
     6  C   -0.179297
     7  C    0.179985
     8  C    0.194390
     9  C    0.061086
    10  C    0.075250
    11  C   -0.245619
    12  C   -0.232334
    13  C    0.084089
    14  C    0.035777
    15  C   -0.304326
    16  C   -0.288900
    17  C   -0.312072
    18  C   -0.297457
    19  C   -0.114925
    20  C   -0.161430
    21  C   -0.370143
    22  C   -0.357962
    23  C   -0.138539
    24  C   -0.082162
    25  C    0.066060
    26  C    0.091115
    27  C   -0.365740
    28  C   -0.348074
    29  C   -0.113556
    30  C   -0.153891
    31  C   -0.057168
    32  C   -0.114423
    33  C   -0.121006
    34  C   -0.082724
    35  C    0.089319
    36  C    0.089051
    37  C   -0.373787
    38  C   -0.324014
    39  C   -0.138932
    40  C   -0.130612
    41  C   -0.037675
    42  C   -0.123085
    43  H    0.112057
    44  H    0.093131
    45  H    0.072802
    46  H    0.106754
    47  H    0.042637
    48  H    0.088477
    49  H    0.122821
    50  H    0.092383
    51  H    0.106250
    52  H    0.110913
    53  H    0.075773
    54  H    0.101434
    55  H    0.119995
    56  H    0.110248
    57  H    0.106427
    58  H    0.104337
    59  H    0.103018
    60  H    0.081937
    61  H    0.107871
    62  H    0.100515
    63  H    0.112058
    64  H    0.084996
    65  H    0.078252
    66  H    0.085404
    67  H    0.125566
    68  H    0.117763
    69  H    0.110192
    70  H    0.083317
    71  H    0.129377
    72  H    0.112241
    73  H    0.305696
    74  H    0.313157
    75  H    0.098282
    76  H    0.088081
    77  H    0.112137
    78  H    0.097363
    79  H    0.133178
    80  H    0.132993
    81  H    0.112390
    82  H    0.110522
    83  H    0.072748
    84  H    0.074991
    85  H    0.077973
    86  H    0.088211
    87  H    0.079212
    88  H    0.062284
    89  H    0.133569
    90  H    0.097917
    91  H    0.128327
    92  H    0.126209
    93  H    0.115793
    94  H    0.091799
    95  H    0.074259
    96  H    0.082093
    97  H    0.081793
    98  H    0.087064
 Sum of Mulliken charges =  -0.00000

 Dipole moment (field-independent basis, Debye):
    X=              1.9157    Y=             -1.4594    Z=              1.4122  Tot=              2.7918
 Quadrupole moment (field-independent basis, Debye-Ang):
   XX=           -245.6662   YY=           -242.4038   ZZ=           -260.9418
   XY=              4.6621   XZ=             -6.1511   YZ=              2.1192

 Normal termination of Gaussian 16 at Fri Jul 12 13:08:07 2019.
