 Gaussian 16, Revision A.03,
 Gaussian 16:  ES64L-G16RevA.03 25-Dec-2016

 -------------------------------------
 # td=(NStates=1) CAM-B3LYP/6-31G(d,p)
 -------------------------------------

 --
 TD
 --
 Symbolic Z-matrix:
 Charge =  0 Multiplicity = 1

                         Standard orientation:
 ---------------------------------------------------------------------
 Center     Atomic      Atomic             Coordinates (Angstroms)
 Number     Number       Type             X           Y           Z
 ---------------------------------------------------------------------
      1          8           0       14.715557   -2.301260   -0.224857
      2          8           0      -14.940124    1.697515    0.877069
      3          6           0       11.173452   -1.525930    0.907681
      4          6           0      -12.419130   -1.061714    0.514034
      5          6           0       12.690055   -1.945570    1.038707
      6          6           0      -13.879276   -0.398793    0.492118
      7          6           0       13.317964   -1.917608   -0.316838
      8          6           0      -13.664181    1.066176    0.906883
      9          6           0       11.028873   -0.237173   -0.024753
     10          6           0      -11.343462   -0.232512   -0.068263
     11          6           0       13.332513   -0.561026   -0.888667
     12          6           0      -12.842873    1.833191   -0.201768
     13          6           0       11.986752    0.087211   -0.814865
     14          6           0      -11.553012    1.087092   -0.409011
     15          6           0       10.788441   -1.110777    2.279631
     16          6           0       10.353706   -2.705301    0.369669
     17          6           0      -11.974300   -1.673407    1.893117
     18          6           0      -12.526191   -2.401102   -0.413121
     19          6           0        9.634383    0.266467    0.104564
     20          6           0      -10.008621   -0.916287   -0.392362
     21          6           0       11.835445    1.305868   -1.813849
     22          6           0      -10.620127    1.934538   -1.233948
     23          6           0        9.429692    1.566787    0.104508
     24          6           0       -8.764390   -0.438257   -0.180305
     25          6           0        8.097627    2.235951    0.290657
     26          6           0       -7.593755   -1.176699   -0.450202
     27          6           0        8.125513    3.754437    0.707483
     28          6           0       -7.779895   -2.504562   -0.949110
     29          6           0        6.890626    1.455662    0.032777
     30          6           0       -6.401953   -0.556387   -0.174254
     31          6           0        5.623289    1.975744    0.310468
     32          6           0       -5.065601   -1.077196   -0.418009
     33          6           0        4.534684    1.199865   -0.080430
     34          6           0       -4.003091   -0.304731   -0.157119
     35          6           0        3.196576    1.714403    0.008978
     36          6           0       -2.553610   -0.572946   -0.477982
     37          6           0        2.876699    3.120575    0.480770
     38          6           0       -2.315715   -2.014774   -0.914402
     39          6           0        2.127858    0.903767   -0.356457
     40          6           0       -1.592094    0.442768   -0.333338
     41          6           0        0.829923    1.075662   -0.163800
     42          6           0       -0.126431    0.219963   -0.495613
     43          1           0       13.197223   -1.392477    1.816164
     44          1           0       12.649736   -2.814157    1.484356
     45          1           0      -14.595476   -0.765289    1.211670
     46          1           0      -14.228996   -0.460216   -0.374350
     47          1           0       12.736105   -2.635577   -1.126639
     48          1           0      -13.211266    0.973300    2.009609
     49          1           0       14.331615   -0.116736   -0.208395
     50          1           0       13.558078   -0.586194   -2.039218
     51          1           0      -13.529943    2.038236   -1.076931
     52          1           0      -12.529837    2.871623    0.167278
     53          1           0       11.016827   -1.985414    3.055980
     54          1           0        9.607320   -1.055263    2.270706
     55          1           0       11.231084   -0.182721    2.732007
     56          1           0       10.680538   -3.051498   -0.548853
     57          1           0       10.247580   -3.414925    1.173476
     58          1           0        9.238635   -2.342948    0.217642
     59          1           0      -12.057532   -0.729612    2.647566
     60          1           0      -10.842594   -2.145112    1.841661
     61          1           0      -12.640677   -2.470181    2.359557
     62          1           0      -13.197848   -3.035471    0.180012
     63          1           0      -11.667563   -3.115257   -0.301198
     64          1           0      -12.845435   -2.177440   -1.367641
     65          1           0        8.919854   -0.728017    0.181205
     66          1           0      -10.232010   -1.939934   -0.911764
     67          1           0       10.834472    1.126691   -2.217748
     68          1           0       12.032875    2.398434   -1.396487
     69          1           0       12.650044    1.299130   -2.709989
     70          1           0      -11.266120    2.474885   -2.003622
     71          1           0       -9.884475    1.399510   -1.783427
     72          1           0       -9.993008    2.735345   -0.628372
     73          1           0       14.618738   -3.166331    0.076081
     74          1           0      -15.519278    1.351924    1.565695
     75          1           0       10.338266    2.250870    0.125734
     76          1           0       -8.513849    0.535401    0.288496
     77          1           0        9.184744    4.057336    0.672942
     78          1           0        7.593631    4.226258    0.141605
     79          1           0        7.662222    3.853105    1.753875
     80          1           0       -8.287486   -3.212644   -0.305587
     81          1           0       -8.377994   -2.438394   -1.949056
     82          1           0       -6.683966   -2.928979   -1.167644
     83          1           0        6.749809    0.529892   -0.473690
     84          1           0       -6.329398    0.457089    0.203374
     85          1           0        5.471800    2.888457    0.720131
     86          1           0       -4.866933   -2.056192   -0.932633
     87          1           0        4.556815    0.117836   -0.498414
     88          1           0       -4.106038    0.773229    0.176411
     89          1           0        3.139751    3.210617    1.552830
     90          1           0        1.872194    3.487599    0.119070
     91          1           0        3.668002    3.858193    0.000729
     92          1           0       -2.917947   -2.742038   -0.486870
     93          1           0       -2.609116   -2.078815   -2.002496
     94          1           0       -1.200324   -2.272836   -0.651116
     95          1           0        2.390912   -0.077408   -0.699530
     96          1           0       -1.775062    1.311449    0.067997
     97          1           0        0.372207    1.982777    0.308121
     98          1           0        0.077448   -0.741419   -0.759473
 ---------------------------------------------------------------------

 SCF Done:  E(RCAM-B3LYP) =  -1706.97081689     A.U. after   15 cycles

 Excitation energies and oscillator strengths:

 Excited State   1:      Singlet-A      2.4123 eV  513.97 nm  f=3.5717  <S**2>=0.000
     155 ->158        -0.15624
     156 ->157         0.68673
 This state for optimization and/or second-order correction.
 Total Energy, E(TD-HF/TD-DFT) =  -1706.88216720
 Copying the excited state density for this state as the 1-particle RhoCI density.

 The electronic state is 1-A.
 Alpha  occ. eigenvalues --  -19.20656 -19.20588 -10.31253 -10.30930 -10.28575
 Alpha  occ. eigenvalues --  -10.28403 -10.28130 -10.27359 -10.27174 -10.27134
 Alpha  occ. eigenvalues --  -10.27008 -10.26797 -10.26777 -10.26692 -10.26678
 Alpha  occ. eigenvalues --  -10.26634 -10.26604 -10.26546 -10.26415 -10.26403
 Alpha  occ. eigenvalues --  -10.26335 -10.26311 -10.26299 -10.26225 -10.26208
 Alpha  occ. eigenvalues --  -10.26145 -10.26116 -10.26030 -10.25877 -10.25851
 Alpha  occ. eigenvalues --  -10.25511 -10.25487 -10.25475 -10.25297 -10.25148
 Alpha  occ. eigenvalues --  -10.25121 -10.25102 -10.25050 -10.24826 -10.24396
 Alpha  occ. eigenvalues --  -10.23777 -10.23652  -1.09915  -1.08971  -0.93937
 Alpha  occ. eigenvalues --   -0.92918  -0.92350  -0.91732  -0.90356  -0.89315
 Alpha  occ. eigenvalues --   -0.87761  -0.86886  -0.85862  -0.85615  -0.84426
 Alpha  occ. eigenvalues --   -0.83161  -0.82253  -0.80345  -0.79328  -0.78547
 Alpha  occ. eigenvalues --   -0.76987  -0.76258  -0.75848  -0.75425  -0.75385
 Alpha  occ. eigenvalues --   -0.75286  -0.74833  -0.74244  -0.73544  -0.70256
 Alpha  occ. eigenvalues --   -0.68483  -0.66765  -0.65563  -0.64140  -0.63601
 Alpha  occ. eigenvalues --   -0.63171  -0.63116  -0.62821  -0.61308  -0.60234
 Alpha  occ. eigenvalues --   -0.59400  -0.58582  -0.58428  -0.58138  -0.56239
 Alpha  occ. eigenvalues --   -0.55467  -0.54701  -0.54244  -0.53951  -0.53355
 Alpha  occ. eigenvalues --   -0.52886  -0.52767  -0.51712  -0.51089  -0.50801
 Alpha  occ. eigenvalues --   -0.50620  -0.50043  -0.49636  -0.49265  -0.48883
 Alpha  occ. eigenvalues --   -0.48830  -0.48714  -0.48699  -0.48181  -0.47999
 Alpha  occ. eigenvalues --   -0.47621  -0.47312  -0.47085  -0.46724  -0.46416
 Alpha  occ. eigenvalues --   -0.45423  -0.45345  -0.45120  -0.44937  -0.44928
 Alpha  occ. eigenvalues --   -0.44721  -0.44101  -0.43961  -0.43834  -0.43759
 Alpha  occ. eigenvalues --   -0.43210  -0.42960  -0.42869  -0.42271  -0.42002
 Alpha  occ. eigenvalues --   -0.41838  -0.41339  -0.41242  -0.41079  -0.40808
 Alpha  occ. eigenvalues --   -0.40465  -0.40175  -0.39880  -0.39757  -0.39308
 Alpha  occ. eigenvalues --   -0.39274  -0.39050  -0.38838  -0.38469  -0.38268
 Alpha  occ. eigenvalues --   -0.37400  -0.37028  -0.36398  -0.36218  -0.35805
 Alpha  occ. eigenvalues --   -0.35571  -0.34918  -0.33361  -0.32309  -0.31802
 Alpha  occ. eigenvalues --   -0.31056  -0.29662  -0.28278  -0.26425  -0.23478
 Alpha  occ. eigenvalues --   -0.19734
 Alpha virt. eigenvalues --   -0.04996  -0.00776   0.02930   0.06089   0.07772
 Alpha virt. eigenvalues --    0.09355   0.10973   0.11228   0.12079   0.12526
 Alpha virt. eigenvalues --    0.12699   0.13329   0.13421   0.13769   0.14007

 Mulliken charges:
               1
     1  O   -0.547645
     2  O   -0.564795
     3  C   -0.041295
     4  C   -0.056289
     5  C   -0.169496
     6  C   -0.137849
     7  C    0.143945
     8  C    0.145829
     9  C    0.083959
    10  C    0.094775
    11  C   -0.188511
    12  C   -0.217610
    13  C    0.018441
    14  C    0.048924
    15  C   -0.292305
    16  C   -0.295941
    17  C   -0.290572
    18  C   -0.318357
    19  C   -0.070166
    20  C   -0.169404
    21  C   -0.353578
    22  C   -0.357315
    23  C   -0.119619
    24  C   -0.072121
    25  C    0.015600
    26  C    0.155244
    27  C   -0.342231
    28  C   -0.377301
    29  C   -0.098667
    30  C   -0.143871
    31  C   -0.063308
    32  C   -0.079466
    33  C   -0.130764
    34  C   -0.115380
    35  C    0.119566
    36  C    0.083508
    37  C   -0.377990
    38  C   -0.373303
    39  C   -0.136410
    40  C   -0.112162
    41  C   -0.052229
    42  C   -0.081026
    43  H    0.105920
    44  H    0.089482
    45  H    0.080616
    46  H    0.105042
    47  H    0.056225
    48  H    0.066376
    49  H    0.097571
    50  H    0.098959
    51  H    0.125379
    52  H    0.107920
    53  H    0.070278
    54  H    0.084536
    55  H    0.117584
    56  H    0.122476
    57  H    0.111723
    58  H    0.076844
    59  H    0.075242
    60  H    0.096797
    61  H    0.097714
    62  H    0.095695
    63  H    0.095839
    64  H    0.112846
    65  H    0.089183
    66  H    0.094489
    67  H    0.129975
    68  H    0.100284
    69  H    0.078108
    70  H    0.098489
    71  H    0.121410
    72  H    0.094803
    73  H    0.295753
    74  H    0.298926
    75  H    0.092516
    76  H    0.086825
    77  H    0.112191
    78  H    0.139204
    79  H    0.113911
    80  H    0.130912
    81  H    0.114412
    82  H    0.081967
    83  H    0.088647
    84  H    0.085661
    85  H    0.077205
    86  H    0.085674
    87  H    0.087346
    88  H    0.075171
    89  H    0.126789
    90  H    0.120531
    91  H    0.095974
    92  H    0.132267
    93  H    0.124669
    94  H    0.102778
    95  H    0.069623
    96  H    0.066317
    97  H    0.073583
    98  H    0.060523
 Sum of Mulliken charges =  -0.00000

 Dipole moment (field-independent basis, Debye):
    X=             -1.2941    Y=             -1.9082    Z=              1.3333  Tot=              2.6634
 Quadrupole moment (field-independent basis, Debye-Ang):
   XX=           -285.9941   YY=           -242.6392   ZZ=           -261.7820
   XY=             12.5598   XZ=              0.7893   YZ=              3.3702

 Normal termination of Gaussian 16 at Sun Jul 14 01:59:42 2019.
