 Gaussian 16, Revision A.03,
 Gaussian 16:  ES64L-G16RevA.03 25-Dec-2016

 -------------------------------------
 # td=(NStates=1) CAM-B3LYP/6-31G(d,p)
 -------------------------------------

 --
 TD
 --
 Symbolic Z-matrix:
 Charge =  0 Multiplicity = 1

                         Standard orientation:
 ---------------------------------------------------------------------
 Center     Atomic      Atomic             Coordinates (Angstroms)
 Number     Number       Type             X           Y           Z
 ---------------------------------------------------------------------
      1          8           0       14.698793   -2.271374   -0.461222
      2          8           0      -14.676500    1.965692    0.758036
      3          6           0       11.069976   -1.447608    0.997245
      4          6           0      -12.402193   -1.047666    0.444977
      5          6           0       12.641536   -1.856930    1.024835
      6          6           0      -13.729416   -0.221711    0.545082
      7          6           0       13.196417   -1.918362   -0.351709
      8          6           0      -13.480251    1.249265    0.950936
      9          6           0       10.957308   -0.281547   -0.083270
     10          6           0      -11.335520   -0.282967   -0.305562
     11          6           0       13.125207   -0.470615   -0.935688
     12          6           0      -12.506350    1.905220   -0.083263
     13          6           0       11.907338    0.182739   -0.785368
     14          6           0      -11.375560    1.039062   -0.580747
     15          6           0       10.648933   -1.196970    2.398637
     16          6           0       10.163507   -2.692368    0.391379
     17          6           0      -11.964060   -1.362195    1.943536
     18          6           0      -12.802805   -2.359849   -0.233430
     19          6           0        9.659842    0.464523    0.169664
     20          6           0      -10.004283   -0.900417   -0.533872
     21          6           0       11.776172    1.224211   -1.817844
     22          6           0      -10.531090    1.809487   -1.488258
     23          6           0        9.380953    1.769265   -0.041471
     24          6           0       -8.713191   -0.435424   -0.410361
     25          6           0        8.059072    2.352742    0.141727
     26          6           0       -7.528643   -1.249205   -0.523233
     27          6           0        7.811832    3.833739    0.447661
     28          6           0       -7.596176   -2.698790   -0.722774
     29          6           0        6.875214    1.558274    0.126306
     30          6           0       -6.341404   -0.582052   -0.256011
     31          6           0        5.648397    1.908133    0.200059
     32          6           0       -5.026240   -1.151545   -0.473878
     33          6           0        4.521606    1.275002   -0.102011
     34          6           0       -3.872552   -0.437852   -0.205899
     35          6           0        3.161389    1.701456    0.162858
     36          6           0       -2.584271   -0.875711   -0.408248
     37          6           0        2.932966    3.110209    0.590766
     38          6           0       -2.213154   -2.284888   -0.846716
     39          6           0        2.036315    0.749031   -0.056259
     40          6           0       -1.531665    0.099568   -0.074061
     41          6           0        0.737698    1.010045   -0.011691
     42          6           0       -0.144636   -0.080816   -0.228145
     43          1           0       13.268749   -1.224186    1.455452
     44          1           0       12.660799   -2.752061    1.500394
     45          1           0      -14.093784   -0.603465    1.223239
     46          1           0      -14.159744   -0.200101   -0.557900
     47          1           0       12.869970   -2.673019   -0.852299
     48          1           0      -13.090971    1.464861    1.855728
     49          1           0       14.033565   -0.042392   -0.432043
     50          1           0       13.347669   -0.388078   -2.025919
     51          1           0      -13.326531    2.170950   -0.927847
     52          1           0      -12.116450    2.878997    0.308446
     53          1           0       10.740723   -2.141805    3.024530
     54          1           0        9.551830   -0.940670    2.489461
     55          1           0       11.246158   -0.313853    2.847232
     56          1           0       10.306867   -2.798445   -0.579046
     57          1           0       10.240832   -3.445977    1.227545
     58          1           0        9.135310   -2.430161    0.347766
     59          1           0      -11.487891   -0.363551    2.335957
     60          1           0      -11.007088   -1.988795    1.881809
     61          1           0      -12.599661   -1.932410    2.601404
     62          1           0      -13.563564   -2.884370    0.286507
     63          1           0      -11.864949   -2.989337   -0.373814
     64          1           0      -13.321596   -2.003306   -1.129525
     65          1           0        9.006595   -0.049487    0.487816
     66          1           0      -10.076578   -1.939056   -0.688620
     67          1           0       10.729107    1.592427   -2.200794
     68          1           0       11.888546    2.299233   -1.312635
     69          1           0       12.519397    1.037274   -2.675226
     70          1           0      -11.008004    2.797205   -1.988224
     71          1           0      -10.134080    0.954838   -2.161336
     72          1           0       -9.575224    2.231372   -0.995463
     73          1           0       14.841323   -3.048503   -0.015613
     74          1           0      -15.430264    1.795119    1.516984
     75          1           0       10.078407    2.390353   -0.375740
     76          1           0       -8.638200    0.615869   -0.367152
     77          1           0        8.919893    4.283673    0.605553
     78          1           0        7.310591    4.151810   -0.474399
     79          1           0        7.184614    3.939288    1.265844
     80          1           0       -8.351440   -3.306662   -0.036545
     81          1           0       -8.006806   -2.987007   -1.890538
     82          1           0       -6.593530   -3.247457   -0.675932
     83          1           0        6.955253    0.537487   -0.128021
     84          1           0       -6.433902    0.395288    0.194174
     85          1           0        5.397190    2.827687    0.628456
     86          1           0       -5.038113   -2.164151   -0.895347
     87          1           0        4.514443    0.165060   -0.369561
     88          1           0       -3.981534    0.519277    0.122179
     89          1           0        3.796616    3.597881    1.365098
     90          1           0        1.690538    3.161918    1.269783
     91          1           0        2.823417    3.772014   -0.540571
     92          1           0       -2.805811   -3.010739   -0.189045
     93          1           0       -2.287731   -2.526632   -1.920101
     94          1           0       -1.016075   -2.642800   -0.447042
     95          1           0        2.340524   -0.291165   -0.484894
     96          1           0       -1.918400    1.028229    0.118222
     97          1           0        0.394336    1.813853    0.758092
     98          1           0        0.187009   -1.085764   -0.236384
 ---------------------------------------------------------------------

 SCF Done:  E(RCAM-B3LYP) =  -1706.75763550     A.U. after   17 cycles

 Excitation energies and oscillator strengths:

 Excited State   1:      Singlet-A      1.7052 eV  727.09 nm  f=3.5134  <S**2>=0.000
     155 ->158        -0.11890
     156 ->157         0.70748
     156 <-157        -0.14102
 This state for optimization and/or second-order correction.
 Total Energy, E(TD-HF/TD-DFT) =  -1706.69496993
 Copying the excited state density for this state as the 1-particle RhoCI density.

 The electronic state is 1-A.
 Alpha  occ. eigenvalues --  -19.21186 -19.19282 -10.31593 -10.29204 -10.28921
 Alpha  occ. eigenvalues --  -10.28822 -10.28444 -10.28335 -10.28295 -10.27867
 Alpha  occ. eigenvalues --  -10.27821 -10.27261 -10.27254 -10.27047 -10.26866
 Alpha  occ. eigenvalues --  -10.26557 -10.26448 -10.26388 -10.26350 -10.26323
 Alpha  occ. eigenvalues --  -10.26308 -10.26179 -10.26042 -10.25969 -10.25890
 Alpha  occ. eigenvalues --  -10.25533 -10.25500 -10.25473 -10.25433 -10.25325
 Alpha  occ. eigenvalues --  -10.25257 -10.25197 -10.25138 -10.25102 -10.24984
 Alpha  occ. eigenvalues --  -10.24749 -10.24484 -10.24229 -10.23947 -10.23688
 Alpha  occ. eigenvalues --  -10.23588 -10.23123  -1.07485  -1.06728  -0.94862
 Alpha  occ. eigenvalues --   -0.93197  -0.92558  -0.91746  -0.90614  -0.89589
 Alpha  occ. eigenvalues --   -0.88246  -0.88129  -0.87297  -0.85709  -0.84317
 Alpha  occ. eigenvalues --   -0.83334  -0.81897  -0.80993  -0.79282  -0.77892
 Alpha  occ. eigenvalues --   -0.77154  -0.76929  -0.76186  -0.75771  -0.75711
 Alpha  occ. eigenvalues --   -0.75514  -0.74971  -0.74402  -0.72255  -0.70928
 Alpha  occ. eigenvalues --   -0.69262  -0.67936  -0.67317  -0.65502  -0.64075
 Alpha  occ. eigenvalues --   -0.63768  -0.63066  -0.62140  -0.61001  -0.60512
 Alpha  occ. eigenvalues --   -0.60113  -0.59487  -0.58674  -0.57810  -0.56017
 Alpha  occ. eigenvalues --   -0.55791  -0.55261  -0.54681  -0.54081  -0.53765
 Alpha  occ. eigenvalues --   -0.52824  -0.52388  -0.52252  -0.51657  -0.51371
 Alpha  occ. eigenvalues --   -0.50619  -0.50008  -0.49941  -0.49533  -0.49389
 Alpha  occ. eigenvalues --   -0.49092  -0.48915  -0.48631  -0.48299  -0.47737
 Alpha  occ. eigenvalues --   -0.47485  -0.47330  -0.46917  -0.46822  -0.46191
 Alpha  occ. eigenvalues --   -0.45988  -0.45903  -0.45572  -0.45201  -0.44707
 Alpha  occ. eigenvalues --   -0.44606  -0.44411  -0.43923  -0.43402  -0.43312
 Alpha  occ. eigenvalues --   -0.42806  -0.42615  -0.42502  -0.42197  -0.41989
 Alpha  occ. eigenvalues --   -0.41746  -0.41469  -0.41034  -0.40910  -0.40614
 Alpha  occ. eigenvalues --   -0.40459  -0.40306  -0.40029  -0.39777  -0.39120
 Alpha  occ. eigenvalues --   -0.39040  -0.38414  -0.38360  -0.38114  -0.37418
 Alpha  occ. eigenvalues --   -0.37320  -0.37045  -0.36534  -0.36099  -0.35673
 Alpha  occ. eigenvalues --   -0.34961  -0.34218  -0.33708  -0.32293  -0.32049
 Alpha  occ. eigenvalues --   -0.31298  -0.29870  -0.28400  -0.25895  -0.23190
 Alpha  occ. eigenvalues --   -0.17655
 Alpha virt. eigenvalues --   -0.07381  -0.01215   0.01800   0.05548   0.07093
 Alpha virt. eigenvalues --    0.08657   0.09435   0.10634   0.10989   0.11674
 Alpha virt. eigenvalues --    0.12232   0.12460   0.12784   0.12842   0.13246

 Mulliken charges:
               1
     1  O   -0.588191
     2  O   -0.572184
     3  C   -0.026524
     4  C   -0.057994
     5  C   -0.176099
     6  C   -0.088971
     7  C    0.142247
     8  C    0.164552
     9  C    0.048629
    10  C    0.090511
    11  C   -0.262299
    12  C   -0.250021
    13  C    0.123355
    14  C    0.084217
    15  C   -0.298192
    16  C   -0.316317
    17  C   -0.317023
    18  C   -0.290969
    19  C   -0.013885
    20  C   -0.164796
    21  C   -0.387920
    22  C   -0.377108
    23  C   -0.085662
    24  C   -0.074567
    25  C    0.028075
    26  C    0.141792
    27  C   -0.354383
    28  C   -0.370501
    29  C   -0.094294
    30  C   -0.124713
    31  C   -0.038493
    32  C   -0.102504
    33  C   -0.114531
    34  C   -0.091977
    35  C    0.093245
    36  C    0.112674
    37  C   -0.319877
    38  C   -0.365355
    39  C   -0.108478
    40  C   -0.126932
    41  C   -0.087589
    42  C   -0.082534
    43  H    0.110850
    44  H    0.083796
    45  H    0.052375
    46  H    0.093785
    47  H    0.096325
    48  H    0.086270
    49  H    0.131701
    50  H    0.104799
    51  H    0.109273
    52  H    0.098672
    53  H    0.097647
    54  H    0.102995
    55  H    0.104691
    56  H    0.119696
    57  H    0.100281
    58  H    0.108294
    59  H    0.095136
    60  H    0.093239
    61  H    0.109618
    62  H    0.105180
    63  H    0.095282
    64  H    0.101672
    65  H    0.030682
    66  H    0.058682
    67  H    0.120814
    68  H    0.105582
    69  H    0.106380
    70  H    0.106103
    71  H    0.125212
    72  H    0.109323
    73  H    0.289651
    74  H    0.299967
    75  H    0.052412
    76  H    0.069950
    77  H    0.089734
    78  H    0.135861
    79  H    0.139454
    80  H    0.117407
    81  H    0.083893
    82  H    0.108986
    83  H    0.063426
    84  H    0.086069
    85  H    0.046872
    86  H    0.084352
    87  H    0.063135
    88  H    0.079043
    89  H    0.106455
    90  H    0.051478
    91  H    0.103681
    92  H    0.117122
    93  H    0.136203
    94  H    0.070582
    95  H    0.078453
    96  H    0.076698
    97  H    0.095578
    98  H    0.090771
 Sum of Mulliken charges =  -0.00000

 Dipole moment (field-independent basis, Debye):
    X=             -0.6884    Y=             -1.5428    Z=              2.6278  Tot=              3.1240
 Quadrupole moment (field-independent basis, Debye-Ang):
   XX=           -274.1997   YY=           -244.9344   ZZ=           -260.7671
   XY=              7.2087   XZ=             -9.2145   YZ=              0.6868

 Normal termination of Gaussian 16 at Sat Jul 13 02:15:41 2019.
