 Gaussian 16, Revision A.03,
 Gaussian 16:  ES64L-G16RevA.03 25-Dec-2016

 -------------------------------------
 # td=(NStates=1) CAM-B3LYP/6-31G(d,p)
 -------------------------------------

 --
 TD
 --
 Symbolic Z-matrix:
 Charge =  0 Multiplicity = 1

                         Standard orientation:
 ---------------------------------------------------------------------
 Center     Atomic      Atomic             Coordinates (Angstroms)
 Number     Number       Type             X           Y           Z
 ---------------------------------------------------------------------
      1          8           0       14.739888   -2.085969   -0.216102
      2          8           0      -14.748125    2.014211    0.984759
      3          6           0       11.214238   -1.342901    1.013660
      4          6           0      -12.331914   -0.976647    0.575616
      5          6           0       12.695637   -1.729210    0.993456
      6          6           0      -13.667559   -0.235740    0.591321
      7          6           0       13.361703   -1.775204   -0.297264
      8          6           0      -13.476868    1.301535    0.978564
      9          6           0       10.928108   -0.216144   -0.033050
     10          6           0      -11.243983   -0.236958   -0.239667
     11          6           0       13.250237   -0.417395   -0.934816
     12          6           0      -12.640156    1.931963   -0.114404
     13          6           0       11.847883    0.142020   -0.949991
     14          6           0      -11.497271    1.073735   -0.624137
     15          6           0       10.837428   -0.851174    2.477776
     16          6           0       10.327901   -2.605307    0.719171
     17          6           0      -11.871433   -1.313371    1.935538
     18          6           0      -12.516541   -2.337073   -0.143753
     19          6           0        9.535049    0.359556    0.183832
     20          6           0       -9.974994   -0.917801   -0.572746
     21          6           0       11.589993    1.093111   -1.949176
     22          6           0      -10.596419    1.866622   -1.454560
     23          6           0        9.345783    1.629469   -0.012917
     24          6           0       -8.708841   -0.481119   -0.411497
     25          6           0        8.034674    2.255699    0.129737
     26          6           0       -7.529751   -1.187228   -0.563468
     27          6           0        7.833281    3.769915    0.275066
     28          6           0       -7.644059   -2.670200   -1.176875
     29          6           0        6.854484    1.579388   -0.112900
     30          6           0       -6.298494   -0.597123   -0.371877
     31          6           0        5.537598    1.985657    0.081434
     32          6           0       -4.972318   -1.156386   -0.513774
     33          6           0        4.508094    1.177188    0.044701
     34          6           0       -3.932430   -0.462709   -0.271178
     35          6           0        3.135255    1.502121    0.135044
     36          6           0       -2.663457   -0.906798   -0.244565
     37          6           0        2.850857    2.929214    0.572312
     38          6           0       -2.287511   -2.344245   -0.773203
     39          6           0        2.071624    0.664562   -0.167014
     40          6           0       -1.632820    0.032332   -0.078360
     41          6           0        0.701949    0.791922   -0.039882
     42          6           0       -0.243112   -0.178306   -0.271519
     43          1           0       13.083137   -0.909874    1.626445
     44          1           0       12.872608   -2.608056    1.603222
     45          1           0      -14.212895   -0.749943    1.597460
     46          1           0      -14.355094   -0.422649   -0.085314
     47          1           0       12.836825   -2.441536   -1.053279
     48          1           0      -13.020664    1.159520    1.999590
     49          1           0       13.942388    0.307740   -0.376014
     50          1           0       13.607335   -0.651239   -1.992121
     51          1           0      -13.461339    1.886026   -0.895730
     52          1           0      -12.396683    2.942933   -0.018946
     53          1           0       11.099579   -1.629647    3.203330
     54          1           0        9.728599   -0.617681    2.624012
     55          1           0       11.157163    0.098479    2.643760
     56          1           0       10.671422   -2.985994   -0.315653
     57          1           0       10.435545   -3.518904    1.460438
     58          1           0        9.278611   -2.419288    0.699729
     59          1           0      -11.828794   -0.481856    2.648954
     60          1           0      -10.800934   -1.613979    1.812704
     61          1           0      -12.546909   -2.096210    2.388890
     62          1           0      -13.594572   -2.691929    0.402120
     63          1           0      -11.694846   -2.929803   -0.123617
     64          1           0      -12.677220   -2.291310   -1.343969
     65          1           0        8.651309   -0.400433    0.505837
     66          1           0      -10.222873   -1.938081   -0.684054
     67          1           0       10.474281    0.871316   -2.164191
     68          1           0       12.020377    2.198838   -2.007144
     69          1           0       12.131682    0.729462   -2.866135
     70          1           0      -10.980520    2.676108   -2.137322
     71          1           0       -9.809840    1.293103   -2.014061
     72          1           0      -10.216466    2.681496   -0.740997
     73          1           0       14.827972   -3.030191   -0.031794
     74          1           0      -15.170327    1.438711    1.730317
     75          1           0       10.346792    2.231721   -0.053402
     76          1           0       -8.518321    0.621144    0.145521
     77          1           0        8.771663    4.186687    0.438972
     78          1           0        7.343003    4.098150   -0.710784
     79          1           0        7.062401    4.121305    1.093695
     80          1           0       -7.935873   -3.415056   -0.376652
     81          1           0       -8.644110   -2.727514   -1.937863
     82          1           0       -6.771053   -3.066004   -1.902398
     83          1           0        7.030163    0.541912   -0.120348
     84          1           0       -6.302347    0.508383   -0.041564
     85          1           0        5.439746    3.049197    0.483366
     86          1           0       -4.715205   -2.143555   -0.659932
     87          1           0        4.700868    0.137571   -0.399798
     88          1           0       -4.168341    0.590181    0.142336
     89          1           0        3.791659    3.215553    1.403787
     90          1           0        1.655051    2.901382    1.418287
     91          1           0        2.904208    3.773841   -0.322594
     92          1           0       -3.106596   -3.099465   -0.276885
     93          1           0       -2.372175   -2.590194   -1.933668
     94          1           0       -1.191143   -2.516181   -0.507808
     95          1           0        2.359070   -0.410840   -0.379964
     96          1           0       -2.022968    1.166252    0.096599
     97          1           0        0.177920    1.800810    0.335622
     98          1           0        0.011549   -1.138201   -0.488071
 ---------------------------------------------------------------------

 SCF Done:  E(RCAM-B3LYP) =  -1706.91260932     A.U. after   15 cycles

 Excitation energies and oscillator strengths:

 Excited State   1:      Singlet-A      2.3016 eV  538.70 nm  f=3.7315  <S**2>=0.000
     155 ->158        -0.15424
     156 ->157         0.68444
 This state for optimization and/or second-order correction.
 Total Energy, E(TD-HF/TD-DFT) =  -1706.82802885
 Copying the excited state density for this state as the 1-particle RhoCI density.

 The electronic state is 1-A.
 Alpha  occ. eigenvalues --  -19.22283 -19.21453 -10.31243 -10.31073 -10.30157
 Alpha  occ. eigenvalues --  -10.28980 -10.28610 -10.28125 -10.27857 -10.27831
 Alpha  occ. eigenvalues --  -10.27743 -10.27655 -10.27613 -10.27546 -10.27374
 Alpha  occ. eigenvalues --  -10.27311 -10.27266 -10.27155 -10.26962 -10.26912
 Alpha  occ. eigenvalues --  -10.26544 -10.26502 -10.26452 -10.26435 -10.26395
 Alpha  occ. eigenvalues --  -10.26345 -10.26306 -10.26287 -10.25799 -10.25767
 Alpha  occ. eigenvalues --  -10.25735 -10.25728 -10.25697 -10.25691 -10.25154
 Alpha  occ. eigenvalues --  -10.25067 -10.25017 -10.24755 -10.24703 -10.24567
 Alpha  occ. eigenvalues --  -10.24313 -10.24117  -1.09954  -1.08171  -0.94112
 Alpha  occ. eigenvalues --   -0.93659  -0.93327  -0.92623  -0.90867  -0.90059
 Alpha  occ. eigenvalues --   -0.88642  -0.87597  -0.87536  -0.86288  -0.84878
 Alpha  occ. eigenvalues --   -0.83603  -0.82279  -0.80981  -0.79552  -0.77340
 Alpha  occ. eigenvalues --   -0.76020  -0.75878  -0.75801  -0.75673  -0.75407
 Alpha  occ. eigenvalues --   -0.75270  -0.74466  -0.74278  -0.73298  -0.70798
 Alpha  occ. eigenvalues --   -0.69004  -0.67575  -0.65829  -0.65015  -0.64074
 Alpha  occ. eigenvalues --   -0.63292  -0.62742  -0.61948  -0.61133  -0.59764
 Alpha  occ. eigenvalues --   -0.59393  -0.59148  -0.58399  -0.57725  -0.56050
 Alpha  occ. eigenvalues --   -0.55205  -0.55024  -0.54670  -0.54381  -0.53640
 Alpha  occ. eigenvalues --   -0.52777  -0.52300  -0.52033  -0.51639  -0.51007
 Alpha  occ. eigenvalues --   -0.50435  -0.50210  -0.49763  -0.49268  -0.49036
 Alpha  occ. eigenvalues --   -0.48998  -0.48527  -0.47863  -0.47662  -0.47582
 Alpha  occ. eigenvalues --   -0.47473  -0.47190  -0.46984  -0.46707  -0.46560
 Alpha  occ. eigenvalues --   -0.46370  -0.45894  -0.45445  -0.45174  -0.44867
 Alpha  occ. eigenvalues --   -0.44728  -0.44059  -0.44020  -0.43353  -0.43136
 Alpha  occ. eigenvalues --   -0.42764  -0.42068  -0.41579  -0.41335  -0.41105
 Alpha  occ. eigenvalues --   -0.41017  -0.40870  -0.40766  -0.40669  -0.40569
 Alpha  occ. eigenvalues --   -0.40344  -0.39929  -0.39560  -0.39486  -0.39320
 Alpha  occ. eigenvalues --   -0.39213  -0.38969  -0.38545  -0.38204  -0.38032
 Alpha  occ. eigenvalues --   -0.37678  -0.37370  -0.37220  -0.37105  -0.36855
 Alpha  occ. eigenvalues --   -0.35613  -0.35217  -0.34460  -0.33107  -0.32681
 Alpha  occ. eigenvalues --   -0.31840  -0.29970  -0.28517  -0.26226  -0.23747
 Alpha  occ. eigenvalues --   -0.20242
 Alpha virt. eigenvalues --   -0.06134  -0.01259   0.01864   0.05523   0.07606
 Alpha virt. eigenvalues --    0.08822   0.09370   0.10538   0.11348   0.11554
 Alpha virt. eigenvalues --    0.12165   0.12265   0.12430   0.12895   0.13115

 Mulliken charges:
               1
     1  O   -0.557809
     2  O   -0.551099
     3  C   -0.017339
     4  C   -0.009130
     5  C   -0.177699
     6  C   -0.193113
     7  C    0.171564
     8  C    0.142635
     9  C    0.046911
    10  C    0.050924
    11  C   -0.217197
    12  C   -0.224773
    13  C    0.072024
    14  C    0.082754
    15  C   -0.310734
    16  C   -0.294322
    17  C   -0.284605
    18  C   -0.287388
    19  C   -0.100172
    20  C   -0.143418
    21  C   -0.388587
    22  C   -0.381338
    23  C   -0.100846
    24  C   -0.084827
    25  C    0.053734
    26  C    0.132553
    27  C   -0.367448
    28  C   -0.362710
    29  C   -0.106915
    30  C   -0.160068
    31  C   -0.049489
    32  C   -0.052909
    33  C   -0.116592
    34  C   -0.058987
    35  C    0.131741
    36  C    0.079282
    37  C   -0.324285
    38  C   -0.353971
    39  C   -0.132523
    40  C   -0.122758
    41  C   -0.069903
    42  C   -0.061299
    43  H    0.100557
    44  H    0.076634
    45  H    0.031231
    46  H    0.114396
    47  H    0.070639
    48  H    0.083013
    49  H    0.116248
    50  H    0.098606
    51  H    0.126954
    52  H    0.114101
    53  H    0.103721
    54  H    0.089114
    55  H    0.114878
    56  H    0.087525
    57  H    0.082683
    58  H    0.104074
    59  H    0.101650
    60  H    0.103465
    61  H    0.095069
    62  H    0.071117
    63  H    0.119959
    64  H    0.084448
    65  H    0.100976
    66  H    0.069901
    67  H    0.126188
    68  H    0.109389
    69  H    0.096625
    70  H    0.105586
    71  H    0.121810
    72  H    0.101270
    73  H    0.306219
    74  H    0.308329
    75  H    0.108559
    76  H    0.078649
    77  H    0.109569
    78  H    0.126618
    79  H    0.108441
    80  H    0.121370
    81  H    0.087419
    82  H    0.107350
    83  H    0.061500
    84  H    0.078341
    85  H    0.077464
    86  H    0.065216
    87  H    0.079249
    88  H    0.070333
    89  H    0.083207
    90  H    0.051639
    91  H    0.117957
    92  H    0.097746
    93  H    0.119347
    94  H    0.111575
    95  H    0.074928
    96  H    0.076438
    97  H    0.077673
    98  H    0.073167
 Sum of Mulliken charges =  -0.00000

 Dipole moment (field-independent basis, Debye):
    X=              1.6780    Y=             -1.9822    Z=              0.9106  Tot=              2.7521
 Quadrupole moment (field-independent basis, Debye-Ang):
   XX=           -286.7839   YY=           -247.2891   ZZ=           -263.2194
   XY=              8.5699   XZ=            -10.6012   YZ=              1.6383

 Normal termination of Gaussian 16 at Wed Jul 17 19:19:48 2019.
