 Gaussian 16, Revision A.03,
 Gaussian 16:  ES64L-G16RevA.03 25-Dec-2016

 -------------------------------------
 # td=(NStates=1) CAM-B3LYP/6-31G(d,p)
 -------------------------------------

 --
 TD
 --
 Symbolic Z-matrix:
 Charge =  0 Multiplicity = 1

                         Standard orientation:
 ---------------------------------------------------------------------
 Center     Atomic      Atomic             Coordinates (Angstroms)
 Number     Number       Type             X           Y           Z
 ---------------------------------------------------------------------
      1          8           0       14.726975   -2.091889   -0.275152
      2          8           0      -14.771549    1.804758    0.706154
      3          6           0       11.239053   -1.381052    0.930080
      4          6           0      -12.359652   -0.987668    0.529341
      5          6           0       12.766778   -1.661128    1.045168
      6          6           0      -13.836443   -0.298287    0.569185
      7          6           0       13.340728   -1.832333   -0.391596
      8          6           0      -13.534263    1.255376    0.794439
      9          6           0       10.939187   -0.354610   -0.053545
     10          6           0      -11.241093   -0.224445   -0.235948
     11          6           0       13.172230   -0.553420   -1.150728
     12          6           0      -12.740196    1.817077   -0.296185
     13          6           0       11.836162    0.057313   -1.010673
     14          6           0      -11.524754    1.021180   -0.649242
     15          6           0       10.882866   -0.878015    2.367868
     16          6           0       10.395631   -2.782548    0.683800
     17          6           0      -11.942848   -1.092178    2.017124
     18          6           0      -12.596519   -2.337257    0.059666
     19          6           0        9.630296    0.248846    0.064529
     20          6           0      -10.036557   -0.898638   -0.293771
     21          6           0       11.423970    1.130711   -2.059452
     22          6           0      -10.451601    1.694102   -1.567918
     23          6           0        9.256240    1.603128    0.004370
     24          6           0       -8.767576   -0.406330   -0.227385
     25          6           0        7.969436    2.279652    0.298813
     26          6           0       -7.599295   -1.198138   -0.387410
     27          6           0        8.059081    3.698026    0.622383
     28          6           0       -7.617861   -2.717669   -0.721833
     29          6           0        6.943023    1.529646    0.020599
     30          6           0       -6.342526   -0.513327   -0.375450
     31          6           0        5.531337    1.892880    0.279814
     32          6           0       -5.076136   -1.163169   -0.538868
     33          6           0        4.439990    1.229666    0.132650
     34          6           0       -3.911867   -0.428213   -0.311889
     35          6           0        3.121367    1.703871    0.322425
     36          6           0       -2.541031   -0.900655   -0.512587
     37          6           0        2.788792    3.129194    0.531359
     38          6           0       -2.308702   -2.255050   -0.984062
     39          6           0        2.162781    0.825923   -0.184656
     40          6           0       -1.503551    0.039262   -0.242485
     41          6           0        0.733589    0.944279    0.039463
     42          6           0       -0.113319   -0.139266   -0.237438
     43          1           0       13.458149   -0.892044    1.417673
     44          1           0       13.053472   -2.491591    1.966218
     45          1           0      -14.421000   -0.563647    1.499357
     46          1           0      -14.087898   -0.409618   -0.369725
     47          1           0       12.844319   -2.697583   -0.928390
     48          1           0      -13.073327    1.243887    1.753014
     49          1           0       13.875810    0.152162   -0.707112
     50          1           0       13.257498   -0.712757   -2.272241
     51          1           0      -13.519906    1.586852   -1.114690
     52          1           0      -12.573718    2.947142   -0.176531
     53          1           0       11.032409   -1.485270    3.257338
     54          1           0        9.758065   -0.716993    2.560490
     55          1           0       11.433680    0.071997    2.638609
     56          1           0       10.616957   -2.841244   -0.419462
     57          1           0       10.616383   -3.567353    1.318155
     58          1           0        9.273329   -2.543216    0.695149
     59          1           0      -11.726852   -0.094061    2.501807
     60          1           0      -10.988536   -1.566063    2.173312
     61          1           0      -12.770035   -1.484074    2.693748
     62          1           0      -13.340002   -2.989577    0.608411
     63          1           0      -11.642483   -2.972260    0.058556
     64          1           0      -12.995674   -2.547427   -0.929589
     65          1           0        8.839228   -0.254802    0.532921
     66          1           0      -10.100649   -1.957132   -0.336277
     67          1           0       10.253939    1.055854   -2.306578
     68          1           0       11.874418    2.114139   -1.985518
     69          1           0       11.955712    0.887943   -3.176200
     70          1           0      -11.025022    2.412975   -2.291502
     71          1           0      -10.076664    0.993451   -2.227950
     72          1           0       -9.605490    2.416257   -1.071311
     73          1           0       14.812056   -2.824279    0.416842
     74          1           0      -15.342680    1.384424    1.396192
     75          1           0       10.123876    2.329461   -0.123175
     76          1           0       -8.463355    0.723101   -0.213300
     77          1           0        8.892161    4.044860    0.833559
     78          1           0        7.488860    4.364151   -0.121170
     79          1           0        7.687598    3.816772    1.637088
     80          1           0       -8.333393   -3.181055   -0.126694
     81          1           0       -8.129216   -2.700923   -1.563695
     82          1           0       -6.648615   -3.141916   -0.738017
     83          1           0        7.031361    0.432851   -0.293285
     84          1           0       -6.359186    0.632211   -0.254788
     85          1           0        5.713017    2.865455    0.820690
     86          1           0       -4.871587   -2.154478   -0.966333
     87          1           0        4.230928    0.286246   -0.375129
     88          1           0       -3.785273    0.511449    0.102799
     89          1           0        2.900174    3.415425    1.613902
     90          1           0        1.668120    3.400258    0.290680
     91          1           0        3.471390    3.834609   -0.015997
     92          1           0       -2.541954   -3.056287   -0.238872
     93          1           0       -3.178165   -2.182580   -1.760205
     94          1           0       -1.051155   -2.252668   -1.492686
     95          1           0        2.419093   -0.060291   -0.361330
     96          1           0       -1.747006    1.008243    0.204393
     97          1           0        0.377997    2.063360    0.075276
     98          1           0        0.274943   -0.937714   -0.836142
 ---------------------------------------------------------------------

 SCF Done:  E(RCAM-B3LYP) =  -1706.90862758     A.U. after   15 cycles

 Excitation energies and oscillator strengths:

 Excited State   1:      Singlet-A      2.3045 eV  538.01 nm  f=3.5394  <S**2>=0.000
     155 ->158         0.15836
     156 ->157         0.68527
 This state for optimization and/or second-order correction.
 Total Energy, E(TD-HF/TD-DFT) =  -1706.82393929
 Copying the excited state density for this state as the 1-particle RhoCI density.

 The electronic state is 1-A.
 Alpha  occ. eigenvalues --  -19.21154 -19.21047 -10.30523 -10.29033 -10.28399
 Alpha  occ. eigenvalues --  -10.28224 -10.27558 -10.27442 -10.27343 -10.27278
 Alpha  occ. eigenvalues --  -10.27160 -10.27123 -10.27091 -10.26925 -10.26911
 Alpha  occ. eigenvalues --  -10.26827 -10.26738 -10.26728 -10.26694 -10.26556
 Alpha  occ. eigenvalues --  -10.26538 -10.26315 -10.26054 -10.25932 -10.25916
 Alpha  occ. eigenvalues --  -10.25907 -10.25772 -10.25724 -10.25694 -10.25592
 Alpha  occ. eigenvalues --  -10.25494 -10.25388 -10.25263 -10.25259 -10.25112
 Alpha  occ. eigenvalues --  -10.24920 -10.24752 -10.24605 -10.24491 -10.24485
 Alpha  occ. eigenvalues --  -10.24401 -10.23955  -1.11527  -1.08827  -0.93852
 Alpha  occ. eigenvalues --   -0.93816  -0.92865  -0.91673  -0.91189  -0.89983
 Alpha  occ. eigenvalues --   -0.87320  -0.86752  -0.86205  -0.85502  -0.84710
 Alpha  occ. eigenvalues --   -0.83594  -0.82109  -0.79975  -0.79675  -0.78590
 Alpha  occ. eigenvalues --   -0.77758  -0.77053  -0.75874  -0.75693  -0.75546
 Alpha  occ. eigenvalues --   -0.75419  -0.74986  -0.74517  -0.73581  -0.71181
 Alpha  occ. eigenvalues --   -0.68957  -0.67499  -0.65858  -0.64907  -0.64465
 Alpha  occ. eigenvalues --   -0.64046  -0.62696  -0.62208  -0.60604  -0.60164
 Alpha  occ. eigenvalues --   -0.59698  -0.59337  -0.58435  -0.57959  -0.56703
 Alpha  occ. eigenvalues --   -0.55658  -0.55302  -0.54944  -0.54420  -0.54015
 Alpha  occ. eigenvalues --   -0.53263  -0.52400  -0.52362  -0.51401  -0.50819
 Alpha  occ. eigenvalues --   -0.50523  -0.50202  -0.49805  -0.49657  -0.49336
 Alpha  occ. eigenvalues --   -0.49239  -0.48988  -0.48532  -0.48376  -0.47996
 Alpha  occ. eigenvalues --   -0.47969  -0.47737  -0.47526  -0.46881  -0.46477
 Alpha  occ. eigenvalues --   -0.46075  -0.45949  -0.45399  -0.45165  -0.44906
 Alpha  occ. eigenvalues --   -0.44266  -0.43874  -0.43584  -0.43536  -0.43240
 Alpha  occ. eigenvalues --   -0.43090  -0.42623  -0.42531  -0.42194  -0.41998
 Alpha  occ. eigenvalues --   -0.41862  -0.41647  -0.41439  -0.41201  -0.40655
 Alpha  occ. eigenvalues --   -0.40366  -0.40150  -0.39464  -0.39402  -0.39099
 Alpha  occ. eigenvalues --   -0.38746  -0.38508  -0.38278  -0.38082  -0.38062
 Alpha  occ. eigenvalues --   -0.37671  -0.36981  -0.36387  -0.36128  -0.35768
 Alpha  occ. eigenvalues --   -0.35707  -0.35367  -0.34653  -0.32153  -0.31087
 Alpha  occ. eigenvalues --   -0.30146  -0.29501  -0.28432  -0.25243  -0.23196
 Alpha  occ. eigenvalues --   -0.19599
 Alpha virt. eigenvalues --   -0.05322  -0.01057   0.01523   0.05424   0.07720
 Alpha virt. eigenvalues --    0.09153   0.10589   0.11172   0.11482   0.11683
 Alpha virt. eigenvalues --    0.12224   0.12910   0.13180   0.13436   0.13813

 Mulliken charges:
               1
     1  O   -0.567173
     2  O   -0.543768
     3  C   -0.032324
     4  C   -0.045395
     5  C   -0.199791
     6  C   -0.174869
     7  C    0.164321
     8  C    0.165810
     9  C    0.109824
    10  C    0.127742
    11  C   -0.206668
    12  C   -0.224493
    13  C    0.043380
    14  C    0.029905
    15  C   -0.306519
    16  C   -0.304765
    17  C   -0.300873
    18  C   -0.305400
    19  C   -0.128223
    20  C   -0.161463
    21  C   -0.358840
    22  C   -0.360020
    23  C   -0.123419
    24  C   -0.069973
    25  C    0.090985
    26  C    0.078555
    27  C   -0.353845
    28  C   -0.355969
    29  C   -0.111579
    30  C   -0.136289
    31  C   -0.112344
    32  C   -0.119539
    33  C   -0.092559
    34  C   -0.071044
    35  C    0.137218
    36  C    0.094062
    37  C   -0.372770
    38  C   -0.349914
    39  C   -0.131547
    40  C   -0.132932
    41  C   -0.096830
    42  C   -0.093099
    43  H    0.112168
    44  H    0.051657
    45  H    0.081798
    46  H    0.100120
    47  H    0.076538
    48  H    0.078304
    49  H    0.127959
    50  H    0.114672
    51  H    0.119580
    52  H    0.114342
    53  H    0.097579
    54  H    0.083278
    55  H    0.096231
    56  H    0.105984
    57  H    0.118746
    58  H    0.099110
    59  H    0.093132
    60  H    0.105663
    61  H    0.086815
    62  H    0.095160
    63  H    0.079180
    64  H    0.101575
    65  H    0.083201
    66  H    0.073033
    67  H    0.128446
    68  H    0.127803
    69  H    0.054474
    70  H    0.082298
    71  H    0.136998
    72  H    0.093347
    73  H    0.307614
    74  H    0.303307
    75  H    0.072942
    76  H    0.083372
    77  H    0.118204
    78  H    0.126307
    79  H    0.121695
    80  H    0.121549
    81  H    0.139817
    82  H    0.115674
    83  H    0.082185
    84  H    0.087081
    85  H    0.075213
    86  H    0.091239
    87  H    0.086062
    88  H    0.074990
    89  H    0.115714
    90  H    0.098326
    91  H    0.122662
    92  H    0.134769
    93  H    0.111784
    94  H    0.070301
    95  H    0.070218
    96  H    0.078439
    97  H    0.086014
    98  H    0.087764
 Sum of Mulliken charges =  -0.00000

 Dipole moment (field-independent basis, Debye):
    X=             -0.5653    Y=             -0.4893    Z=              1.8779  Tot=              2.0213
 Quadrupole moment (field-independent basis, Debye-Ang):
   XX=           -272.1005   YY=           -244.5251   ZZ=           -261.0975
   XY=             18.1537   XZ=              4.2852   YZ=              1.6695

 Normal termination of Gaussian 16 at Sat Jul 13 19:23:30 2019.
