 Gaussian 16, Revision A.03,
 Gaussian 16:  ES64L-G16RevA.03 25-Dec-2016

 -------------------------------------
 # td=(NStates=1) CAM-B3LYP/6-31G(d,p)
 -------------------------------------

 --
 TD
 --
 Symbolic Z-matrix:
 Charge =  0 Multiplicity = 1

                         Standard orientation:
 ---------------------------------------------------------------------
 Center     Atomic      Atomic             Coordinates (Angstroms)
 Number     Number       Type             X           Y           Z
 ---------------------------------------------------------------------
      1          8           0       14.686924   -2.150385   -0.021741
      2          8           0      -14.601218    2.122213    1.169066
      3          6           0       11.182788   -1.422202    1.098359
      4          6           0      -12.305646   -0.973941    0.714165
      5          6           0       12.654498   -1.757148    1.127909
      6          6           0      -13.610098   -0.121980    0.916679
      7          6           0       13.277213   -1.881923   -0.171269
      8          6           0      -13.402861    1.354828    1.030684
      9          6           0       10.924884   -0.178591    0.101881
     10          6           0      -11.320166   -0.211723   -0.212220
     11          6           0       13.165043   -0.569770   -0.901657
     12          6           0      -12.630677    1.958026   -0.197767
     13          6           0       11.886156    0.207551   -0.823228
     14          6           0      -11.412364    1.065965   -0.550685
     15          6           0       10.669140   -1.116669    2.553154
     16          6           0       10.393671   -2.613986    0.489447
     17          6           0      -11.780808   -1.346138    2.134049
     18          6           0      -12.788950   -2.226286   -0.065605
     19          6           0        9.670721    0.438411    0.160729
     20          6           0      -10.107644   -1.019028   -0.444421
     21          6           0       11.715416    1.301366   -1.816834
     22          6           0      -10.378049    1.814640   -1.390271
     23          6           0        9.393348    1.757053   -0.078121
     24          6           0       -8.776744   -0.574533   -0.410045
     25          6           0        8.065740    2.339287    0.130721
     26          6           0       -7.563704   -1.428483   -0.697158
     27          6           0        7.883219    3.876968    0.277411
     28          6           0       -7.688329   -2.817875   -1.130624
     29          6           0        6.931223    1.541413   -0.058340
     30          6           0       -6.366671   -0.774006   -0.544221
     31          6           0        5.648650    1.998963    0.049293
     32          6           0       -5.060931   -1.273453   -0.815950
     33          6           0        4.493364    1.146448    0.041414
     34          6           0       -3.949452   -0.508887   -0.538174
     35          6           0        3.170235    1.618488    0.033713
     36          6           0       -2.577590   -0.805705   -0.653054
     37          6           0        2.704741    2.956873    0.560645
     38          6           0       -2.467002   -2.231074   -1.142459
     39          6           0        2.076518    0.566089   -0.135754
     40          6           0       -1.626650    0.118943   -0.315052
     41          6           0        0.681842    0.863104   -0.151400
     42          6           0       -0.296473   -0.028328   -0.406508
     43          1           0       13.420091   -0.991607    1.350363
     44          1           0       12.714464   -2.639487    1.874340
     45          1           0      -14.115234   -0.674296    1.809058
     46          1           0      -14.314547   -0.031263    0.236143
     47          1           0       12.745610   -2.689474   -0.756165
     48          1           0      -12.911846    1.812569    1.953383
     49          1           0       14.025484    0.114662   -0.529665
     50          1           0       13.364536   -0.636416   -1.992810
     51          1           0      -13.282070    1.990429   -1.013061
     52          1           0      -12.344388    2.956389   -0.089890
     53          1           0       10.649847   -1.954303    3.227745
     54          1           0        9.683943   -0.729958    2.579041
     55          1           0       11.182212   -0.422040    2.963389
     56          1           0       10.659038   -2.800764   -0.544229
     57          1           0       10.763975   -3.603636    1.114442
     58          1           0        9.267534   -2.419181    0.701473
     59          1           0      -11.640980   -0.492623    2.833875
     60          1           0      -10.652354   -1.817853    2.107747
     61          1           0      -12.468664   -2.033769    2.613103
     62          1           0      -13.783484   -2.635928    0.236979
     63          1           0      -11.950684   -3.025096    0.077126
     64          1           0      -12.982280   -1.929135   -1.134060
     65          1           0        8.794309   -0.121930    0.477532
     66          1           0      -10.161845   -2.083737   -0.358840
     67          1           0       10.676593    1.373341   -1.812284
     68          1           0       12.262050    2.146049   -1.529158
     69          1           0       12.144072    0.806555   -2.856334
     70          1           0      -10.956862    2.722584   -1.920943
     71          1           0       -9.984078    0.896895   -2.071438
     72          1           0       -9.571156    2.255600   -0.622883
     73          1           0       14.872965   -2.962897    0.401796
     74          1           0      -14.938278    1.905124    1.963027
     75          1           0       10.171744    2.395342   -0.113733
     76          1           0       -8.475551    0.455027   -0.130070
     77          1           0        8.817530    4.187782    0.528162
     78          1           0        7.710468    4.234125   -0.841568
     79          1           0        7.179441    3.940140    1.191686
     80          1           0       -8.343702   -3.394382   -0.328391
     81          1           0       -8.399829   -2.891990   -2.084261
     82          1           0       -6.825198   -3.203832   -1.189035
     83          1           0        7.114206    0.503461   -0.235080
     84          1           0       -6.315558    0.261248   -0.019904
     85          1           0        5.493485    3.014788    0.152774
     86          1           0       -5.026374   -2.216241   -1.083427
     87          1           0        4.553982   -0.038334   -0.002423
     88          1           0       -4.262893    0.511387   -0.098504
     89          1           0        2.995365    3.192835    1.537618
     90          1           0        1.602585    3.123421    0.500057
     91          1           0        3.172161    3.720068   -0.190327
     92          1           0       -2.866588   -3.080504   -0.700008
     93          1           0       -2.754995   -2.188159   -2.241240
     94          1           0       -1.360970   -2.515532   -1.136278
     95          1           0        2.678398   -0.195530   -0.397269
     96          1           0       -1.844159    1.131921    0.082535
     97          1           0        0.308593    1.731515    0.326187
     98          1           0       -0.041374   -0.994082   -0.611525
 ---------------------------------------------------------------------

 SCF Done:  E(RCAM-B3LYP) =  -1706.96307808     A.U. after   16 cycles

 Excitation energies and oscillator strengths:

 Excited State   1:      Singlet-A      1.9375 eV  639.92 nm  f=3.6853  <S**2>=0.000
     155 ->158         0.13970
     156 ->157         0.69543
     156 <-157        -0.10264
 This state for optimization and/or second-order correction.
 Total Energy, E(TD-HF/TD-DFT) =  -1706.89187675
 Copying the excited state density for this state as the 1-particle RhoCI density.

 The electronic state is 1-A.
 Alpha  occ. eigenvalues --  -19.21131 -19.19461 -10.30832 -10.30250 -10.28454
 Alpha  occ. eigenvalues --  -10.28016 -10.27983 -10.27610 -10.27477 -10.27440
 Alpha  occ. eigenvalues --  -10.27268 -10.27259 -10.26940 -10.26930 -10.26890
 Alpha  occ. eigenvalues --  -10.26452 -10.26296 -10.26130 -10.26104 -10.26073
 Alpha  occ. eigenvalues --  -10.26059 -10.26039 -10.26031 -10.26030 -10.25990
 Alpha  occ. eigenvalues --  -10.25974 -10.25862 -10.25804 -10.25763 -10.25744
 Alpha  occ. eigenvalues --  -10.25632 -10.25538 -10.25497 -10.25495 -10.25197
 Alpha  occ. eigenvalues --  -10.24981 -10.24853 -10.24725 -10.24428 -10.24332
 Alpha  occ. eigenvalues --  -10.23907 -10.23022  -1.10373  -1.09791  -0.94270
 Alpha  occ. eigenvalues --   -0.92766  -0.92495  -0.91480  -0.90600  -0.89520
 Alpha  occ. eigenvalues --   -0.88098  -0.87379  -0.86374  -0.86174  -0.84696
 Alpha  occ. eigenvalues --   -0.83451  -0.82347  -0.81002  -0.79380  -0.78686
 Alpha  occ. eigenvalues --   -0.77544  -0.76874  -0.76504  -0.76149  -0.75529
 Alpha  occ. eigenvalues --   -0.75389  -0.75236  -0.74625  -0.73178  -0.70896
 Alpha  occ. eigenvalues --   -0.69383  -0.67140  -0.65990  -0.65461  -0.64268
 Alpha  occ. eigenvalues --   -0.63345  -0.63180  -0.62370  -0.61220  -0.60412
 Alpha  occ. eigenvalues --   -0.59925  -0.59444  -0.57971  -0.57855  -0.56703
 Alpha  occ. eigenvalues --   -0.56603  -0.55724  -0.55180  -0.54469  -0.53997
 Alpha  occ. eigenvalues --   -0.53461  -0.52387  -0.51833  -0.51719  -0.51560
 Alpha  occ. eigenvalues --   -0.50789  -0.50301  -0.49894  -0.49738  -0.49381
 Alpha  occ. eigenvalues --   -0.49018  -0.48477  -0.48380  -0.47974  -0.47851
 Alpha  occ. eigenvalues --   -0.47705  -0.47466  -0.46843  -0.46449  -0.46411
 Alpha  occ. eigenvalues --   -0.45952  -0.45801  -0.45502  -0.45091  -0.44774
 Alpha  occ. eigenvalues --   -0.44703  -0.44358  -0.43998  -0.43956  -0.43920
 Alpha  occ. eigenvalues --   -0.43329  -0.43161  -0.43002  -0.42481  -0.42270
 Alpha  occ. eigenvalues --   -0.42020  -0.41911  -0.41369  -0.41185  -0.41114
 Alpha  occ. eigenvalues --   -0.40303  -0.40217  -0.39984  -0.39883  -0.39537
 Alpha  occ. eigenvalues --   -0.39057  -0.38817  -0.38713  -0.38230  -0.38189
 Alpha  occ. eigenvalues --   -0.37671  -0.37491  -0.37153  -0.36888  -0.35814
 Alpha  occ. eigenvalues --   -0.35563  -0.34555  -0.33226  -0.32749  -0.32027
 Alpha  occ. eigenvalues --   -0.31189  -0.30066  -0.28127  -0.25814  -0.22806
 Alpha  occ. eigenvalues --   -0.18343
 Alpha virt. eigenvalues --   -0.06388  -0.01236   0.02297   0.05276   0.08293
 Alpha virt. eigenvalues --    0.10013   0.11269   0.11836   0.12142   0.12724
 Alpha virt. eigenvalues --    0.12770   0.13577   0.13700   0.13821   0.13998

 Mulliken charges:
               1
     1  O   -0.564353
     2  O   -0.554184
     3  C   -0.016970
     4  C   -0.007098
     5  C   -0.170375
     6  C   -0.176446
     7  C    0.161424
     8  C    0.138172
     9  C    0.065907
    10  C    0.107899
    11  C   -0.223789
    12  C   -0.218384
    13  C    0.035443
    14  C    0.014659
    15  C   -0.309784
    16  C   -0.283590
    17  C   -0.304571
    18  C   -0.299241
    19  C   -0.115805
    20  C   -0.161696
    21  C   -0.345409
    22  C   -0.345832
    23  C   -0.115991
    24  C   -0.091807
    25  C    0.004733
    26  C    0.098886
    27  C   -0.353582
    28  C   -0.341946
    29  C   -0.067621
    30  C   -0.135430
    31  C   -0.097983
    32  C   -0.051431
    33  C   -0.135272
    34  C   -0.124066
    35  C    0.074744
    36  C    0.105585
    37  C   -0.361557
    38  C   -0.384119
    39  C   -0.096846
    40  C   -0.115605
    41  C   -0.106047
    42  C   -0.041905
    43  H    0.104471
    44  H    0.071039
    45  H    0.069163
    46  H    0.113541
    47  H    0.070340
    48  H    0.063056
    49  H    0.115482
    50  H    0.104783
    51  H    0.125490
    52  H    0.113589
    53  H    0.099910
    54  H    0.103161
    55  H    0.120717
    56  H    0.116997
    57  H    0.068808
    58  H    0.099854
    59  H    0.110283
    60  H    0.085078
    61  H    0.109295
    62  H    0.096800
    63  H    0.088725
    64  H    0.111170
    65  H    0.088513
    66  H    0.074782
    67  H    0.138600
    68  H    0.132216
    69  H    0.079193
    70  H    0.088637
    71  H    0.123235
    72  H    0.107815
    73  H    0.303091
    74  H    0.290501
    75  H    0.089998
    76  H    0.083061
    77  H    0.119094
    78  H    0.129367
    79  H    0.129045
    80  H    0.103372
    81  H    0.113320
    82  H    0.109744
    83  H    0.076142
    84  H    0.074360
    85  H    0.088163
    86  H    0.067193
    87  H    0.083546
    88  H    0.064738
    89  H    0.133429
    90  H    0.111237
    91  H    0.098590
    92  H    0.138221
    93  H    0.127231
    94  H    0.091975
    95  H    0.066565
    96  H    0.076042
    97  H    0.082862
    98  H    0.065650
 Sum of Mulliken charges =  -0.00000

 Dipole moment (field-independent basis, Debye):
    X=              2.6884    Y=             -1.5205    Z=              2.1426  Tot=              3.7590
 Quadrupole moment (field-independent basis, Debye-Ang):
   XX=           -268.6208   YY=           -243.5311   ZZ=           -259.9847
   XY=             11.8139   XZ=             -7.3275   YZ=              1.8258

 Normal termination of Gaussian 16 at Sun Jul 14 12:40:30 2019.
