 Gaussian 16, Revision A.03,
 Gaussian 16:  ES64L-G16RevA.03 25-Dec-2016

 -------------------------------------
 # td=(NStates=1) CAM-B3LYP/6-31G(d,p)
 -------------------------------------

 --
 TD
 --
 Symbolic Z-matrix:
 Charge =  0 Multiplicity = 1

                         Standard orientation:
 ---------------------------------------------------------------------
 Center     Atomic      Atomic             Coordinates (Angstroms)
 Number     Number       Type             X           Y           Z
 ---------------------------------------------------------------------
      1          8           0       14.614393   -2.407029   -0.316548
      2          8           0      -15.013880    1.727867    0.718555
      3          6           0       11.093901   -1.594115    0.916656
      4          6           0      -12.458323   -1.136132    0.420069
      5          6           0       12.587085   -2.105555    0.899110
      6          6           0      -13.777382   -0.395319    0.317417
      7          6           0       13.294044   -1.924373   -0.392953
      8          6           0      -13.669171    1.072892    0.728919
      9          6           0       10.947524   -0.329901   -0.133957
     10          6           0      -11.296011   -0.311868   -0.164317
     11          6           0       13.342367   -0.658677   -0.931778
     12          6           0      -12.768011    1.713781   -0.352064
     13          6           0       11.986969    0.098188   -0.977398
     14          6           0      -11.431345    0.992293   -0.594335
     15          6           0       10.523496   -1.322456    2.229307
     16          6           0       10.209270   -2.733837    0.258529
     17          6           0      -12.007765   -1.492118    1.925601
     18          6           0      -12.617833   -2.494869   -0.371729
     19          6           0        9.713692    0.315954    0.180913
     20          6           0       -9.991355   -1.006845   -0.382988
     21          6           0       11.749291    1.234870   -1.854034
     22          6           0      -10.449516    1.877275   -1.402598
     23          6           0        9.448855    1.604529   -0.009646
     24          6           0       -8.713777   -0.372851   -0.185001
     25          6           0        8.167539    2.251346    0.251637
     26          6           0       -7.570728   -1.158410   -0.338953
     27          6           0        8.146059    3.753362    0.591833
     28          6           0       -7.639082   -2.660456   -0.535396
     29          6           0        6.939201    1.564824    0.107709
     30          6           0       -6.296461   -0.490811   -0.212902
     31          6           0        5.642929    2.146547    0.280323
     32          6           0       -4.996810   -0.977391   -0.407541
     33          6           0        4.557383    1.417322   -0.007178
     34          6           0       -3.921259   -0.131066   -0.255918
     35          6           0        3.126202    1.849986    0.278242
     36          6           0       -2.556620   -0.559328   -0.429993
     37          6           0        2.985303    3.264949    0.690937
     38          6           0       -2.248757   -1.917824   -0.905115
     39          6           0        2.157098    0.931628    0.026372
     40          6           0       -1.528089    0.289736   -0.060051
     41          6           0        0.839531    1.160677    0.111714
     42          6           0       -0.144952    0.213089   -0.132960
     43          1           0       13.243796   -1.718223    1.581128
     44          1           0       12.398282   -3.173463    1.321288
     45          1           0      -14.638915   -0.941118    1.031982
     46          1           0      -13.987246   -0.648608   -0.730036
     47          1           0       12.730714   -2.624312   -1.208201
     48          1           0      -13.247831    1.229315    1.845772
     49          1           0       14.043740    0.031678   -0.280043
     50          1           0       13.883197   -0.675537   -1.822514
     51          1           0      -13.589009    1.764323   -1.081543
     52          1           0      -12.701516    2.894884   -0.014815
     53          1           0       10.603946   -2.076063    2.896721
     54          1           0        9.505002   -1.082393    2.147632
     55          1           0       10.788847   -0.157456    2.504760
     56          1           0       10.495602   -3.183335   -0.751365
     57          1           0       10.070098   -3.657312    0.936133
     58          1           0        9.321430   -2.294787   -0.030146
     59          1           0      -11.946393   -0.561058    2.337680
     60          1           0      -11.093869   -2.147466    1.752918
     61          1           0      -12.783159   -2.076063    2.300069
     62          1           0      -13.454311   -3.121918    0.046264
     63          1           0      -11.526999   -3.083047   -0.113932
     64          1           0      -12.658077   -2.297322   -1.523328
     65          1           0        8.926641   -0.454012    0.561097
     66          1           0      -10.010277   -2.064161   -0.335466
     67          1           0       10.658501    1.313567   -2.108569
     68          1           0       12.094690    2.444305   -1.551589
     69          1           0       12.204651    1.237133   -2.831590
     70          1           0      -10.874010    2.245468   -2.170729
     71          1           0       -9.693235    1.234981   -1.897200
     72          1           0      -10.048157    2.879385   -1.094058
     73          1           0       14.502516   -3.420182   -0.233467
     74          1           0      -15.732184    1.519740    1.261699
     75          1           0       10.346560    2.294893    0.017015
     76          1           0       -8.506494    0.677651   -0.127190
     77          1           0        9.100009    4.163853    1.030040
     78          1           0        7.903454    4.433325   -0.368001
     79          1           0        7.237829    3.862197    1.180733
     80          1           0       -8.370153   -3.214421    0.134912
     81          1           0       -7.891574   -3.048351   -1.608581
     82          1           0       -6.685097   -3.252027   -0.491659
     83          1           0        6.921616    0.537729   -0.214392
     84          1           0       -6.501249    0.665036   -0.157753
     85          1           0        5.559763    3.197144    0.713055
     86          1           0       -5.039761   -2.142790   -0.642175
     87          1           0        4.832798    0.433559   -0.248786
     88          1           0       -4.227756    0.786298    0.128010
     89          1           0        3.481443    3.555152    1.776184
     90          1           0        1.939904    3.472602    0.616063
     91          1           0        3.438781    4.046156    0.121783
     92          1           0       -2.320886   -2.650117    0.074328
     93          1           0       -3.257328   -2.257688   -1.509179
     94          1           0       -1.187459   -2.114413   -1.365016
     95          1           0        2.432463    0.058851   -0.166922
     96          1           0       -2.031288    1.355431    0.112888
     97          1           0        0.197028    2.105949    0.535929
     98          1           0        0.089867   -0.743957   -0.562803
 ---------------------------------------------------------------------

 SCF Done:  E(RCAM-B3LYP) =  -1706.89837606     A.U. after   15 cycles

 Excitation energies and oscillator strengths:

 Excited State   1:      Singlet-A      2.1506 eV  576.51 nm  f=3.9051  <S**2>=0.000
     155 ->158        -0.17288
     156 ->157         0.68326
 This state for optimization and/or second-order correction.
 Total Energy, E(TD-HF/TD-DFT) =  -1706.81934366
 Copying the excited state density for this state as the 1-particle RhoCI density.

 The electronic state is 1-A.
 Alpha  occ. eigenvalues --  -19.21541 -19.19448 -10.32451 -10.30172 -10.28328
 Alpha  occ. eigenvalues --  -10.28108 -10.28083 -10.28009 -10.27997 -10.27859
 Alpha  occ. eigenvalues --  -10.27838 -10.27813 -10.27788 -10.27654 -10.27459
 Alpha  occ. eigenvalues --  -10.27352 -10.27231 -10.27220 -10.26988 -10.26889
 Alpha  occ. eigenvalues --  -10.26597 -10.26581 -10.26558 -10.26529 -10.26504
 Alpha  occ. eigenvalues --  -10.26494 -10.26475 -10.26378 -10.26246 -10.26225
 Alpha  occ. eigenvalues --  -10.26224 -10.26085 -10.26050 -10.25990 -10.25615
 Alpha  occ. eigenvalues --  -10.25227 -10.24919 -10.24598 -10.24511 -10.24288
 Alpha  occ. eigenvalues --  -10.24205 -10.23936  -1.09658  -1.06597  -0.93324
 Alpha  occ. eigenvalues --   -0.93195  -0.92730  -0.91819  -0.90455  -0.89933
 Alpha  occ. eigenvalues --   -0.87772  -0.87685  -0.86329  -0.85971  -0.84810
 Alpha  occ. eigenvalues --   -0.83632  -0.82516  -0.80557  -0.79730  -0.78952
 Alpha  occ. eigenvalues --   -0.77552  -0.76923  -0.76164  -0.76123  -0.75468
 Alpha  occ. eigenvalues --   -0.75329  -0.74988  -0.73896  -0.73339  -0.71109
 Alpha  occ. eigenvalues --   -0.68940  -0.67432  -0.65256  -0.64290  -0.64080
 Alpha  occ. eigenvalues --   -0.63573  -0.62589  -0.61719  -0.61053  -0.60258
 Alpha  occ. eigenvalues --   -0.59919  -0.58841  -0.58526  -0.57369  -0.56945
 Alpha  occ. eigenvalues --   -0.56169  -0.55142  -0.54878  -0.54350  -0.53890
 Alpha  occ. eigenvalues --   -0.53231  -0.52842  -0.51966  -0.51089  -0.50876
 Alpha  occ. eigenvalues --   -0.50292  -0.50163  -0.49242  -0.48930  -0.48844
 Alpha  occ. eigenvalues --   -0.48792  -0.48430  -0.47972  -0.47678  -0.47536
 Alpha  occ. eigenvalues --   -0.47385  -0.47039  -0.46753  -0.46698  -0.46522
 Alpha  occ. eigenvalues --   -0.46233  -0.45764  -0.45666  -0.45606  -0.45449
 Alpha  occ. eigenvalues --   -0.44973  -0.44646  -0.44318  -0.44097  -0.43960
 Alpha  occ. eigenvalues --   -0.43017  -0.42641  -0.42006  -0.41884  -0.41723
 Alpha  occ. eigenvalues --   -0.41533  -0.41378  -0.40787  -0.40672  -0.40481
 Alpha  occ. eigenvalues --   -0.40033  -0.39950  -0.39896  -0.39663  -0.39182
 Alpha  occ. eigenvalues --   -0.38645  -0.38478  -0.38379  -0.38271  -0.38102
 Alpha  occ. eigenvalues --   -0.37741  -0.37538  -0.36610  -0.36401  -0.35819
 Alpha  occ. eigenvalues --   -0.35318  -0.33964  -0.33735  -0.32822  -0.32018
 Alpha  occ. eigenvalues --   -0.31607  -0.29817  -0.28502  -0.25539  -0.22781
 Alpha  occ. eigenvalues --   -0.19396
 Alpha virt. eigenvalues --   -0.06081  -0.01989   0.01027   0.05230   0.07028
 Alpha virt. eigenvalues --    0.09289   0.10350   0.10750   0.11323   0.11618
 Alpha virt. eigenvalues --    0.12325   0.12669   0.12842   0.13225   0.13437

 Mulliken charges:
               1
     1  O   -0.561307
     2  O   -0.604205
     3  C   -0.012284
     4  C   -0.059673
     5  C   -0.172646
     6  C   -0.162948
     7  C    0.175366
     8  C    0.181034
     9  C    0.054339
    10  C    0.086058
    11  C   -0.198645
    12  C   -0.230482
    13  C    0.069868
    14  C    0.051726
    15  C   -0.288102
    16  C   -0.308545
    17  C   -0.271729
    18  C   -0.287475
    19  C   -0.102286
    20  C   -0.150078
    21  C   -0.381090
    22  C   -0.367230
    23  C   -0.140951
    24  C   -0.095828
    25  C    0.060408
    26  C    0.139203
    27  C   -0.359501
    28  C   -0.388130
    29  C   -0.121237
    30  C   -0.152094
    31  C   -0.056396
    32  C   -0.075147
    33  C   -0.127022
    34  C   -0.108684
    35  C    0.096324
    36  C    0.132944
    37  C   -0.377334
    38  C   -0.369498
    39  C   -0.056582
    40  C   -0.125399
    41  C   -0.079770
    42  C   -0.088800
    43  H    0.106192
    44  H    0.066359
    45  H    0.052610
    46  H    0.109234
    47  H    0.044440
    48  H    0.074093
    49  H    0.100564
    50  H    0.123728
    51  H    0.133990
    52  H    0.082956
    53  H    0.108045
    54  H    0.111761
    55  H    0.089576
    56  H    0.094995
    57  H    0.085586
    58  H    0.107395
    59  H    0.114947
    60  H    0.093816
    61  H    0.102419
    62  H    0.110727
    63  H    0.059348
    64  H    0.106512
    65  H    0.093412
    66  H    0.076743
    67  H    0.135280
    68  H    0.070105
    69  H    0.109080
    70  H    0.129631
    71  H    0.114805
    72  H    0.109523
    73  H    0.311584
    74  H    0.303570
    75  H    0.100589
    76  H    0.103199
    77  H    0.111677
    78  H    0.104855
    79  H    0.120968
    80  H    0.116690
    81  H    0.112029
    82  H    0.105898
    83  H    0.082324
    84  H    0.068368
    85  H    0.077112
    86  H    0.086919
    87  H    0.074688
    88  H    0.097512
    89  H    0.100296
    90  H    0.114420
    91  H    0.134165
    92  H    0.105460
    93  H    0.101000
    94  H    0.116768
    95  H    0.068327
    96  H    0.052887
    97  H    0.083394
    98  H    0.061259
 Sum of Mulliken charges =  -0.00000

 Dipole moment (field-independent basis, Debye):
    X=             -0.7795    Y=             -1.6773    Z=              0.3708  Tot=              1.8863
 Quadrupole moment (field-independent basis, Debye-Ang):
   XX=           -279.7869   YY=           -240.9291   ZZ=           -264.4526
   XY=             11.2491   XZ=             -8.1167   YZ=              1.7933

 Normal termination of Gaussian 16 at Mon Jul 15 06:03:02 2019.
