 Gaussian 16, Revision A.03,
 Gaussian 16:  ES64L-G16RevA.03 25-Dec-2016

 -------------------------------------
 # td=(NStates=1) CAM-B3LYP/6-31G(d,p)
 -------------------------------------

 --
 TD
 --
 Symbolic Z-matrix:
 Charge =  0 Multiplicity = 1

                         Standard orientation:
 ---------------------------------------------------------------------
 Center     Atomic      Atomic             Coordinates (Angstroms)
 Number     Number       Type             X           Y           Z
 ---------------------------------------------------------------------
      1          8           0       14.509397   -2.459392   -0.101444
      2          8           0      -14.759464    1.894083    0.921649
      3          6           0       10.913565   -1.549966    1.005771
      4          6           0      -12.320397   -1.087851    0.649021
      5          6           0       12.433391   -2.037543    1.022218
      6          6           0      -13.616263   -0.253567    0.745579
      7          6           0       13.052484   -2.116494   -0.306710
      8          6           0      -13.465436    1.235073    0.950506
      9          6           0       10.890524   -0.253576    0.107942
     10          6           0      -11.186020   -0.283139   -0.133471
     11          6           0       13.194439   -0.715037   -0.926180
     12          6           0      -12.749933    1.767794   -0.339450
     13          6           0       11.852952    0.042002   -0.855593
     14          6           0      -11.410474    1.047479   -0.449785
     15          6           0       10.493486   -1.199036    2.410560
     16          6           0       10.082265   -2.675578    0.428489
     17          6           0      -11.823695   -1.292306    2.088802
     18          6           0      -12.640078   -2.398077    0.022526
     19          6           0        9.679892    0.399901    0.187766
     20          6           0      -10.013861   -0.925513   -0.371153
     21          6           0       11.778262    1.226907   -1.747441
     22          6           0      -10.315804    1.663336   -1.452334
     23          6           0        9.371459    1.731738    0.073206
     24          6           0       -8.672082   -0.568233   -0.299711
     25          6           0        8.104525    2.354230    0.116660
     26          6           0       -7.484071   -1.361857   -0.645446
     27          6           0        8.034502    3.841296    0.611791
     28          6           0       -7.719218   -2.851314   -0.965316
     29          6           0        6.887047    1.738296   -0.015863
     30          6           0       -6.285651   -0.642495   -0.483786
     31          6           0        5.596159    2.264446    0.138282
     32          6           0       -4.972599   -1.130791   -0.668704
     33          6           0        4.498524    1.453537   -0.157238
     34          6           0       -3.878182   -0.303644   -0.338941
     35          6           0        3.136247    1.923113    0.033214
     36          6           0       -2.560505   -0.783831   -0.581135
     37          6           0        2.825226    3.314921    0.451693
     38          6           0       -2.111613   -2.127400   -1.099234
     39          6           0        2.185541    1.009662   -0.120716
     40          6           0       -1.591180    0.223232   -0.256329
     41          6           0        0.803323    0.996135    0.006814
     42          6           0       -0.232612    0.042896   -0.301405
     43          1           0       13.113477   -1.546631    1.579520
     44          1           0       12.592919   -3.018192    1.665498
     45          1           0      -14.253951   -0.716935    1.542113
     46          1           0      -14.080587   -0.300731   -0.226012
     47          1           0       12.794418   -3.112827   -0.944953
     48          1           0      -12.916922    1.771788    1.823680
     49          1           0       14.122672   -0.089163   -0.386679
     50          1           0       13.435887   -0.686861   -2.010581
     51          1           0      -13.366444    1.666215   -1.295219
     52          1           0      -12.776340    2.974504   -0.144704
     53          1           0       10.747173   -2.142439    2.909019
     54          1           0        9.406045   -0.799714    2.366263
     55          1           0       11.089670   -0.344995    2.680351
     56          1           0       10.308951   -3.012815   -0.707184
     57          1           0       10.358607   -3.569180    1.119475
     58          1           0        8.982947   -2.355759    0.478632
     59          1           0      -11.791620   -0.257092    2.517827
     60          1           0      -10.728287   -1.569884    1.997590
     61          1           0      -12.392991   -2.020479    2.782390
     62          1           0      -13.580332   -2.865729    0.463871
     63          1           0      -11.802985   -3.407962    0.022414
     64          1           0      -12.852151   -2.175842   -0.998217
     65          1           0        8.765973   -0.190879    0.377857
     66          1           0      -10.215250   -2.075200   -0.609892
     67          1           0       10.668564    1.335708   -2.096267
     68          1           0       12.235378    2.112728   -1.263947
     69          1           0       12.502297    1.232749   -2.746814
     70          1           0      -11.025476    2.272686   -2.097684
     71          1           0       -9.743811    0.917318   -2.067041
     72          1           0       -9.698223    2.430036   -0.974425
     73          1           0       14.579275   -3.163672    0.525068
     74          1           0      -15.559360    1.722065    1.489918
     75          1           0        9.910731    2.628634    0.087214
     76          1           0       -8.555821    0.486613   -0.023287
     77          1           0        9.068440    4.197891    0.589485
     78          1           0        7.544625    4.382080   -0.334048
     79          1           0        7.712390    3.951245    1.534004
     80          1           0       -7.717681   -3.547391   -0.040930
     81          1           0       -8.535097   -2.902828   -1.549968
     82          1           0       -6.662949   -3.373535   -1.499213
     83          1           0        6.893415    0.708745   -0.412146
     84          1           0       -6.303658    0.561471   -0.302314
     85          1           0        5.474631    3.291625    0.467073
     86          1           0       -4.556728   -1.967884   -1.245515
     87          1           0        4.781012    0.412820   -0.581643
     88          1           0       -3.940115    0.666881    0.348142
     89          1           0        3.050229    3.272575    1.549876
     90          1           0        1.847742    3.762736    0.082062
     91          1           0        3.671681    3.849648    0.165042
     92          1           0       -2.546476   -2.947488   -0.391520
     93          1           0       -2.730178   -2.309862   -2.102675
     94          1           0       -1.034437   -2.266458   -1.145084
     95          1           0        2.548273    0.081349   -0.578296
     96          1           0       -1.942182    1.259848    0.076817
     97          1           0        0.420998    1.897393    0.499996
     98          1           0        0.097352   -0.898938   -0.735975
 ---------------------------------------------------------------------

 SCF Done:  E(RCAM-B3LYP) =  -1706.95399537     A.U. after   15 cycles

 Excitation energies and oscillator strengths:

 Excited State   1:      Singlet-A      1.9922 eV  622.33 nm  f=3.8895  <S**2>=0.000
     155 ->158         0.15983
     156 ->157         0.68889
 This state for optimization and/or second-order correction.
 Total Energy, E(TD-HF/TD-DFT) =  -1706.88078159
 Copying the excited state density for this state as the 1-particle RhoCI density.

 The electronic state is 1-A.
 Alpha  occ. eigenvalues --  -19.19871 -19.19228 -10.31851 -10.31645 -10.28365
 Alpha  occ. eigenvalues --  -10.28266 -10.28171 -10.27862 -10.27833 -10.27771
 Alpha  occ. eigenvalues --  -10.27645 -10.27469 -10.27410 -10.27405 -10.27350
 Alpha  occ. eigenvalues --  -10.27306 -10.27219 -10.27049 -10.27011 -10.26806
 Alpha  occ. eigenvalues --  -10.26721 -10.26580 -10.26536 -10.26522 -10.26402
 Alpha  occ. eigenvalues --  -10.26329 -10.26184 -10.26120 -10.25957 -10.25920
 Alpha  occ. eigenvalues --  -10.25858 -10.25833 -10.25787 -10.25483 -10.25423
 Alpha  occ. eigenvalues --  -10.25353 -10.25273 -10.25214 -10.25085 -10.25057
 Alpha  occ. eigenvalues --  -10.24898 -10.24757  -1.06732  -1.06488  -0.93746
 Alpha  occ. eigenvalues --   -0.93401  -0.92393  -0.91600  -0.90554  -0.89488
 Alpha  occ. eigenvalues --   -0.87290  -0.86873  -0.86214  -0.85549  -0.84762
 Alpha  occ. eigenvalues --   -0.83629  -0.82023  -0.80276  -0.79193  -0.78620
 Alpha  occ. eigenvalues --   -0.76635  -0.76248  -0.76037  -0.75730  -0.75565
 Alpha  occ. eigenvalues --   -0.75310  -0.75104  -0.74339  -0.73000  -0.70627
 Alpha  occ. eigenvalues --   -0.69182  -0.67812  -0.65177  -0.64739  -0.63286
 Alpha  occ. eigenvalues --   -0.62812  -0.62171  -0.60863  -0.60347  -0.59871
 Alpha  occ. eigenvalues --   -0.59318  -0.58275  -0.57307  -0.56863  -0.56119
 Alpha  occ. eigenvalues --   -0.55462  -0.55231  -0.54921  -0.53820  -0.53258
 Alpha  occ. eigenvalues --   -0.52765  -0.52326  -0.51426  -0.51146  -0.50737
 Alpha  occ. eigenvalues --   -0.50340  -0.50139  -0.49778  -0.49527  -0.49100
 Alpha  occ. eigenvalues --   -0.49047  -0.48813  -0.48328  -0.47902  -0.47729
 Alpha  occ. eigenvalues --   -0.47459  -0.47259  -0.46878  -0.46191  -0.45745
 Alpha  occ. eigenvalues --   -0.45483  -0.45276  -0.45050  -0.44659  -0.44469
 Alpha  occ. eigenvalues --   -0.44245  -0.43983  -0.43770  -0.43410  -0.43148
 Alpha  occ. eigenvalues --   -0.42772  -0.42561  -0.42347  -0.41719  -0.41569
 Alpha  occ. eigenvalues --   -0.41480  -0.41175  -0.41062  -0.40474  -0.40134
 Alpha  occ. eigenvalues --   -0.40057  -0.39994  -0.39698  -0.39390  -0.39267
 Alpha  occ. eigenvalues --   -0.38844  -0.38549  -0.38386  -0.38085  -0.37767
 Alpha  occ. eigenvalues --   -0.37397  -0.36783  -0.36644  -0.36012  -0.35892
 Alpha  occ. eigenvalues --   -0.35071  -0.34268  -0.33408  -0.32711  -0.32137
 Alpha  occ. eigenvalues --   -0.31467  -0.30112  -0.28408  -0.25379  -0.22640
 Alpha  occ. eigenvalues --   -0.18726
 Alpha virt. eigenvalues --   -0.06298  -0.01691   0.01476   0.05205   0.07257
 Alpha virt. eigenvalues --    0.09908   0.11370   0.11393   0.11437   0.11970
 Alpha virt. eigenvalues --    0.12177   0.12578   0.12836   0.13325   0.13351

 Mulliken charges:
               1
     1  O   -0.586277
     2  O   -0.611684
     3  C   -0.038722
     4  C    0.003608
     5  C   -0.196147
     6  C   -0.182006
     7  C    0.155144
     8  C    0.194347
     9  C    0.103922
    10  C    0.081005
    11  C   -0.186292
    12  C   -0.227087
    13  C    0.035397
    14  C    0.014865
    15  C   -0.280283
    16  C   -0.271871
    17  C   -0.292143
    18  C   -0.292572
    19  C   -0.159548
    20  C   -0.151662
    21  C   -0.358296
    22  C   -0.362893
    23  C   -0.037827
    24  C   -0.085257
    25  C   -0.006870
    26  C    0.093931
    27  C   -0.360547
    28  C   -0.342092
    29  C   -0.107489
    30  C   -0.136245
    31  C   -0.085600
    32  C   -0.096863
    33  C   -0.118561
    34  C   -0.105301
    35  C    0.104436
    36  C    0.110389
    37  C   -0.373370
    38  C   -0.372166
    39  C   -0.101334
    40  C   -0.113758
    41  C   -0.117315
    42  C   -0.082456
    43  H    0.119542
    44  H    0.051308
    45  H    0.083412
    46  H    0.108768
    47  H    0.092089
    48  H    0.091185
    49  H    0.114665
    50  H    0.111618
    51  H    0.122026
    52  H    0.095122
    53  H    0.099534
    54  H    0.099641
    55  H    0.117758
    56  H    0.097093
    57  H    0.092227
    58  H    0.096296
    59  H    0.093962
    60  H    0.103176
    61  H    0.090495
    62  H    0.097401
    63  H    0.065797
    64  H    0.111432
    65  H    0.087926
    66  H    0.063622
    67  H    0.122055
    68  H    0.127772
    69  H    0.075777
    70  H    0.091861
    71  H    0.131097
    72  H    0.114386
    73  H    0.289105
    74  H    0.310293
    75  H    0.064675
    76  H    0.086018
    77  H    0.097354
    78  H    0.112285
    79  H    0.141280
    80  H    0.128922
    81  H    0.137787
    82  H    0.072964
    83  H    0.066063
    84  H    0.091728
    85  H    0.088839
    86  H    0.083818
    87  H    0.094774
    88  H    0.092160
    89  H    0.129272
    90  H    0.125496
    91  H    0.123446
    92  H    0.121457
    93  H    0.115945
    94  H    0.128927
    95  H    0.062451
    96  H    0.080570
    97  H    0.062664
    98  H    0.066150
 Sum of Mulliken charges =  -0.00000

 Dipole moment (field-independent basis, Debye):
    X=             -1.1906    Y=             -0.9080    Z=              1.3128  Tot=              1.9914
 Quadrupole moment (field-independent basis, Debye-Ang):
   XX=           -269.5011   YY=           -245.2721   ZZ=           -262.9438
   XY=             13.8051   XZ=              2.0290   YZ=              2.7694

 Normal termination of Gaussian 16 at Thu Jul 11 12:22:51 2019.
