 Gaussian 16, Revision A.03,
 Gaussian 16:  ES64L-G16RevA.03 25-Dec-2016

 -------------------------------------
 # td=(NStates=1) CAM-B3LYP/6-31G(d,p)
 -------------------------------------

 --
 TD
 --
 Symbolic Z-matrix:
 Charge =  0 Multiplicity = 1

                         Standard orientation:
 ---------------------------------------------------------------------
 Center     Atomic      Atomic             Coordinates (Angstroms)
 Number     Number       Type             X           Y           Z
 ---------------------------------------------------------------------
      1          8           0       14.788517   -2.209602   -0.082848
      2          8           0      -14.775877    1.988030    0.980140
      3          6           0       11.301303   -1.367676    1.029604
      4          6           0      -12.357786   -1.073100    0.796066
      5          6           0       12.779194   -1.631712    1.215348
      6          6           0      -13.765371   -0.184353    0.805143
      7          6           0       13.486664   -1.806985   -0.105135
      8          6           0      -13.568159    1.268267    0.966579
      9          6           0       10.984310   -0.199939   -0.006638
     10          6           0      -11.318076   -0.252711   -0.024618
     11          6           0       13.340713   -0.597138   -0.929247
     12          6           0      -12.718935    1.893212   -0.150807
     13          6           0       11.927206    0.113978   -0.908665
     14          6           0      -11.563552    1.033590   -0.466102
     15          6           0       10.860043   -0.896598    2.437897
     16          6           0       10.476948   -2.665199    0.677798
     17          6           0      -11.887014   -1.203247    2.244760
     18          6           0      -12.665957   -2.424772   -0.010846
     19          6           0        9.629686    0.376001    0.089677
     20          6           0      -10.116000   -1.072232   -0.272233
     21          6           0       11.782451    1.190169   -1.950805
     22          6           0      -10.637703    1.798420   -1.401823
     23          6           0        9.324772    1.796533   -0.064405
     24          6           0       -8.850223   -0.538431   -0.415736
     25          6           0        8.017096    2.293213    0.097380
     26          6           0       -7.557561   -1.183098   -0.777458
     27          6           0        7.914759    3.745905    0.328042
     28          6           0       -7.593370   -2.671284   -1.217219
     29          6           0        6.870521    1.521234   -0.022378
     30          6           0       -6.386783   -0.508323   -0.553182
     31          6           0        5.632148    1.938648    0.281388
     32          6           0       -5.092897   -1.052253   -0.823367
     33          6           0        4.527190    1.111326   -0.011322
     34          6           0       -3.871443   -0.374694   -0.459625
     35          6           0        3.124191    1.566949    0.140473
     36          6           0       -2.671677   -0.789988   -0.700045
     37          6           0        2.730914    2.885888    0.676377
     38          6           0       -2.377071   -2.233321   -1.072949
     39          6           0        2.141762    0.602616   -0.171181
     40          6           0       -1.592225    0.148365   -0.399292
     41          6           0        0.744776    0.847606   -0.135042
     42          6           0       -0.287178   -0.118003   -0.458597
     43          1           0       13.163092   -0.627979    1.769232
     44          1           0       12.897091   -2.461312    1.825111
     45          1           0      -14.307698   -0.692388    1.671986
     46          1           0      -14.193543   -0.373650   -0.182923
     47          1           0       12.795630   -2.545649   -0.768035
     48          1           0      -13.060616    1.388294    1.980979
     49          1           0       14.057620    0.215598   -0.465527
     50          1           0       13.615516   -0.511237   -2.095179
     51          1           0      -13.491806    1.920037   -0.940019
     52          1           0      -12.241202    2.745186    0.320137
     53          1           0       11.022311   -1.723694    3.231146
     54          1           0        9.851315   -0.773815    2.586855
     55          1           0       11.429899   -0.027636    2.694787
     56          1           0       10.814988   -2.876050   -0.246366
     57          1           0       10.530521   -3.505087    1.274738
     58          1           0        9.419837   -2.540272    0.593624
     59          1           0      -11.546574   -0.342892    2.672603
     60          1           0      -10.951370   -1.641045    2.061893
     61          1           0      -12.696179   -1.864537    2.878792
     62          1           0      -13.717403   -2.862288    0.282247
     63          1           0      -12.018577   -3.119224    0.210215
     64          1           0      -12.612106   -2.162372   -1.087650
     65          1           0        8.771879   -0.362494    0.447578
     66          1           0      -10.456946   -2.070133   -0.723051
     67          1           0       10.694400    1.197186   -2.173932
     68          1           0       12.121534    2.195407   -1.713030
     69          1           0       12.401788    0.822452   -2.657045
     70          1           0      -11.232355    2.339151   -2.139220
     71          1           0       -9.841829    1.110475   -1.970508
     72          1           0       -9.926372    2.320067   -0.998835
     73          1           0       14.849283   -2.947993    0.532732
     74          1           0      -15.269076    1.655645    1.493164
     75          1           0       10.159544    2.455891   -0.206368
     76          1           0       -8.760781    0.607723   -0.032587
     77          1           0        8.785342    4.186087    0.159125
     78          1           0        7.398934    4.047097   -0.555136
     79          1           0        7.168241    3.893014    1.042930
     80          1           0       -8.089626   -3.299300   -0.548985
     81          1           0       -8.334386   -2.625127   -2.165061
     82          1           0       -6.811222   -2.831288   -1.421829
     83          1           0        6.960436    0.444903   -0.216984
     84          1           0       -6.502623    0.511180   -0.010888
     85          1           0        5.397086    2.819336    0.590291
     86          1           0       -5.354620   -2.017370   -1.532015
     87          1           0        4.603518   -0.014712   -0.421352
     88          1           0       -3.972166    0.618102    0.104400
     89          1           0        3.200773    2.896386    1.492674
     90          1           0        1.828919    2.883052    0.858255
     91          1           0        3.010796    3.718906    0.005210
     92          1           0       -2.445340   -2.843707   -0.081725
     93          1           0       -3.104202   -2.535536   -1.829776
     94          1           0       -1.399987   -2.218579   -1.429343
     95          1           0        2.252140   -0.404318   -0.460485
     96          1           0       -1.851957    1.051932    0.248137
     97          1           0        0.482862    1.932443    0.048994
     98          1           0        0.098150   -1.102472   -0.849211
 ---------------------------------------------------------------------

 SCF Done:  E(RCAM-B3LYP) =  -1706.79275314     A.U. after   17 cycles

 Excitation energies and oscillator strengths:

 Excited State   1:      Singlet-A      1.6993 eV  729.64 nm  f=3.7700  <S**2>=0.000
     155 ->158         0.13275
     156 ->157         0.70409
     156 <-157        -0.14155
 This state for optimization and/or second-order correction.
 Total Energy, E(TD-HF/TD-DFT) =  -1706.73030645
 Copying the excited state density for this state as the 1-particle RhoCI density.

 The electronic state is 1-A.
 Alpha  occ. eigenvalues --  -19.22274 -19.18851 -10.31248 -10.29554 -10.28476
 Alpha  occ. eigenvalues --  -10.28108 -10.27905 -10.27767 -10.27732 -10.27647
 Alpha  occ. eigenvalues --  -10.27497 -10.27392 -10.27182 -10.27103 -10.27089
 Alpha  occ. eigenvalues --  -10.26929 -10.26676 -10.26651 -10.26508 -10.26445
 Alpha  occ. eigenvalues --  -10.26407 -10.26310 -10.26309 -10.26275 -10.26190
 Alpha  occ. eigenvalues --  -10.25892 -10.25803 -10.25687 -10.25683 -10.25032
 Alpha  occ. eigenvalues --  -10.24898 -10.24756 -10.24724 -10.24582 -10.24234
 Alpha  occ. eigenvalues --  -10.24183 -10.23930 -10.23713 -10.23708 -10.23651
 Alpha  occ. eigenvalues --  -10.22955 -10.22943  -1.13703  -1.12284  -0.93471
 Alpha  occ. eigenvalues --   -0.92713  -0.92527  -0.92241  -0.91070  -0.90008
 Alpha  occ. eigenvalues --   -0.87402  -0.86901  -0.86614  -0.85579  -0.84742
 Alpha  occ. eigenvalues --   -0.84275  -0.81955  -0.80812  -0.80378  -0.79914
 Alpha  occ. eigenvalues --   -0.77720  -0.77518  -0.77457  -0.77117  -0.76664
 Alpha  occ. eigenvalues --   -0.75723  -0.75451  -0.75242  -0.72696  -0.71168
 Alpha  occ. eigenvalues --   -0.69225  -0.67747  -0.65611  -0.64995  -0.63965
 Alpha  occ. eigenvalues --   -0.63551  -0.62564  -0.61712  -0.61379  -0.59516
 Alpha  occ. eigenvalues --   -0.59028  -0.58843  -0.58596  -0.57652  -0.56430
 Alpha  occ. eigenvalues --   -0.56187  -0.55759  -0.55380  -0.55064  -0.54258
 Alpha  occ. eigenvalues --   -0.54000  -0.52702  -0.52520  -0.51949  -0.51647
 Alpha  occ. eigenvalues --   -0.51172  -0.51014  -0.50428  -0.50361  -0.49941
 Alpha  occ. eigenvalues --   -0.49446  -0.49389  -0.49025  -0.48788  -0.48542
 Alpha  occ. eigenvalues --   -0.48230  -0.47719  -0.47685  -0.47402  -0.47131
 Alpha  occ. eigenvalues --   -0.46420  -0.46150  -0.46059  -0.45472  -0.45198
 Alpha  occ. eigenvalues --   -0.44768  -0.44655  -0.44435  -0.44086  -0.43984
 Alpha  occ. eigenvalues --   -0.43702  -0.43038  -0.42937  -0.42794  -0.42477
 Alpha  occ. eigenvalues --   -0.42258  -0.41994  -0.41530  -0.41047  -0.40891
 Alpha  occ. eigenvalues --   -0.40616  -0.40587  -0.39899  -0.39740  -0.39529
 Alpha  occ. eigenvalues --   -0.39202  -0.38928  -0.38405  -0.38205  -0.38068
 Alpha  occ. eigenvalues --   -0.37812  -0.37487  -0.36810  -0.36397  -0.35696
 Alpha  occ. eigenvalues --   -0.34606  -0.34236  -0.33451  -0.32101  -0.31780
 Alpha  occ. eigenvalues --   -0.31667  -0.29928  -0.28481  -0.26038  -0.22757
 Alpha  occ. eigenvalues --   -0.17436
 Alpha virt. eigenvalues --   -0.07333  -0.01744   0.02492   0.05665   0.08412
 Alpha virt. eigenvalues --    0.09894   0.11295   0.12056   0.12513   0.12738
 Alpha virt. eigenvalues --    0.12985   0.13194   0.13341   0.13863   0.14043

 Mulliken charges:
               1
     1  O   -0.539698
     2  O   -0.493207
     3  C   -0.032705
     4  C   -0.016148
     5  C   -0.178827
     6  C   -0.196059
     7  C    0.198594
     8  C    0.142655
     9  C    0.072642
    10  C    0.022897
    11  C   -0.206532
    12  C   -0.211595
    13  C    0.018971
    14  C    0.034571
    15  C   -0.292000
    16  C   -0.313887
    17  C   -0.288208
    18  C   -0.323956
    19  C   -0.127777
    20  C   -0.121117
    21  C   -0.349717
    22  C   -0.364558
    23  C   -0.132327
    24  C   -0.116892
    25  C    0.073584
    26  C    0.041678
    27  C   -0.366608
    28  C   -0.266386
    29  C   -0.092420
    30  C   -0.091407
    31  C   -0.062054
    32  C   -0.134402
    33  C   -0.121857
    34  C   -0.118261
    35  C    0.046556
    36  C    0.099890
    37  C   -0.319673
    38  C   -0.342551
    39  C   -0.100455
    40  C   -0.117830
    41  C   -0.112502
    42  C   -0.102186
    43  H    0.083085
    44  H    0.092365
    45  H    0.072190
    46  H    0.090835
    47  H    0.044388
    48  H    0.058965
    49  H    0.097202
    50  H    0.093361
    51  H    0.131104
    52  H    0.129346
    53  H    0.074083
    54  H    0.104640
    55  H    0.103656
    56  H    0.114611
    57  H    0.103786
    58  H    0.099242
    59  H    0.117904
    60  H    0.109081
    61  H    0.079379
    62  H    0.087491
    63  H    0.121129
    64  H    0.116806
    65  H    0.095058
    66  H    0.091409
    67  H    0.125679
    68  H    0.118493
    69  H    0.103880
    70  H    0.107400
    71  H    0.094886
    72  H    0.130842
    73  H    0.308304
    74  H    0.253504
    75  H    0.095886
    76  H    0.074082
    77  H    0.111918
    78  H    0.133477
    79  H    0.133406
    80  H    0.134019
    81  H    0.093574
    82  H    0.066056
    83  H    0.076208
    84  H    0.076834
    85  H    0.062308
    86  H    0.087189
    87  H    0.081263
    88  H    0.087268
    89  H    0.133297
    90  H    0.105343
    91  H    0.118677
    92  H    0.123413
    93  H    0.119441
    94  H    0.112569
    95  H    0.074928
    96  H    0.084460
    97  H    0.078801
    98  H    0.083244
 Sum of Mulliken charges =  -0.00000

 Dipole moment (field-independent basis, Debye):
    X=              2.4455    Y=             -1.2648    Z=              1.6815  Tot=              3.2260
 Quadrupole moment (field-independent basis, Debye-Ang):
   XX=           -285.2501   YY=           -242.8853   ZZ=           -261.7163
   XY=             17.3786   XZ=              3.1561   YZ=              0.0015

 Normal termination of Gaussian 16 at Wed Jul 10 18:12:53 2019.
