 Gaussian 16, Revision A.03,
 Gaussian 16:  ES64L-G16RevA.03 25-Dec-2016

 -------------------------------------
 # td=(NStates=1) CAM-B3LYP/6-31G(d,p)
 -------------------------------------

 --
 TD
 --
 Symbolic Z-matrix:
 Charge =  0 Multiplicity = 1

                         Standard orientation:
 ---------------------------------------------------------------------
 Center     Atomic      Atomic             Coordinates (Angstroms)
 Number     Number       Type             X           Y           Z
 ---------------------------------------------------------------------
      1          8           0       14.789911   -2.261759   -0.360251
      2          8           0      -14.758256    1.809385    0.940489
      3          6           0       11.225486   -1.386656    1.055737
      4          6           0      -12.425303   -1.101983    0.642295
      5          6           0       12.705748   -1.825815    1.180555
      6          6           0      -13.666198   -0.231094    0.660950
      7          6           0       13.368245   -1.898333   -0.206613
      8          6           0      -13.549753    1.187102    1.036450
      9          6           0       10.972910   -0.311948    0.057012
     10          6           0      -11.285658   -0.181915   -0.120420
     11          6           0       13.254566   -0.439041   -0.815692
     12          6           0      -12.652978    1.964512   -0.000443
     13          6           0       11.825805    0.070874   -0.936244
     14          6           0      -11.465167    1.160978   -0.372865
     15          6           0       10.900659   -1.045275    2.495305
     16          6           0       10.338969   -2.551600    0.781368
     17          6           0      -11.891516   -1.538232    2.108320
     18          6           0      -12.666406   -2.327875   -0.204060
     19          6           0        9.683420    0.309720    0.247941
     20          6           0       -9.992487   -0.907747   -0.444341
     21          6           0       11.528586    1.003433   -2.086036
     22          6           0      -10.452553    1.944378   -1.214094
     23          6           0        9.317341    1.630307    0.091908
     24          6           0       -8.694764   -0.369444   -0.259984
     25          6           0        8.045125    2.323757    0.202246
     26          6           0       -7.585639   -1.213127   -0.685711
     27          6           0        7.950853    3.791444    0.504035
     28          6           0       -7.790688   -2.565829   -1.236439
     29          6           0        6.866447    1.577406    0.085283
     30          6           0       -6.365236   -0.574040   -0.275134
     31          6           0        5.581316    2.108179    0.150251
     32          6           0       -5.067126   -1.150469   -0.582312
     33          6           0        4.492745    1.327321   -0.189620
     34          6           0       -3.940903   -0.445084   -0.302662
     35          6           0        3.033631    1.719020   -0.128329
     36          6           0       -2.544937   -0.848722   -0.608666
     37          6           0        2.763935    3.210485    0.359836
     38          6           0       -2.389452   -2.365194   -1.007836
     39          6           0        2.117108    0.757383   -0.311407
     40          6           0       -1.558441    0.021350   -0.418081
     41          6           0        0.803511    0.909203   -0.128839
     42          6           0       -0.175441   -0.161498   -0.455592
     43          1           0       13.218463   -1.019499    1.746963
     44          1           0       12.690206   -2.719460    1.809638
     45          1           0      -14.387674   -0.728746    1.242988
     46          1           0      -14.057186   -0.417971   -0.403083
     47          1           0       12.814587   -2.591224   -0.831198
     48          1           0      -13.034806    1.177000    1.959151
     49          1           0       13.920223    0.270227   -0.381665
     50          1           0       13.494842   -0.527366   -1.786094
     51          1           0      -13.310737    2.023816   -0.955727
     52          1           0      -12.267283    2.990186    0.385367
     53          1           0       11.103903   -1.773562    3.218203
     54          1           0       10.008500   -0.758670    2.736127
     55          1           0       11.586067   -0.153047    2.785113
     56          1           0       10.378596   -3.035020   -0.330933
     57          1           0       10.337624   -3.409878    1.462290
     58          1           0        9.315004   -2.324475    0.628566
     59          1           0      -11.765736   -0.626672    2.779617
     60          1           0      -10.765102   -1.973358    1.988809
     61          1           0      -12.680844   -2.428645    2.418147
     62          1           0      -13.466275   -2.883952    0.201621
     63          1           0      -11.851517   -3.130425   -0.266978
     64          1           0      -12.813347   -1.937474   -1.229717
     65          1           0        8.832275   -0.184584    0.602100
     66          1           0      -10.109585   -1.930321   -0.677883
     67          1           0       10.524093    1.232722   -2.072515
     68          1           0       12.002332    1.990083   -1.709593
     69          1           0       11.917770    0.509828   -3.024200
     70          1           0      -11.213366    2.761839   -1.817598
     71          1           0       -9.868368    1.352830   -1.894433
     72          1           0       -9.856388    2.522505   -0.563515
     73          1           0       14.830930   -2.991578    0.105910
     74          1           0      -15.193585    1.504554    1.750309
     75          1           0       10.037439    2.490777   -0.256108
     76          1           0       -8.482811    0.465255    0.283988
     77          1           0        8.997427    4.329863    0.453330
     78          1           0        7.297374    4.452652   -0.100549
     79          1           0        7.532786    3.926653    1.710741
     80          1           0       -8.255539   -3.264511   -0.654206
     81          1           0       -8.531771   -2.407923   -2.114086
     82          1           0       -6.907999   -3.036582   -1.449392
     83          1           0        7.174088    0.407251   -0.033077
     84          1           0       -6.210620    0.405248    0.205023
     85          1           0        5.478831    3.218592    0.381500
     86          1           0       -4.978948   -2.251719   -0.820644
     87          1           0        4.627733    0.305712   -0.639126
     88          1           0       -3.932101    0.482089   -0.117243
     89          1           0        2.863472    2.888636    1.525168
     90          1           0        1.626873    3.551040   -0.169268
     91          1           0        3.751906    4.000891    0.162468
     92          1           0       -3.325239   -3.126309   -0.618275
     93          1           0       -2.436816   -2.290036   -2.151654
     94          1           0       -1.359211   -2.660482   -0.588095
     95          1           0        2.368432   -0.170091   -0.681828
     96          1           0       -1.930761    1.043775   -0.014951
     97          1           0        0.257228    1.827655    0.026792
     98          1           0        0.056807   -1.214720   -0.866627
 ---------------------------------------------------------------------

 SCF Done:  E(RCAM-B3LYP) =  -1706.91766461     A.U. after   15 cycles

 Excitation energies and oscillator strengths:

 Excited State   1:      Singlet-A      2.2176 eV  559.09 nm  f=3.6596  <S**2>=0.000
     155 ->158        -0.16679
     156 ->157         0.68461
 This state for optimization and/or second-order correction.
 Total Energy, E(TD-HF/TD-DFT) =  -1706.83616910
 Copying the excited state density for this state as the 1-particle RhoCI density.

 The electronic state is 1-A.
 Alpha  occ. eigenvalues --  -19.21970 -19.19971 -10.30982 -10.30578 -10.29798
 Alpha  occ. eigenvalues --  -10.28558 -10.28264 -10.28110 -10.28017 -10.27838
 Alpha  occ. eigenvalues --  -10.27835 -10.27782 -10.27356 -10.27349 -10.27166
 Alpha  occ. eigenvalues --  -10.27151 -10.26993 -10.26839 -10.26831 -10.26828
 Alpha  occ. eigenvalues --  -10.26549 -10.26519 -10.26469 -10.26188 -10.26126
 Alpha  occ. eigenvalues --  -10.25971 -10.25955 -10.25888 -10.25699 -10.25533
 Alpha  occ. eigenvalues --  -10.25492 -10.25487 -10.25457 -10.25348 -10.25335
 Alpha  occ. eigenvalues --  -10.24975 -10.24892 -10.24825 -10.24619 -10.24128
 Alpha  occ. eigenvalues --  -10.23690 -10.22937  -1.12443  -1.09935  -0.94366
 Alpha  occ. eigenvalues --   -0.92269  -0.92004  -0.91303  -0.90464  -0.89858
 Alpha  occ. eigenvalues --   -0.87809  -0.86667  -0.86418  -0.85393  -0.83910
 Alpha  occ. eigenvalues --   -0.83030  -0.81247  -0.79990  -0.79814  -0.77875
 Alpha  occ. eigenvalues --   -0.77132  -0.76552  -0.76028  -0.75788  -0.75289
 Alpha  occ. eigenvalues --   -0.74804  -0.74244  -0.73797  -0.72707  -0.70462
 Alpha  occ. eigenvalues --   -0.69008  -0.67517  -0.66282  -0.65302  -0.64768
 Alpha  occ. eigenvalues --   -0.63090  -0.62239  -0.61809  -0.61251  -0.60585
 Alpha  occ. eigenvalues --   -0.60225  -0.58578  -0.57739  -0.57012  -0.56361
 Alpha  occ. eigenvalues --   -0.56042  -0.54990  -0.54741  -0.54346  -0.53430
 Alpha  occ. eigenvalues --   -0.52381  -0.51919  -0.51702  -0.51392  -0.50883
 Alpha  occ. eigenvalues --   -0.50787  -0.50354  -0.49653  -0.49478  -0.49312
 Alpha  occ. eigenvalues --   -0.48743  -0.48277  -0.48105  -0.47937  -0.47574
 Alpha  occ. eigenvalues --   -0.47469  -0.47304  -0.46797  -0.46387  -0.46046
 Alpha  occ. eigenvalues --   -0.45873  -0.45724  -0.45649  -0.45325  -0.44859
 Alpha  occ. eigenvalues --   -0.44760  -0.44520  -0.44345  -0.44096  -0.43381
 Alpha  occ. eigenvalues --   -0.43171  -0.42969  -0.42789  -0.42221  -0.42086
 Alpha  occ. eigenvalues --   -0.41983  -0.41650  -0.41392  -0.41006  -0.40559
 Alpha  occ. eigenvalues --   -0.40468  -0.40270  -0.40122  -0.40014  -0.39009
 Alpha  occ. eigenvalues --   -0.38911  -0.38628  -0.38113  -0.37922  -0.37547
 Alpha  occ. eigenvalues --   -0.37142  -0.36755  -0.36535  -0.36329  -0.35814
 Alpha  occ. eigenvalues --   -0.35306  -0.34402  -0.33604  -0.33060  -0.32365
 Alpha  occ. eigenvalues --   -0.32233  -0.29262  -0.28249  -0.25269  -0.22790
 Alpha  occ. eigenvalues --   -0.19398
 Alpha virt. eigenvalues --   -0.05629  -0.01141   0.01827   0.06055   0.07490
 Alpha virt. eigenvalues --    0.09423   0.10286   0.11276   0.11441   0.12093
 Alpha virt. eigenvalues --    0.12266   0.12837   0.12987   0.13192   0.13411

 Mulliken charges:
               1
     1  O   -0.540656
     2  O   -0.525079
     3  C   -0.024436
     4  C   -0.002142
     5  C   -0.189913
     6  C   -0.173280
     7  C    0.132744
     8  C    0.157602
     9  C    0.106294
    10  C    0.030036
    11  C   -0.208101
    12  C   -0.222948
    13  C    0.000067
    14  C    0.039671
    15  C   -0.288434
    16  C   -0.303544
    17  C   -0.288218
    18  C   -0.308632
    19  C   -0.126172
    20  C   -0.157901
    21  C   -0.342741
    22  C   -0.340403
    23  C   -0.112949
    24  C   -0.069977
    25  C    0.087832
    26  C    0.096811
    27  C   -0.365767
    28  C   -0.366932
    29  C   -0.095620
    30  C   -0.144673
    31  C   -0.099075
    32  C   -0.075705
    33  C   -0.109647
    34  C   -0.085190
    35  C    0.061344
    36  C    0.092868
    37  C   -0.328335
    38  C   -0.354547
    39  C   -0.071251
    40  C   -0.121667
    41  C   -0.102204
    42  C   -0.111117
    43  H    0.100771
    44  H    0.083745
    45  H    0.075460
    46  H    0.089609
    47  H    0.090284
    48  H    0.082653
    49  H    0.123376
    50  H    0.106134
    51  H    0.120900
    52  H    0.100898
    53  H    0.103378
    54  H    0.108529
    55  H    0.083237
    56  H    0.068548
    57  H    0.103398
    58  H    0.114993
    59  H    0.101376
    60  H    0.094328
    61  H    0.077404
    62  H    0.103494
    63  H    0.091526
    64  H    0.112295
    65  H    0.080567
    66  H    0.081832
    67  H    0.133602
    68  H    0.112847
    69  H    0.113238
    70  H    0.062727
    71  H    0.128963
    72  H    0.120590
    73  H    0.288341
    74  H    0.302562
    75  H    0.058094
    76  H    0.090843
    77  H    0.097573
    78  H    0.126430
    79  H    0.092206
    80  H    0.139153
    81  H    0.118308
    82  H    0.113473
    83  H    0.072016
    84  H    0.094457
    85  H    0.086534
    86  H    0.073185
    87  H    0.087782
    88  H    0.054303
    89  H    0.132086
    90  H    0.100912
    91  H    0.097584
    92  H    0.095284
    93  H    0.129571
    94  H    0.110523
    95  H    0.087641
    96  H    0.069459
    97  H    0.085760
    98  H    0.077205
 Sum of Mulliken charges =  -0.00000

 Dipole moment (field-independent basis, Debye):
    X=             -2.1857    Y=             -1.6017    Z=              1.9793  Tot=              3.3557
 Quadrupole moment (field-independent basis, Debye-Ang):
   XX=           -294.3883   YY=           -243.6949   ZZ=           -261.4890
   XY=             14.8987   XZ=             -7.1021   YZ=              2.3565

 Normal termination of Gaussian 16 at Fri Jul 19 04:29:04 2019.
