 Gaussian 16, Revision A.03,
 Gaussian 16:  ES64L-G16RevA.03 25-Dec-2016

 -------------------------------------
 # td=(NStates=1) CAM-B3LYP/6-31G(d,p)
 -------------------------------------

 --
 TD
 --
 Symbolic Z-matrix:
 Charge =  0 Multiplicity = 1

                         Standard orientation:
 ---------------------------------------------------------------------
 Center     Atomic      Atomic             Coordinates (Angstroms)
 Number     Number       Type             X           Y           Z
 ---------------------------------------------------------------------
      1          8           0       14.612821   -2.135509   -0.140438
      2          8           0      -14.784952    1.921356    1.012797
      3          6           0       11.210130   -1.355852    0.980185
      4          6           0      -12.462377   -1.037579    0.539709
      5          6           0       12.637697   -1.818395    0.974427
      6          6           0      -13.750156   -0.223499    0.662016
      7          6           0       13.227559   -1.815302   -0.281158
      8          6           0      -13.502183    1.225045    0.978575
      9          6           0       10.935498   -0.211620    0.013960
     10          6           0      -11.332198   -0.194764   -0.099879
     11          6           0       13.225439   -0.536258   -0.956923
     12          6           0      -12.695919    1.861757   -0.071570
     13          6           0       11.946169    0.041694   -0.966341
     14          6           0      -11.459665    1.077071   -0.469822
     15          6           0       10.795176   -1.024006    2.418599
     16          6           0       10.351675   -2.689775    0.519067
     17          6           0      -11.885333   -1.562106    1.868582
     18          6           0      -12.695464   -2.172471   -0.369347
     19          6           0        9.637678    0.352095    0.149895
     20          6           0      -10.145992   -0.973369   -0.454857
     21          6           0       11.638430    1.233387   -1.885347
     22          6           0      -10.534264    1.890105   -1.384660
     23          6           0        9.405205    1.677270    0.084177
     24          6           0       -8.881413   -0.502042   -0.417543
     25          6           0        8.083855    2.303318    0.226077
     26          6           0       -7.595446   -1.247172   -0.549029
     27          6           0        7.975639    3.761662    0.581544
     28          6           0       -7.653780   -2.694937   -0.838954
     29          6           0        6.957814    1.478551    0.134170
     30          6           0       -6.392963   -0.556628   -0.219628
     31          6           0        5.646130    1.883263    0.117502
     32          6           0       -5.090465   -1.061046   -0.498000
     33          6           0        4.478710    1.182574   -0.164557
     34          6           0       -3.870701   -0.358482   -0.313935
     35          6           0        3.192278    1.579800    0.012553
     36          6           0       -2.532145   -0.766403   -0.458521
     37          6           0        2.913002    2.961185    0.376395
     38          6           0       -2.267246   -2.113145   -0.976674
     39          6           0        2.169177    0.704899   -0.180210
     40          6           0       -1.557081    0.147613   -0.152947
     41          6           0        0.791438    0.945710   -0.182368
     42          6           0       -0.236830   -0.061378   -0.359195
     43          1           0       13.282184   -1.312013    1.557608
     44          1           0       12.656222   -2.841497    1.399170
     45          1           0      -14.291654   -0.822136    1.244902
     46          1           0      -14.225436   -0.381533   -0.138946
     47          1           0       12.746220   -2.579899   -0.758688
     48          1           0      -13.030032    1.155295    1.993943
     49          1           0       14.180270    0.028027   -0.305846
     50          1           0       13.665602   -0.513715   -1.992957
     51          1           0      -13.098099    1.917388   -0.880734
     52          1           0      -12.396512    3.044107    0.055932
     53          1           0       10.902337   -1.992153    2.936297
     54          1           0        9.695805   -0.965102    2.333512
     55          1           0       11.280674   -0.217781    2.981944
     56          1           0       10.798071   -3.301678   -0.382139
     57          1           0       10.169681   -3.428839    1.326171
     58          1           0        9.159029   -2.212306    0.059616
     59          1           0      -11.822428   -0.815608    2.458756
     60          1           0      -10.883641   -2.032902    2.039550
     61          1           0      -12.674587   -2.371759    2.205500
     62          1           0      -13.563716   -2.745855   -0.168149
     63          1           0      -11.768855   -2.812340   -0.264942
     64          1           0      -12.785158   -1.906087   -1.536389
     65          1           0        8.896181   -0.305346    0.269160
     66          1           0      -10.347598   -1.943736   -0.732251
     67          1           0       10.401957    1.331969   -1.964822
     68          1           0       12.000938    2.234476   -1.728496
     69          1           0       12.188296    1.054036   -2.815146
     70          1           0      -11.135135    2.607337   -1.873945
     71          1           0       -9.944191    1.275234   -2.090208
     72          1           0       -9.774729    2.351025   -0.955785
     73          1           0       14.599120   -2.876647    0.481875
     74          1           0      -15.111714    1.595524    2.026764
     75          1           0       10.268566    2.281312    0.153620
     76          1           0       -8.884752    0.505402    0.046564
     77          1           0        8.910073    4.180254    0.518993
     78          1           0        7.066527    4.189087    0.007378
     79          1           0        7.610753    3.841937    1.742395
     80          1           0       -8.360774   -3.211556   -0.037831
     81          1           0       -8.070625   -2.726886   -1.833425
     82          1           0       -6.561926   -3.215619   -0.986759
     83          1           0        7.242310    0.562939   -0.335104
     84          1           0       -6.394452    0.567306    0.159836
     85          1           0        5.625838    3.035553    0.649249
     86          1           0       -4.955225   -1.968304   -1.074505
     87          1           0        4.677868    0.270376   -0.529910
     88          1           0       -4.092040    0.520279    0.217773
     89          1           0        3.355611    3.008667    1.370153
     90          1           0        1.924693    3.274315    0.497297
     91          1           0        3.354521    3.627058   -0.343795
     92          1           0       -2.487598   -2.788743   -0.241542
     93          1           0       -2.775516   -2.103547   -2.046948
     94          1           0       -1.212163   -2.065968   -1.424750
     95          1           0        2.319999   -0.368868   -0.370937
     96          1           0       -1.728858    1.135434    0.476323
     97          1           0        0.432483    1.911579    0.041027
     98          1           0        0.280167   -0.948871   -0.731031
 ---------------------------------------------------------------------

 SCF Done:  E(RCAM-B3LYP) =  -1706.86888257     A.U. after   16 cycles

 Excitation energies and oscillator strengths:

 Excited State   1:      Singlet-A      1.9185 eV  646.27 nm  f=3.8141  <S**2>=0.000
     155 ->158        -0.14719
     156 ->157         0.69480
     156 <-157        -0.10306
 This state for optimization and/or second-order correction.
 Total Energy, E(TD-HF/TD-DFT) =  -1706.79838067
 Copying the excited state density for this state as the 1-particle RhoCI density.

 The electronic state is 1-A.
 Alpha  occ. eigenvalues --  -19.22308 -19.20578 -10.30861 -10.28781 -10.28382
 Alpha  occ. eigenvalues --  -10.27861 -10.27626 -10.27625 -10.27534 -10.27460
 Alpha  occ. eigenvalues --  -10.27245 -10.26965 -10.26951 -10.26900 -10.26750
 Alpha  occ. eigenvalues --  -10.26487 -10.26278 -10.26161 -10.26138 -10.26121
 Alpha  occ. eigenvalues --  -10.26112 -10.26070 -10.26042 -10.25947 -10.25894
 Alpha  occ. eigenvalues --  -10.25814 -10.25536 -10.25288 -10.25226 -10.25179
 Alpha  occ. eigenvalues --  -10.24931 -10.24917 -10.24912 -10.24799 -10.24798
 Alpha  occ. eigenvalues --  -10.24762 -10.24375 -10.24338 -10.23963 -10.23618
 Alpha  occ. eigenvalues --  -10.23086 -10.22296  -1.10000  -1.06847  -0.94790
 Alpha  occ. eigenvalues --   -0.94675  -0.93009  -0.92163  -0.91062  -0.90020
 Alpha  occ. eigenvalues --   -0.88307  -0.87481  -0.87203  -0.86629  -0.85612
 Alpha  occ. eigenvalues --   -0.83555  -0.82433  -0.80887  -0.80296  -0.79111
 Alpha  occ. eigenvalues --   -0.78284  -0.77257  -0.77225  -0.76692  -0.76041
 Alpha  occ. eigenvalues --   -0.75788  -0.75764  -0.74131  -0.73060  -0.70759
 Alpha  occ. eigenvalues --   -0.69518  -0.68446  -0.66726  -0.65748  -0.64779
 Alpha  occ. eigenvalues --   -0.64142  -0.63556  -0.61960  -0.61159  -0.60626
 Alpha  occ. eigenvalues --   -0.59667  -0.59338  -0.58872  -0.57923  -0.56471
 Alpha  occ. eigenvalues --   -0.56069  -0.55721  -0.55082  -0.54443  -0.54297
 Alpha  occ. eigenvalues --   -0.53608  -0.53088  -0.52415  -0.52047  -0.51793
 Alpha  occ. eigenvalues --   -0.50910  -0.50687  -0.50561  -0.50499  -0.50278
 Alpha  occ. eigenvalues --   -0.49584  -0.49281  -0.48841  -0.48473  -0.48095
 Alpha  occ. eigenvalues --   -0.47832  -0.47577  -0.47326  -0.47088  -0.46285
 Alpha  occ. eigenvalues --   -0.46058  -0.45825  -0.45730  -0.45625  -0.44776
 Alpha  occ. eigenvalues --   -0.44481  -0.44128  -0.43918  -0.43586  -0.43185
 Alpha  occ. eigenvalues --   -0.43138  -0.43025  -0.42836  -0.42057  -0.41983
 Alpha  occ. eigenvalues --   -0.41908  -0.41590  -0.41326  -0.41146  -0.40872
 Alpha  occ. eigenvalues --   -0.40644  -0.40378  -0.40139  -0.39799  -0.39431
 Alpha  occ. eigenvalues --   -0.39422  -0.39137  -0.39038  -0.38499  -0.37956
 Alpha  occ. eigenvalues --   -0.37706  -0.37266  -0.37151  -0.37093  -0.36548
 Alpha  occ. eigenvalues --   -0.35258  -0.35004  -0.34057  -0.32493  -0.32364
 Alpha  occ. eigenvalues --   -0.31911  -0.29452  -0.27663  -0.25876  -0.23180
 Alpha  occ. eigenvalues --   -0.18391
 Alpha virt. eigenvalues --   -0.06610  -0.01640   0.02149   0.05063   0.07611
 Alpha virt. eigenvalues --    0.08868   0.09636   0.10696   0.11816   0.12357
 Alpha virt. eigenvalues --    0.12845   0.13221   0.13583   0.13658   0.13734

 Mulliken charges:
               1
     1  O   -0.565283
     2  O   -0.557125
     3  C   -0.034918
     4  C   -0.046006
     5  C   -0.191317
     6  C   -0.152745
     7  C    0.187964
     8  C    0.134129
     9  C    0.058733
    10  C    0.062718
    11  C   -0.215927
    12  C   -0.183629
    13  C    0.083769
    14  C    0.014192
    15  C   -0.294573
    16  C   -0.301835
    17  C   -0.287750
    18  C   -0.304048
    19  C   -0.081653
    20  C   -0.105321
    21  C   -0.368418
    22  C   -0.363106
    23  C   -0.123691
    24  C   -0.118063
    25  C    0.082589
    26  C    0.088364
    27  C   -0.364616
    28  C   -0.361396
    29  C   -0.099162
    30  C   -0.120973
    31  C   -0.100322
    32  C   -0.095377
    33  C   -0.107742
    34  C   -0.110283
    35  C    0.132728
    36  C    0.091302
    37  C   -0.367168
    38  C   -0.366514
    39  C   -0.131855
    40  C   -0.107705
    41  C   -0.096870
    42  C   -0.089875
    43  H    0.103579
    44  H    0.073465
    45  H    0.085440
    46  H    0.108287
    47  H    0.082921
    48  H    0.082501
    49  H    0.094072
    50  H    0.108310
    51  H    0.133907
    52  H    0.084404
    53  H    0.091442
    54  H    0.104202
    55  H    0.115003
    56  H    0.104732
    57  H    0.111433
    58  H    0.045947
    59  H    0.111318
    60  H    0.110199
    61  H    0.072586
    62  H    0.100836
    63  H    0.099449
    64  H    0.089394
    65  H    0.087433
    66  H    0.075702
    67  H    0.104202
    68  H    0.116743
    69  H    0.087068
    70  H    0.102787
    71  H    0.119107
    72  H    0.130876
    73  H    0.294290
    74  H    0.300740
    75  H    0.098261
    76  H    0.084861
    77  H    0.118085
    78  H    0.125706
    79  H    0.108219
    80  H    0.116862
    81  H    0.132797
    82  H    0.099158
    83  H    0.077525
    84  H    0.082426
    85  H    0.049457
    86  H    0.074847
    87  H    0.075173
    88  H    0.066857
    89  H    0.125656
    90  H    0.111346
    91  H    0.123189
    92  H    0.144585
    93  H    0.114228
    94  H    0.108701
    95  H    0.069933
    96  H    0.089962
    97  H    0.066813
    98  H    0.081757
 Sum of Mulliken charges =  -0.00000

 Dipole moment (field-independent basis, Debye):
    X=             -1.1236    Y=             -1.6934    Z=              2.0645  Tot=              2.8970
 Quadrupole moment (field-independent basis, Debye-Ang):
   XX=           -282.4481   YY=           -245.7415   ZZ=           -258.2656
   XY=             13.9053   XZ=              0.6913   YZ=              1.1181

 Normal termination of Gaussian 16 at Sun Jul 14 06:08:57 2019.
