 Gaussian 16, Revision A.03,
 Gaussian 16:  ES64L-G16RevA.03 25-Dec-2016

 -------------------------------------
 # td=(NStates=1) CAM-B3LYP/6-31G(d,p)
 -------------------------------------

 --
 TD
 --
 Symbolic Z-matrix:
 Charge =  0 Multiplicity = 1

                         Standard orientation:
 ---------------------------------------------------------------------
 Center     Atomic      Atomic             Coordinates (Angstroms)
 Number     Number       Type             X           Y           Z
 ---------------------------------------------------------------------
      1          8           0       14.636299   -2.402334   -0.518847
      2          8           0      -14.830196    2.016540    0.738152
      3          6           0       11.209882   -1.421827    1.100535
      4          6           0      -12.399134   -0.998734    0.515357
      5          6           0       12.734959   -1.774604    1.043793
      6          6           0      -13.709084   -0.240362    0.508918
      7          6           0       13.235094   -2.004249   -0.433321
      8          6           0      -13.607074    1.156188    0.735091
      9          6           0       10.997296   -0.280351    0.014818
     10          6           0      -11.300548   -0.320074   -0.161813
     11          6           0       13.139964   -0.663416   -1.236588
     12          6           0      -12.696693    1.844103   -0.319963
     13          6           0       11.866946    0.002697   -0.978611
     14          6           0      -11.418762    1.006779   -0.560752
     15          6           0       10.975757   -0.892266    2.504490
     16          6           0       10.294915   -2.604788    0.821871
     17          6           0      -11.884859   -1.203300    2.035975
     18          6           0      -12.659654   -2.439686    0.057680
     19          6           0        9.676083    0.546691    0.234896
     20          6           0      -10.052530   -1.015682   -0.313753
     21          6           0       11.537463    1.066068   -2.021452
     22          6           0      -10.448043    1.734507   -1.411021
     23          6           0        9.389219    1.790487    0.035726
     24          6           0       -8.802139   -0.527475   -0.239254
     25          6           0        8.107952    2.315912    0.166152
     26          6           0       -7.568956   -1.226576   -0.463424
     27          6           0        7.993504    3.827543    0.442148
     28          6           0       -7.585238   -2.810286   -0.854929
     29          6           0        7.009166    1.613938    0.044334
     30          6           0       -6.335272   -0.543315   -0.390465
     31          6           0        5.590115    2.028046    0.236019
     32          6           0       -5.017001   -1.068752   -0.688327
     33          6           0        4.460016    1.266194    0.138938
     34          6           0       -3.916976   -0.322671   -0.420442
     35          6           0        3.134636    1.697362    0.194881
     36          6           0       -2.596872   -0.763077   -0.444552
     37          6           0        2.773254    3.022913    0.554235
     38          6           0       -2.318264   -2.097189   -0.912798
     39          6           0        2.095890    0.708827    0.012387
     40          6           0       -1.636471    0.269434   -0.185642
     41          6           0        0.711357    0.930852    0.077799
     42          6           0       -0.213009    0.013435   -0.267105
     43          1           0       13.346234   -1.084171    1.519510
     44          1           0       12.768533   -2.727310    1.490441
     45          1           0      -14.656827   -0.629012    1.176244
     46          1           0      -14.266911   -0.380136   -0.606225
     47          1           0       12.631089   -2.811170   -0.998562
     48          1           0      -13.116228    1.351288    1.907009
     49          1           0       13.894233   -0.011698   -0.657282
     50          1           0       13.376284   -0.850504   -2.227264
     51          1           0      -13.136132    1.980830   -1.416229
     52          1           0      -12.516667    2.845325   -0.218329
     53          1           0       11.110011   -1.569464    3.318444
     54          1           0        9.995387   -0.376982    2.824382
     55          1           0       11.724087   -0.078768    2.818416
     56          1           0       10.548597   -3.028362   -0.182414
     57          1           0       10.428553   -3.444209    1.522506
     58          1           0        9.240843   -1.997365    0.828177
     59          1           0      -11.610965   -0.372306    2.405528
     60          1           0      -10.831552   -1.732154    2.241815
     61          1           0      -12.631160   -1.705770    2.849171
     62          1           0      -13.538396   -2.893810    0.753888
     63          1           0      -11.764696   -3.063929    0.330387
     64          1           0      -12.953886   -2.727007   -0.962650
     65          1           0        8.763640   -0.202292    0.286198
     66          1           0      -10.066593   -2.133502   -0.572631
     67          1           0       10.373596    1.475852   -2.178774
     68          1           0       12.240514    1.914818   -1.851546
     69          1           0       11.799172    0.577015   -3.050218
     70          1           0      -11.012174    2.173829   -2.279111
     71          1           0       -9.769091    0.996306   -1.839206
     72          1           0       -9.865718    2.526224   -0.967875
     73          1           0       14.735723   -3.251300   -0.052078
     74          1           0      -15.395055    1.264297    1.371872
     75          1           0       10.024767    2.600695   -0.153382
     76          1           0       -8.673557    0.458552   -0.057082
     77          1           0        8.980750    4.325751    0.676297
     78          1           0        7.262075    4.254890   -0.395627
     79          1           0        7.577429    3.941098    1.444907
     80          1           0       -7.985538   -3.513948   -0.085192
     81          1           0       -8.018778   -3.015759   -1.829297
     82          1           0       -6.551089   -3.371441   -1.014973
     83          1           0        7.162372    0.486005   -0.145369
     84          1           0       -6.567983    0.672072   -0.180092
     85          1           0        5.438630    2.985536    0.596338
     86          1           0       -4.862255   -1.928862   -0.968731
     87          1           0        4.678139    0.407652   -0.384969
     88          1           0       -3.945079    0.710626   -0.312261
     89          1           0        3.242046    3.359781    1.520984
     90          1           0        1.743538    3.015006    0.605124
     91          1           0        3.363763    3.693525   -0.266059
     92          1           0       -2.828011   -2.991401   -0.051438
     93          1           0       -2.782380   -2.276215   -1.935348
     94          1           0       -1.249455   -2.223889   -0.820186
     95          1           0        2.484988   -0.423747   -0.486417
     96          1           0       -1.822053    1.381929   -0.034066
     97          1           0        0.324154    1.760939    0.460069
     98          1           0        0.108912   -0.996789   -0.552267
 ---------------------------------------------------------------------

 SCF Done:  E(RCAM-B3LYP) =  -1706.89693701     A.U. after   14 cycles

 Excitation energies and oscillator strengths:

 Excited State   1:      Singlet-A      2.3348 eV  531.03 nm  f=3.6975  <S**2>=0.000
     155 ->158         0.15468
     156 ->157         0.68801
 This state for optimization and/or second-order correction.
 Total Energy, E(TD-HF/TD-DFT) =  -1706.81113587
 Copying the excited state density for this state as the 1-particle RhoCI density.

 The electronic state is 1-A.
 Alpha  occ. eigenvalues --  -19.22654 -19.21208 -10.32123 -10.31575 -10.28908
 Alpha  occ. eigenvalues --  -10.28360 -10.28285 -10.28240 -10.28181 -10.28084
 Alpha  occ. eigenvalues --  -10.28005 -10.27981 -10.27350 -10.27331 -10.27139
 Alpha  occ. eigenvalues --  -10.26963 -10.26883 -10.26743 -10.26741 -10.26642
 Alpha  occ. eigenvalues --  -10.26533 -10.26400 -10.26298 -10.26190 -10.26010
 Alpha  occ. eigenvalues --  -10.25986 -10.25947 -10.25926 -10.25869 -10.25789
 Alpha  occ. eigenvalues --  -10.25550 -10.25535 -10.25486 -10.25195 -10.24967
 Alpha  occ. eigenvalues --  -10.24930 -10.24746 -10.24739 -10.24671 -10.24662
 Alpha  occ. eigenvalues --  -10.24644 -10.24437  -1.08081  -1.05687  -0.94497
 Alpha  occ. eigenvalues --   -0.93307  -0.92945  -0.92325  -0.91568  -0.89655
 Alpha  occ. eigenvalues --   -0.88363  -0.87472  -0.86801  -0.85501  -0.84621
 Alpha  occ. eigenvalues --   -0.83106  -0.82251  -0.80000  -0.79609  -0.78130
 Alpha  occ. eigenvalues --   -0.76522  -0.76313  -0.76027  -0.75848  -0.75742
 Alpha  occ. eigenvalues --   -0.75653  -0.75553  -0.74841  -0.73535  -0.71220
 Alpha  occ. eigenvalues --   -0.68627  -0.67203  -0.65742  -0.65206  -0.64787
 Alpha  occ. eigenvalues --   -0.63516  -0.63274  -0.62880  -0.61041  -0.60424
 Alpha  occ. eigenvalues --   -0.59388  -0.57934  -0.57812  -0.56734  -0.55550
 Alpha  occ. eigenvalues --   -0.55329  -0.55114  -0.54916  -0.54439  -0.53895
 Alpha  occ. eigenvalues --   -0.53533  -0.52612  -0.52218  -0.51819  -0.50804
 Alpha  occ. eigenvalues --   -0.49870  -0.49708  -0.49408  -0.49212  -0.49010
 Alpha  occ. eigenvalues --   -0.48973  -0.48796  -0.48510  -0.48332  -0.47974
 Alpha  occ. eigenvalues --   -0.47598  -0.47435  -0.46976  -0.46517  -0.46170
 Alpha  occ. eigenvalues --   -0.46110  -0.45688  -0.44936  -0.44842  -0.44564
 Alpha  occ. eigenvalues --   -0.44273  -0.43987  -0.43771  -0.43667  -0.43291
 Alpha  occ. eigenvalues --   -0.43238  -0.43132  -0.42667  -0.42607  -0.41741
 Alpha  occ. eigenvalues --   -0.41609  -0.41197  -0.41089  -0.40958  -0.40502
 Alpha  occ. eigenvalues --   -0.40301  -0.40261  -0.39941  -0.39521  -0.39344
 Alpha  occ. eigenvalues --   -0.39110  -0.39050  -0.38828  -0.38657  -0.38319
 Alpha  occ. eigenvalues --   -0.38179  -0.37598  -0.36711  -0.36283  -0.36001
 Alpha  occ. eigenvalues --   -0.35610  -0.35025  -0.34415  -0.32340  -0.32054
 Alpha  occ. eigenvalues --   -0.31731  -0.29848  -0.28349  -0.26408  -0.23585
 Alpha  occ. eigenvalues --   -0.19860
 Alpha virt. eigenvalues --   -0.05600  -0.00776   0.02385   0.05336   0.07855
 Alpha virt. eigenvalues --    0.08418   0.08894   0.11259   0.11575   0.12137
 Alpha virt. eigenvalues --    0.12347   0.12483   0.12840   0.12976   0.13341

 Mulliken charges:
               1
     1  O   -0.567111
     2  O   -0.551321
     3  C   -0.007494
     4  C   -0.015261
     5  C   -0.185952
     6  C   -0.171933
     7  C    0.143275
     8  C    0.175800
     9  C    0.029629
    10  C    0.106041
    11  C   -0.209072
    12  C   -0.209138
    13  C    0.060329
    14  C    0.041244
    15  C   -0.314362
    16  C   -0.284715
    17  C   -0.298040
    18  C   -0.292986
    19  C   -0.109640
    20  C   -0.152147
    21  C   -0.348508
    22  C   -0.380385
    23  C   -0.068179
    24  C   -0.079959
    25  C    0.096619
    26  C    0.104118
    27  C   -0.377836
    28  C   -0.384450
    29  C   -0.130445
    30  C   -0.136304
    31  C   -0.110231
    32  C   -0.051892
    33  C   -0.084993
    34  C   -0.073948
    35  C    0.108004
    36  C    0.117057
    37  C   -0.357162
    38  C   -0.357104
    39  C   -0.127587
    40  C   -0.143001
    41  C   -0.068712
    42  C   -0.081978
    43  H    0.113017
    44  H    0.082161
    45  H    0.065768
    46  H    0.084892
    47  H    0.072022
    48  H    0.052610
    49  H    0.122529
    50  H    0.119411
    51  H    0.097676
    52  H    0.124697
    53  H    0.104323
    54  H    0.100209
    55  H    0.090883
    56  H    0.101338
    57  H    0.104529
    58  H    0.090937
    59  H    0.120950
    60  H    0.093480
    61  H    0.076975
    62  H    0.079707
    63  H    0.105357
    64  H    0.105934
    65  H    0.076210
    66  H    0.083000
    67  H    0.106901
    68  H    0.115191
    69  H    0.090118
    70  H    0.099810
    71  H    0.125717
    72  H    0.120461
    73  H    0.303624
    74  H    0.286357
    75  H    0.086275
    76  H    0.077681
    77  H    0.102856
    78  H    0.118965
    79  H    0.130299
    80  H    0.118615
    81  H    0.127220
    82  H    0.090869
    83  H    0.065294
    84  H    0.066466
    85  H    0.068440
    86  H    0.052475
    87  H    0.076268
    88  H    0.073434
    89  H    0.122252
    90  H    0.110941
    91  H    0.105530
    92  H    0.073613
    93  H    0.133184
    94  H    0.113987
    95  H    0.061184
    96  H    0.096349
    97  H    0.079973
    98  H    0.080767
 Sum of Mulliken charges =  -0.00000

 Dipole moment (field-independent basis, Debye):
    X=              1.6806    Y=             -1.6863    Z=              0.7179  Tot=              2.4867
 Quadrupole moment (field-independent basis, Debye-Ang):
   XX=           -290.6800   YY=           -245.2598   ZZ=           -261.6783
   XY=             15.9424   XZ=              7.6083   YZ=              1.0222

 Normal termination of Gaussian 16 at Sat Jul 13 06:31:31 2019.
