 Gaussian 16, Revision A.03,
 Gaussian 16:  ES64L-G16RevA.03 25-Dec-2016

 -------------------------------------
 # td=(NStates=1) CAM-B3LYP/6-31G(d,p)
 -------------------------------------

 --
 TD
 --
 Symbolic Z-matrix:
 Charge =  0 Multiplicity = 1

                         Standard orientation:
 ---------------------------------------------------------------------
 Center     Atomic      Atomic             Coordinates (Angstroms)
 Number     Number       Type             X           Y           Z
 ---------------------------------------------------------------------
      1          8           0       14.815869   -2.139514   -0.262908
      2          8           0      -14.724535    2.050683    0.809969
      3          6           0       11.269148   -1.409108    0.913321
      4          6           0      -12.442718   -1.046818    0.514493
      5          6           0       12.806884   -1.523352    1.111950
      6          6           0      -13.760879   -0.185164    0.436145
      7          6           0       13.420542   -1.779011   -0.277805
      8          6           0      -13.541000    1.212406    0.844383
      9          6           0       10.960283   -0.216247   -0.088158
     10          6           0      -11.223032   -0.198923   -0.228101
     11          6           0       13.351288   -0.533485   -1.088031
     12          6           0      -12.635568    1.885577   -0.187309
     13          6           0       11.877988    0.103095   -1.060441
     14          6           0      -11.435699    1.018510   -0.552390
     15          6           0       10.766846   -0.874346    2.360295
     16          6           0       10.488754   -2.674503    0.559479
     17          6           0      -11.987252   -1.317040    1.974044
     18          6           0      -12.636615   -2.400324   -0.152517
     19          6           0        9.605843    0.411670    0.085321
     20          6           0      -10.007718   -0.941906   -0.465402
     21          6           0       11.599946    1.209023   -2.101658
     22          6           0      -10.517080    1.827110   -1.500499
     23          6           0        9.348906    1.723591   -0.099088
     24          6           0       -8.787079   -0.518010   -0.360155
     25          6           0        7.982660    2.250439    0.083650
     26          6           0       -7.641462   -1.269577   -0.532562
     27          6           0        7.862374    3.681993    0.383471
     28          6           0       -7.737326   -2.706469   -0.896836
     29          6           0        6.903320    1.418074    0.058440
     30          6           0       -6.403874   -0.604413   -0.284960
     31          6           0        5.558412    1.930342    0.291816
     32          6           0       -5.046851   -1.141699   -0.365647
     33          6           0        4.445421    1.180147    0.068433
     34          6           0       -3.967519   -0.400636   -0.337560
     35          6           0        3.081876    1.570338    0.265115
     36          6           0       -2.599573   -0.833715   -0.348693
     37          6           0        2.789055    3.040170    0.771123
     38          6           0       -2.397128   -2.245936   -0.603467
     39          6           0        2.170127    0.655114   -0.061272
     40          6           0       -1.581973    0.077097   -0.136200
     41          6           0        0.770114    0.788950    0.016576
     42          6           0       -0.128992   -0.239244   -0.145516
     43          1           0       13.498291   -0.939867    1.556182
     44          1           0       13.025750   -2.570286    1.718891
     45          1           0      -14.623819   -0.504525    0.988453
     46          1           0      -14.135915    0.054228   -0.563465
     47          1           0       12.832505   -2.559594   -0.838999
     48          1           0      -12.985791    1.553405    1.709513
     49          1           0       14.193185   -0.089146   -0.681372
     50          1           0       13.564302   -0.713767   -2.095267
     51          1           0      -13.161043    2.165640   -1.234957
     52          1           0      -12.259295    3.011070    0.010124
     53          1           0       11.028731   -1.556582    3.240860
     54          1           0        9.495667   -0.764718    2.339346
     55          1           0       11.102245    0.148475    2.665657
     56          1           0       11.036402   -2.967410   -0.435393
     57          1           0       10.631776   -3.569633    1.378880
     58          1           0        9.501594   -2.383269    0.479562
     59          1           0      -12.112249   -0.225181    2.431362
     60          1           0      -10.988677   -1.813316    2.006735
     61          1           0      -12.861343   -2.011545    2.342096
     62          1           0      -13.689776   -2.765253   -0.002364
     63          1           0      -11.756889   -3.002526    0.155717
     64          1           0      -12.505521   -2.259748   -1.295558
     65          1           0        8.883170   -0.291530    0.404620
     66          1           0      -10.259286   -1.862881   -0.757394
     67          1           0       10.565735    1.504341   -1.989661
     68          1           0       12.048253    2.026094   -1.802297
     69          1           0       12.184832    0.995334   -2.819940
     70          1           0      -11.220311    2.418887   -2.299276
     71          1           0       -9.910935    1.045355   -2.053407
     72          1           0       -9.933049    2.363252   -0.928010
     73          1           0       14.931548   -3.037163   -0.084327
     74          1           0      -15.368887    1.879942    1.459885
     75          1           0       10.235980    2.407742   -0.137531
     76          1           0       -8.745102    0.697895    0.022797
     77          1           0        8.700291    4.215160    0.481318
     78          1           0        7.434783    4.173381   -0.573702
     79          1           0        7.059028    4.121194    1.224857
     80          1           0       -7.959847   -3.471857   -0.032150
     81          1           0       -8.452227   -2.881549   -1.807985
     82          1           0       -6.831003   -3.249320   -1.050005
     83          1           0        6.908667    0.431991   -0.230878
     84          1           0       -6.337551    0.484744    0.065692
     85          1           0        5.358873    2.937971    0.613666
     86          1           0       -5.128884   -2.156597   -0.865909
     87          1           0        4.425632    0.077666   -0.380226
     88          1           0       -4.147159    0.611686   -0.092364
     89          1           0        3.822418    3.151392    1.611169
     90          1           0        1.618246    2.995085    1.426758
     91          1           0        2.630071    3.906980    0.014300
     92          1           0       -2.830419   -2.882519    0.200976
     93          1           0       -2.894595   -2.341900   -1.535638
     94          1           0       -1.277045   -2.632525   -0.875193
     95          1           0        2.613023   -0.411311   -0.394866
     96          1           0       -1.839908    1.186195    0.085182
     97          1           0        0.534186    1.887290    0.147906
     98          1           0        0.137995   -1.368550   -0.483601
 ---------------------------------------------------------------------

 SCF Done:  E(RCAM-B3LYP) =  -1706.88132523     A.U. after   14 cycles

 Excitation energies and oscillator strengths:

 Excited State   1:      Singlet-A      2.6448 eV  468.78 nm  f=3.6965  <S**2>=0.000
     155 ->158         0.19279
     156 ->157         0.67367
 This state for optimization and/or second-order correction.
 Total Energy, E(TD-HF/TD-DFT) =  -1706.78412904
 Copying the excited state density for this state as the 1-particle RhoCI density.

 The electronic state is 1-A.
 Alpha  occ. eigenvalues --  -19.20733 -19.20036 -10.31186 -10.30039 -10.29961
 Alpha  occ. eigenvalues --  -10.28708 -10.28412 -10.28002 -10.27894 -10.27513
 Alpha  occ. eigenvalues --  -10.27411 -10.27390 -10.27313 -10.27301 -10.27235
 Alpha  occ. eigenvalues --  -10.27197 -10.26956 -10.26642 -10.26609 -10.26593
 Alpha  occ. eigenvalues --  -10.26491 -10.26419 -10.26365 -10.26337 -10.26302
 Alpha  occ. eigenvalues --  -10.26286 -10.26281 -10.26255 -10.26235 -10.26101
 Alpha  occ. eigenvalues --  -10.25783 -10.25654 -10.25611 -10.25546 -10.25150
 Alpha  occ. eigenvalues --  -10.25093 -10.24962 -10.24501 -10.24457 -10.24241
 Alpha  occ. eigenvalues --  -10.23858 -10.22133  -1.09585  -1.08498  -0.93547
 Alpha  occ. eigenvalues --   -0.92786  -0.92464  -0.91798  -0.90875  -0.90472
 Alpha  occ. eigenvalues --   -0.87305  -0.86601  -0.86205  -0.85806  -0.85173
 Alpha  occ. eigenvalues --   -0.83917  -0.82284  -0.81001  -0.80503  -0.77627
 Alpha  occ. eigenvalues --   -0.77004  -0.76496  -0.76146  -0.75503  -0.75062
 Alpha  occ. eigenvalues --   -0.74727  -0.74531  -0.73873  -0.73673  -0.70966
 Alpha  occ. eigenvalues --   -0.69002  -0.67511  -0.65822  -0.64765  -0.63480
 Alpha  occ. eigenvalues --   -0.63016  -0.61893  -0.61084  -0.60768  -0.60255
 Alpha  occ. eigenvalues --   -0.60215  -0.59471  -0.58186  -0.57744  -0.55792
 Alpha  occ. eigenvalues --   -0.55468  -0.55246  -0.54972  -0.54030  -0.53521
 Alpha  occ. eigenvalues --   -0.53352  -0.52454  -0.52030  -0.51401  -0.50760
 Alpha  occ. eigenvalues --   -0.50593  -0.50345  -0.49914  -0.49555  -0.49045
 Alpha  occ. eigenvalues --   -0.48831  -0.48613  -0.48109  -0.47885  -0.47675
 Alpha  occ. eigenvalues --   -0.47225  -0.47009  -0.46695  -0.46369  -0.46152
 Alpha  occ. eigenvalues --   -0.45902  -0.45592  -0.44957  -0.44837  -0.44596
 Alpha  occ. eigenvalues --   -0.44263  -0.44003  -0.43918  -0.43549  -0.43442
 Alpha  occ. eigenvalues --   -0.43057  -0.42173  -0.42068  -0.41936  -0.41716
 Alpha  occ. eigenvalues --   -0.41573  -0.41553  -0.41222  -0.40627  -0.40429
 Alpha  occ. eigenvalues --   -0.40048  -0.39794  -0.39746  -0.39369  -0.39106
 Alpha  occ. eigenvalues --   -0.39002  -0.38450  -0.37965  -0.37706  -0.37323
 Alpha  occ. eigenvalues --   -0.37225  -0.37144  -0.36684  -0.36317  -0.36017
 Alpha  occ. eigenvalues --   -0.35559  -0.34039  -0.33183  -0.32578  -0.32553
 Alpha  occ. eigenvalues --   -0.31540  -0.30198  -0.28647  -0.26518  -0.23549
 Alpha  occ. eigenvalues --   -0.20745
 Alpha virt. eigenvalues --   -0.04594  -0.00977   0.02285   0.06312   0.08462
 Alpha virt. eigenvalues --    0.09570   0.10409   0.11315   0.11705   0.11822
 Alpha virt. eigenvalues --    0.12481   0.12576   0.12952   0.13486   0.13601

 Mulliken charges:
               1
     1  O   -0.570244
     2  O   -0.577093
     3  C   -0.023101
     4  C   -0.015841
     5  C   -0.148441
     6  C   -0.189558
     7  C    0.127873
     8  C    0.163960
     9  C    0.041894
    10  C    0.056067
    11  C   -0.197218
    12  C   -0.222985
    13  C   -0.006711
    14  C    0.027767
    15  C   -0.292954
    16  C   -0.268905
    17  C   -0.274938
    18  C   -0.309180
    19  C   -0.071062
    20  C   -0.119121
    21  C   -0.335780
    22  C   -0.347332
    23  C   -0.152767
    24  C   -0.067203
    25  C    0.104102
    26  C    0.112063
    27  C   -0.371039
    28  C   -0.377935
    29  C   -0.107470
    30  C   -0.139397
    31  C   -0.111234
    32  C   -0.081888
    33  C   -0.097939
    34  C   -0.101230
    35  C    0.137888
    36  C    0.118460
    37  C   -0.333605
    38  C   -0.370647
    39  C   -0.127570
    40  C   -0.133394
    41  C   -0.086350
    42  C   -0.092953
    43  H    0.117526
    44  H    0.046906
    45  H    0.085236
    46  H    0.120890
    47  H    0.068866
    48  H    0.094937
    49  H    0.127830
    50  H    0.107828
    51  H    0.092250
    52  H    0.092901
    53  H    0.092103
    54  H    0.051223
    55  H    0.111225
    56  H    0.094912
    57  H    0.088647
    58  H    0.117811
    59  H    0.089897
    60  H    0.115474
    61  H    0.082403
    62  H    0.106589
    63  H    0.105162
    64  H    0.095196
    65  H    0.094744
    66  H    0.070870
    67  H    0.127142
    68  H    0.127363
    69  H    0.097614
    70  H    0.084524
    71  H    0.111845
    72  H    0.129844
    73  H    0.301077
    74  H    0.294389
    75  H    0.107359
    76  H    0.070399
    77  H    0.117664
    78  H    0.115261
    79  H    0.099550
    80  H    0.108902
    81  H    0.115483
    82  H    0.118053
    83  H    0.083110
    84  H    0.077210
    85  H    0.081280
    86  H    0.077179
    87  H    0.069329
    88  H    0.079332
    89  H    0.087471
    90  H    0.070869
    91  H    0.133798
    92  H    0.129012
    93  H    0.133939
    94  H    0.083767
    95  H    0.069502
    96  H    0.081930
    97  H    0.088036
    98  H    0.089351
 Sum of Mulliken charges =  -0.00000

 Dipole moment (field-independent basis, Debye):
    X=              0.0029    Y=             -1.6854    Z=              0.4769  Tot=              1.7516
 Quadrupole moment (field-independent basis, Debye-Ang):
   XX=           -266.3422   YY=           -241.5653   ZZ=           -266.4548
   XY=             13.0878   XZ=            -10.4069   YZ=              3.1819

 Normal termination of Gaussian 16 at Wed Jul 17 09:41:13 2019.
