 Gaussian 16, Revision A.03,
 Gaussian 16:  ES64L-G16RevA.03 25-Dec-2016

 -------------------------------------
 # td=(NStates=1) CAM-B3LYP/6-31G(d,p)
 -------------------------------------

 --
 TD
 --
 Symbolic Z-matrix:
 Charge =  0 Multiplicity = 1

                         Standard orientation:
 ---------------------------------------------------------------------
 Center     Atomic      Atomic             Coordinates (Angstroms)
 Number     Number       Type             X           Y           Z
 ---------------------------------------------------------------------
      1          8           0       14.686124   -2.256172   -0.102664
      2          8           0      -14.678409    1.802367    1.246998
      3          6           0       11.122088   -1.588719    0.987220
      4          6           0      -12.290134   -1.033850    0.706647
      5          6           0       12.629711   -1.832161    1.100695
      6          6           0      -13.642823   -0.374323    0.854948
      7          6           0       13.333212   -1.922002   -0.299497
      8          6           0      -13.396553    1.084132    1.202980
      9          6           0       10.946366   -0.388908    0.135124
     10          6           0      -11.211795   -0.268960   -0.032514
     11          6           0       13.278410   -0.561447   -0.837215
     12          6           0      -12.757347    1.833624    0.063885
     13          6           0       11.947363    0.068271   -0.729271
     14          6           0      -11.525474    0.964089   -0.507610
     15          6           0       10.660341   -1.172370    2.473707
     16          6           0       10.210473   -2.771996    0.530728
     17          6           0      -11.713369   -1.351051    2.116435
     18          6           0      -12.573424   -2.401061    0.009033
     19          6           0        9.574870    0.356129    0.335987
     20          6           0      -10.010432   -1.026062   -0.396866
     21          6           0       11.808231    1.280566   -1.757366
     22          6           0      -10.798324    1.807735   -1.398841
     23          6           0        9.355465    1.633373    0.180792
     24          6           0       -8.756371   -0.534814   -0.309698
     25          6           0        8.080945    2.248826    0.281273
     26          6           0       -7.578861   -1.244282   -0.601240
     27          6           0        7.991608    3.744694    0.503210
     28          6           0       -7.689529   -2.640125   -1.252891
     29          6           0        6.899586    1.523703    0.038759
     30          6           0       -6.437976   -0.570552   -0.536489
     31          6           0        5.592436    2.048486    0.220484
     32          6           0       -5.075255   -1.062502   -0.759815
     33          6           0        4.452953    1.210617   -0.120496
     34          6           0       -3.971975   -0.195546   -0.722720
     35          6           0        3.080255    1.659617   -0.008223
     36          6           0       -2.578995   -0.570702   -0.826807
     37          6           0        2.933312    3.151220    0.380298
     38          6           0       -2.236000   -1.966489   -1.251742
     39          6           0        2.112898    0.889969   -0.365700
     40          6           0       -1.544940    0.382510   -0.572624
     41          6           0        0.751500    0.959591   -0.255094
     42          6           0       -0.228943    0.147455   -0.663160
     43          1           0       12.831143   -0.895288    1.742113
     44          1           0       12.926340   -2.757242    1.795943
     45          1           0      -14.160016   -0.870181    1.641360
     46          1           0      -14.276744   -0.633153   -0.065820
     47          1           0       12.745063   -2.621501   -0.607027
     48          1           0      -13.023848    1.491483    2.155655
     49          1           0       14.028032    0.191022   -0.426510
     50          1           0       13.549189   -0.436245   -1.942963
     51          1           0      -13.464965    1.845150   -0.871151
     52          1           0      -12.278017    2.825708    0.462726
     53          1           0       10.604275   -2.013348    3.196766
     54          1           0        9.654446   -0.844637    2.560851
     55          1           0       11.221254   -0.362498    3.013169
     56          1           0       10.296894   -3.022814   -0.574735
     57          1           0       10.459638   -3.572555    1.103436
     58          1           0        9.203583   -2.441754    0.887919
     59          1           0      -11.266209   -0.528682    2.558318
     60          1           0      -10.821706   -1.865422    2.017911
     61          1           0      -12.526119   -1.698857    2.587622
     62          1           0      -13.409374   -2.737913    0.460472
     63          1           0      -11.775748   -3.291749    0.136433
     64          1           0      -12.835534   -2.336361   -0.872918
     65          1           0        8.618652   -0.268152    0.312190
     66          1           0      -10.225598   -2.075238   -0.776806
     67          1           0       10.786324    1.448348   -1.603512
     68          1           0       12.098024    2.240670   -1.381675
     69          1           0       12.175719    0.736214   -2.638565
     70          1           0      -11.407615    2.351658   -2.129179
     71          1           0      -10.074492    1.225906   -1.999439
     72          1           0      -10.169521    2.604435   -0.865973
     73          1           0       14.423183   -3.152357    0.419783
     74          1           0      -15.130816    1.448370    2.033230
     75          1           0       10.044095    2.359238    0.103976
     76          1           0       -8.682671    0.324687    0.059260
     77          1           0        9.144382    4.019665    0.726432
     78          1           0        7.557984    4.360482   -0.439744
     79          1           0        7.476817    3.676284    1.533757
     80          1           0       -8.549520   -3.274757   -0.701544
     81          1           0       -8.060511   -2.408420   -2.422856
     82          1           0       -6.785767   -3.157445   -1.250002
     83          1           0        6.937689    0.482116   -0.325938
     84          1           0       -6.608356    0.341673   -0.390416
     85          1           0        5.454308    3.029516    0.244759
     86          1           0       -4.959590   -2.090981   -0.967802
     87          1           0        4.487312    0.184992   -0.284423
     88          1           0       -4.165267    0.791993   -0.230660
     89          1           0        3.092903    3.136383    1.424750
     90          1           0        1.887799    3.347650    0.115809
     91          1           0        3.473361    3.762118   -0.337320
     92          1           0       -2.544851   -2.577107   -0.325359
     93          1           0       -2.875639   -2.077222   -2.003630
     94          1           0       -1.188520   -2.012259   -1.654704
     95          1           0        2.672840    0.015540   -0.774518
     96          1           0       -1.781135    1.129503   -0.158410
     97          1           0        0.456630    2.057438    0.149295
     98          1           0        0.217530   -0.873784   -1.072965
 ---------------------------------------------------------------------

 SCF Done:  E(RCAM-B3LYP) =  -1706.83988473     A.U. after   15 cycles

 Excitation energies and oscillator strengths:

 Excited State   1:      Singlet-A      2.2700 eV  546.19 nm  f=3.7500  <S**2>=0.000
     155 ->158        -0.16418
     156 ->157         0.68641
 This state for optimization and/or second-order correction.
 Total Energy, E(TD-HF/TD-DFT) =  -1706.75646400
 Copying the excited state density for this state as the 1-particle RhoCI density.

 The electronic state is 1-A.
 Alpha  occ. eigenvalues --  -19.22036 -19.19539 -10.30218 -10.29179 -10.28347
 Alpha  occ. eigenvalues --  -10.27859 -10.27667 -10.27647 -10.27223 -10.27136
 Alpha  occ. eigenvalues --  -10.27079 -10.26739 -10.26630 -10.26566 -10.26564
 Alpha  occ. eigenvalues --  -10.26526 -10.26496 -10.26429 -10.26274 -10.26206
 Alpha  occ. eigenvalues --  -10.26140 -10.25893 -10.25844 -10.25844 -10.25827
 Alpha  occ. eigenvalues --  -10.25811 -10.25667 -10.25577 -10.25354 -10.25177
 Alpha  occ. eigenvalues --  -10.25014 -10.24675 -10.24650 -10.24598 -10.24556
 Alpha  occ. eigenvalues --  -10.24496 -10.24295 -10.24294 -10.24108 -10.23842
 Alpha  occ. eigenvalues --  -10.23080 -10.22045  -1.09330  -1.07470  -0.93995
 Alpha  occ. eigenvalues --   -0.93497  -0.92965  -0.92300  -0.91468  -0.90858
 Alpha  occ. eigenvalues --   -0.87806  -0.87195  -0.86787  -0.85577  -0.84789
 Alpha  occ. eigenvalues --   -0.82810  -0.82068  -0.80385  -0.79904  -0.79143
 Alpha  occ. eigenvalues --   -0.78590  -0.76905  -0.76774  -0.76604  -0.76113
 Alpha  occ. eigenvalues --   -0.75687  -0.75540  -0.75406  -0.73842  -0.70902
 Alpha  occ. eigenvalues --   -0.69205  -0.67663  -0.66339  -0.65589  -0.64322
 Alpha  occ. eigenvalues --   -0.63964  -0.63740  -0.62358  -0.61092  -0.60877
 Alpha  occ. eigenvalues --   -0.60075  -0.59387  -0.58171  -0.57392  -0.56685
 Alpha  occ. eigenvalues --   -0.55883  -0.55053  -0.54809  -0.54278  -0.53848
 Alpha  occ. eigenvalues --   -0.53137  -0.52977  -0.52336  -0.51714  -0.51469
 Alpha  occ. eigenvalues --   -0.51253  -0.50783  -0.50408  -0.50076  -0.49842
 Alpha  occ. eigenvalues --   -0.49583  -0.49141  -0.49030  -0.48951  -0.48496
 Alpha  occ. eigenvalues --   -0.48158  -0.47534  -0.47326  -0.47027  -0.46712
 Alpha  occ. eigenvalues --   -0.46342  -0.46295  -0.45651  -0.45411  -0.45026
 Alpha  occ. eigenvalues --   -0.44882  -0.44478  -0.44218  -0.43874  -0.43643
 Alpha  occ. eigenvalues --   -0.43404  -0.42857  -0.42548  -0.42246  -0.41953
 Alpha  occ. eigenvalues --   -0.41905  -0.41715  -0.41506  -0.41236  -0.41115
 Alpha  occ. eigenvalues --   -0.40745  -0.40517  -0.40129  -0.39903  -0.39484
 Alpha  occ. eigenvalues --   -0.39266  -0.39192  -0.38617  -0.38429  -0.38097
 Alpha  occ. eigenvalues --   -0.37783  -0.36969  -0.36517  -0.36156  -0.35941
 Alpha  occ. eigenvalues --   -0.35299  -0.34762  -0.34619  -0.32524  -0.31657
 Alpha  occ. eigenvalues --   -0.31015  -0.29522  -0.27906  -0.26192  -0.23494
 Alpha  occ. eigenvalues --   -0.19583
 Alpha virt. eigenvalues --   -0.05667  -0.01177   0.02807   0.05831   0.08060
 Alpha virt. eigenvalues --    0.09582   0.10489   0.11572   0.11880   0.12240
 Alpha virt. eigenvalues --    0.12507   0.12846   0.12971   0.13228   0.13408

 Mulliken charges:
               1
     1  O   -0.548233
     2  O   -0.577250
     3  C   -0.037997
     4  C   -0.049653
     5  C   -0.225284
     6  C   -0.195077
     7  C    0.207080
     8  C    0.145301
     9  C    0.075039
    10  C    0.074537
    11  C   -0.213526
    12  C   -0.184252
    13  C   -0.003988
    14  C    0.017661
    15  C   -0.332230
    16  C   -0.302504
    17  C   -0.284681
    18  C   -0.295880
    19  C   -0.115159
    20  C   -0.144983
    21  C   -0.348995
    22  C   -0.366568
    23  C   -0.055525
    24  C   -0.054734
    25  C    0.027417
    26  C    0.108722
    27  C   -0.356748
    28  C   -0.344685
    29  C   -0.098912
    30  C   -0.082510
    31  C   -0.095820
    32  C   -0.100170
    33  C   -0.124343
    34  C   -0.116474
    35  C    0.083241
    36  C    0.052491
    37  C   -0.362545
    38  C   -0.351883
    39  C   -0.092438
    40  C   -0.040943
    41  C   -0.109723
    42  C   -0.065090
    43  H    0.103104
    44  H    0.052785
    45  H    0.092016
    46  H    0.107622
    47  H    0.096211
    48  H    0.103640
    49  H    0.130870
    50  H    0.085166
    51  H    0.119124
    52  H    0.103996
    53  H    0.091025
    54  H    0.113433
    55  H    0.106214
    56  H    0.103053
    57  H    0.113121
    58  H    0.105967
    59  H    0.101668
    60  H    0.108946
    61  H    0.095268
    62  H    0.100266
    63  H    0.077644
    64  H    0.113643
    65  H    0.085258
    66  H    0.091562
    67  H    0.122460
    68  H    0.122511
    69  H    0.118746
    70  H    0.110629
    71  H    0.106297
    72  H    0.102976
    73  H    0.297391
    74  H    0.288304
    75  H    0.066350
    76  H    0.061445
    77  H    0.086011
    78  H    0.124855
    79  H    0.136967
    80  H    0.095634
    81  H    0.105435
    82  H    0.114956
    83  H    0.083668
    84  H    0.053335
    85  H    0.089599
    86  H    0.085254
    87  H    0.077285
    88  H    0.086300
    89  H    0.135045
    90  H    0.098047
    91  H    0.126716
    92  H    0.122963
    93  H    0.131688
    94  H    0.110362
    95  H    0.057760
    96  H    0.033434
    97  H    0.061088
    98  H    0.072202
 Sum of Mulliken charges =  -0.00000

 Dipole moment (field-independent basis, Debye):
    X=             -1.8025    Y=             -1.6457    Z=              1.2462  Tot=              2.7404
 Quadrupole moment (field-independent basis, Debye-Ang):
   XX=           -300.9604   YY=           -246.3472   ZZ=           -258.1647
   XY=             18.0310   XZ=             -7.5844   YZ=              1.2748

 Normal termination of Gaussian 16 at Mon Jul 15 12:14:13 2019.
