 Gaussian 16, Revision A.03,
 Gaussian 16:  ES64L-G16RevA.03 25-Dec-2016

 -------------------------------------
 # td=(NStates=1) CAM-B3LYP/6-31G(d,p)
 -------------------------------------

 --
 TD
 --
 Symbolic Z-matrix:
 Charge =  0 Multiplicity = 1

                         Standard orientation:
 ---------------------------------------------------------------------
 Center     Atomic      Atomic             Coordinates (Angstroms)
 Number     Number       Type             X           Y           Z
 ---------------------------------------------------------------------
      1          8           0       14.562973   -2.397266   -0.280247
      2          8           0      -14.675846    2.072210    0.897726
      3          6           0       11.123048   -1.343597    1.038910
      4          6           0      -12.353350   -0.918327    0.707876
      5          6           0       12.715894   -1.718141    1.206887
      6          6           0      -13.700626   -0.215288    0.792205
      7          6           0       13.250384   -1.967662   -0.283231
      8          6           0      -13.494844    1.325787    0.894185
      9          6           0       11.037748   -0.166032    0.057704
     10          6           0      -11.246004   -0.183252   -0.158319
     11          6           0       13.197622   -0.550174   -0.924566
     12          6           0      -12.667040    1.845951   -0.187516
     13          6           0       11.952697    0.189834   -0.763065
     14          6           0      -11.337924    1.120486   -0.610840
     15          6           0       10.758004   -0.869239    2.420641
     16          6           0       10.334424   -2.586917    0.716046
     17          6           0      -11.695353   -1.137894    2.163117
     18          6           0      -12.541287   -2.361752    0.128240
     19          6           0        9.699784    0.433447    0.179351
     20          6           0      -10.015791   -0.999831   -0.299786
     21          6           0       11.720269    1.351573   -1.781234
     22          6           0      -10.501334    1.857975   -1.485949
     23          6           0        9.310394    1.686538    0.104246
     24          6           0       -8.747065   -0.498902   -0.208553
     25          6           0        7.987143    2.329212    0.121017
     26          6           0       -7.560387   -1.349053   -0.488136
     27          6           0        7.970926    3.694861    0.432525
     28          6           0       -7.765125   -2.712116   -0.877049
     29          6           0        6.859251    1.637307   -0.116453
     30          6           0       -6.306291   -0.707314   -0.443987
     31          6           0        5.480584    2.089559    0.137531
     32          6           0       -5.038358   -1.222549   -0.862632
     33          6           0        4.388693    1.288009   -0.216803
     34          6           0       -3.921133   -0.538196   -0.576084
     35          6           0        3.087555    1.612363    0.147013
     36          6           0       -2.619100   -0.913130   -0.643775
     37          6           0        2.747540    3.015990    0.477019
     38          6           0       -2.385919   -2.326649   -1.185376
     39          6           0        2.129297    0.623582   -0.203822
     40          6           0       -1.568967   -0.033100   -0.289293
     41          6           0        0.715237    0.794321   -0.107662
     42          6           0       -0.226356   -0.197848   -0.541142
     43          1           0       13.302354   -0.912473    1.783821
     44          1           0       12.664978   -2.584898    1.778216
     45          1           0      -14.145070   -0.710637    1.714633
     46          1           0      -14.197573   -0.439298   -0.123093
     47          1           0       12.508668   -2.774541   -0.855706
     48          1           0      -13.018054    1.483461    1.767194
     49          1           0       14.123978    0.044974   -0.665299
     50          1           0       13.393819   -0.820455   -2.045521
     51          1           0      -13.210281    1.952638   -1.002590
     52          1           0      -12.306080    2.895180   -0.099764
     53          1           0       10.919792   -1.527922    3.146731
     54          1           0        9.741627   -0.580233    2.726371
     55          1           0       11.435107    0.035998    2.782138
     56          1           0       10.593576   -3.408904   -0.132109
     57          1           0       10.402880   -3.285775    1.614565
     58          1           0        9.247756   -2.357467    0.626696
     59          1           0      -11.457925   -0.322384    2.581378
     60          1           0      -10.729986   -1.726802    2.138352
     61          1           0      -12.419283   -1.645891    2.778214
     62          1           0      -13.229039   -2.760359    0.711040
     63          1           0      -11.732984   -2.941554    0.218671
     64          1           0      -12.981681   -2.366232   -0.813953
     65          1           0        8.873816   -0.197304    0.645308
     66          1           0      -10.138392   -2.114924   -0.594296
     67          1           0       10.581840    1.190564   -2.228049
     68          1           0       11.703980    2.515328   -1.415538
     69          1           0       12.415292    1.160274   -2.485160
     70          1           0      -11.195180    2.181512   -2.351416
     71          1           0       -9.815126    1.225889   -1.974821
     72          1           0      -10.221212    2.621179   -0.844187
     73          1           0       14.685066   -3.308331    0.012571
     74          1           0      -15.154510    1.804857    1.652913
     75          1           0       10.152678    2.343784   -0.329948
     76          1           0       -8.648367    0.489843    0.133842
     77          1           0        8.860618    4.330130    0.602359
     78          1           0        7.430100    4.392049   -0.245176
     79          1           0        7.495303    4.036174    1.391688
     80          1           0       -8.312375   -3.358439   -0.279673
     81          1           0       -8.101997   -2.629499   -2.057263
     82          1           0       -6.784023   -3.377791   -1.005182
     83          1           0        6.882587    0.553084   -0.527924
     84          1           0       -6.441041    0.268134   -0.223450
     85          1           0        5.341087    2.960217    0.569196
     86          1           0       -5.020380   -2.223076   -1.201309
     87          1           0        4.541981    0.327576   -0.636901
     88          1           0       -4.045823    0.457946   -0.085240
     89          1           0        3.463448    3.226112    1.435568
     90          1           0        1.623629    3.265464    0.914717
     91          1           0        3.067449    3.885670   -0.328599
     92          1           0       -2.331854   -2.892354   -0.209461
     93          1           0       -3.247283   -2.807131   -1.981086
     94          1           0       -1.226722   -2.465713   -1.695082
     95          1           0        2.456051   -0.292573   -0.407658
     96          1           0       -1.964848    0.760478    0.251324
     97          1           0        0.356808    1.812487    0.194912
     98          1           0        0.068369   -1.066593   -1.082232
 ---------------------------------------------------------------------

 SCF Done:  E(RCAM-B3LYP) =  -1706.94857430     A.U. after   15 cycles

 Excitation energies and oscillator strengths:

 Excited State   1:      Singlet-A      2.0655 eV  600.25 nm  f=3.5527  <S**2>=0.000
     155 ->158        -0.13154
     156 ->157         0.69805
     156 <-157        -0.10286
 This state for optimization and/or second-order correction.
 Total Energy, E(TD-HF/TD-DFT) =  -1706.87266704
 Copying the excited state density for this state as the 1-particle RhoCI density.

 The electronic state is 1-A.
 Alpha  occ. eigenvalues --  -19.21254 -19.20769 -10.32071 -10.29174 -10.29071
 Alpha  occ. eigenvalues --  -10.28909 -10.27507 -10.27467 -10.27210 -10.27107
 Alpha  occ. eigenvalues --  -10.27078 -10.26942 -10.26697 -10.26560 -10.26363
 Alpha  occ. eigenvalues --  -10.26291 -10.26268 -10.26185 -10.25959 -10.25954
 Alpha  occ. eigenvalues --  -10.25865 -10.25618 -10.25612 -10.25560 -10.25558
 Alpha  occ. eigenvalues --  -10.25508 -10.25477 -10.25399 -10.25252 -10.25201
 Alpha  occ. eigenvalues --  -10.25197 -10.25016 -10.24914 -10.24870 -10.24865
 Alpha  occ. eigenvalues --  -10.24819 -10.24692 -10.24443 -10.23625 -10.23581
 Alpha  occ. eigenvalues --  -10.23103 -10.21752  -1.10955  -1.10313  -0.93601
 Alpha  occ. eigenvalues --   -0.92827  -0.92359  -0.91848  -0.90478  -0.90026
 Alpha  occ. eigenvalues --   -0.87907  -0.87181  -0.87058  -0.85021  -0.84465
 Alpha  occ. eigenvalues --   -0.83260  -0.81626  -0.80425  -0.79496  -0.77964
 Alpha  occ. eigenvalues --   -0.77570  -0.76681  -0.76145  -0.75933  -0.75737
 Alpha  occ. eigenvalues --   -0.75257  -0.74927  -0.74200  -0.73336  -0.70973
 Alpha  occ. eigenvalues --   -0.68783  -0.67859  -0.66274  -0.65145  -0.64468
 Alpha  occ. eigenvalues --   -0.63674  -0.62689  -0.62088  -0.60594  -0.60383
 Alpha  occ. eigenvalues --   -0.59934  -0.59004  -0.58219  -0.57929  -0.56078
 Alpha  occ. eigenvalues --   -0.55758  -0.55473  -0.54597  -0.54401  -0.54114
 Alpha  occ. eigenvalues --   -0.53568  -0.52906  -0.52380  -0.52021  -0.51105
 Alpha  occ. eigenvalues --   -0.50573  -0.50355  -0.50138  -0.49610  -0.49082
 Alpha  occ. eigenvalues --   -0.48847  -0.48616  -0.48091  -0.47774  -0.47619
 Alpha  occ. eigenvalues --   -0.47443  -0.47007  -0.46926  -0.46645  -0.46303
 Alpha  occ. eigenvalues --   -0.46158  -0.46069  -0.45526  -0.45127  -0.44759
 Alpha  occ. eigenvalues --   -0.44310  -0.44147  -0.44052  -0.43756  -0.43463
 Alpha  occ. eigenvalues --   -0.43084  -0.42881  -0.42686  -0.41973  -0.41844
 Alpha  occ. eigenvalues --   -0.41615  -0.41434  -0.40837  -0.40743  -0.40662
 Alpha  occ. eigenvalues --   -0.40215  -0.40111  -0.39760  -0.39491  -0.39304
 Alpha  occ. eigenvalues --   -0.38937  -0.38727  -0.38558  -0.38438  -0.38008
 Alpha  occ. eigenvalues --   -0.37590  -0.37086  -0.36614  -0.35807  -0.35714
 Alpha  occ. eigenvalues --   -0.35059  -0.34462  -0.33954  -0.32271  -0.31940
 Alpha  occ. eigenvalues --   -0.30560  -0.29600  -0.27989  -0.25859  -0.23424
 Alpha  occ. eigenvalues --   -0.18657
 Alpha virt. eigenvalues --   -0.06108  -0.00133   0.02962   0.05881   0.08280
 Alpha virt. eigenvalues --    0.10027   0.11533   0.11726   0.12339   0.12518
 Alpha virt. eigenvalues --    0.13139   0.13361   0.13642   0.13732   0.13891

 Mulliken charges:
               1
     1  O   -0.553241
     2  O   -0.549047
     3  C   -0.035418
     4  C   -0.038536
     5  C   -0.191146
     6  C   -0.204447
     7  C    0.181709
     8  C    0.179206
     9  C    0.127708
    10  C    0.057892
    11  C   -0.242333
    12  C   -0.216780
    13  C    0.056316
    14  C    0.019972
    15  C   -0.299706
    16  C   -0.302969
    17  C   -0.302580
    18  C   -0.294010
    19  C   -0.115760
    20  C   -0.150018
    21  C   -0.347081
    22  C   -0.348183
    23  C   -0.111927
    24  C   -0.102020
    25  C    0.146997
    26  C    0.110807
    27  C   -0.418654
    28  C   -0.381132
    29  C   -0.144396
    30  C   -0.114226
    31  C   -0.074712
    32  C   -0.079304
    33  C   -0.095209
    34  C   -0.099147
    35  C    0.120828
    36  C    0.109223
    37  C   -0.360632
    38  C   -0.359110
    39  C   -0.105476
    40  C   -0.104405
    41  C   -0.099731
    42  C   -0.081793
    43  H    0.097151
    44  H    0.080650
    45  H    0.080749
    46  H    0.105666
    47  H    0.056334
    48  H    0.082126
    49  H    0.122540
    50  H    0.096986
    51  H    0.125436
    52  H    0.089631
    53  H    0.106840
    54  H    0.099289
    55  H    0.086349
    56  H    0.088877
    57  H    0.095105
    58  H    0.108847
    59  H    0.111839
    60  H    0.101353
    61  H    0.088890
    62  H    0.099332
    63  H    0.105427
    64  H    0.103757
    65  H    0.073675
    66  H    0.087537
    67  H    0.108383
    68  H    0.104695
    69  H    0.107480
    70  H    0.103033
    71  H    0.130943
    72  H    0.129018
    73  H    0.309562
    74  H    0.299663
    75  H    0.063499
    76  H    0.086742
    77  H    0.116229
    78  H    0.118015
    79  H    0.114986
    80  H    0.131541
    81  H    0.108466
    82  H    0.089729
    83  H    0.076242
    84  H    0.068725
    85  H    0.069899
    86  H    0.078158
    87  H    0.082673
    88  H    0.071652
    89  H    0.100032
    90  H    0.096473
    91  H    0.117033
    92  H    0.136198
    93  H    0.098955
    94  H    0.078128
    95  H    0.075449
    96  H    0.076946
    97  H    0.084177
    98  H    0.085360
 Sum of Mulliken charges =  -0.00000

 Dipole moment (field-independent basis, Debye):
    X=             -1.0323    Y=             -2.0868    Z=              1.6758  Tot=              2.8686
 Quadrupole moment (field-independent basis, Debye-Ang):
   XX=           -266.1616   YY=           -240.1113   ZZ=           -259.1820
   XY=              2.1270   XZ=             -7.1208   YZ=              3.7017

 Normal termination of Gaussian 16 at Sat Jul 20 01:54:43 2019.
