 Gaussian 16, Revision A.03,
 Gaussian 16:  ES64L-G16RevA.03 25-Dec-2016

 -------------------------------------
 # td=(NStates=1) CAM-B3LYP/6-31G(d,p)
 -------------------------------------

 --
 TD
 --
 Symbolic Z-matrix:
 Charge =  0 Multiplicity = 1

                         Standard orientation:
 ---------------------------------------------------------------------
 Center     Atomic      Atomic             Coordinates (Angstroms)
 Number     Number       Type             X           Y           Z
 ---------------------------------------------------------------------
      1          8           0       14.642501   -2.330973   -0.355389
      2          8           0      -14.708584    1.966117    0.889595
      3          6           0       11.211650   -1.335775    0.966707
      4          6           0      -12.381620   -1.009173    0.578991
      5          6           0       12.700746   -1.816923    1.109893
      6          6           0      -13.682049   -0.126360    0.672718
      7          6           0       13.304094   -1.981014   -0.365918
      8          6           0      -13.512898    1.365211    0.829815
      9          6           0       11.003753   -0.286937   -0.077564
     10          6           0      -11.404574   -0.343069   -0.241409
     11          6           0       13.209896   -0.635192   -1.102612
     12          6           0      -12.713052    1.878497   -0.399862
     13          6           0       11.843257    0.075495   -1.021296
     14          6           0      -11.560125    0.889183   -0.756829
     15          6           0       10.927355   -0.813747    2.429534
     16          6           0       10.350932   -2.487289    0.752050
     17          6           0      -11.854497   -1.135405    2.117233
     18          6           0      -12.765991   -2.325768    0.070373
     19          6           0        9.684931    0.395043    0.158655
     20          6           0      -10.130904   -1.068508   -0.486587
     21          6           0       11.670892    1.133906   -2.021553
     22          6           0      -10.406769    1.646064   -1.588184
     23          6           0        9.371967    1.661132    0.047388
     24          6           0       -8.837499   -0.605897   -0.344645
     25          6           0        8.052468    2.279793    0.210551
     26          6           0       -7.538988   -1.297268   -0.570093
     27          6           0        7.991190    3.826284    0.328113
     28          6           0       -7.582085   -2.680621   -1.056332
     29          6           0        6.911062    1.459891    0.073881
     30          6           0       -6.379014   -0.711053   -0.219087
     31          6           0        5.616367    1.999009    0.247467
     32          6           0       -5.029732   -1.149234   -0.417188
     33          6           0        4.388337    1.285541   -0.086383
     34          6           0       -3.938553   -0.375486   -0.171436
     35          6           0        3.039641    1.677866    0.123115
     36          6           0       -2.704444   -0.754252   -0.417165
     37          6           0        2.932608    3.119542    0.615475
     38          6           0       -2.384741   -2.242038   -0.845340
     39          6           0        2.026212    0.775551   -0.171816
     40          6           0       -1.558354    0.069704   -0.076686
     41          6           0        0.675313    0.915328   -0.004775
     42          6           0       -0.152245   -0.033290   -0.252833
     43          1           0       13.192961   -1.108887    1.667605
     44          1           0       12.746463   -2.859791    1.520904
     45          1           0      -14.206404   -0.501735    1.393616
     46          1           0      -14.363253   -0.262818   -0.228210
     47          1           0       12.743557   -2.780049   -0.611055
     48          1           0      -12.905490    1.630018    1.766790
     49          1           0       14.093232    0.065845   -0.655215
     50          1           0       13.345500   -0.729170   -2.309447
     51          1           0      -13.295615    1.950654   -1.352168
     52          1           0      -12.300118    2.777317   -0.292984
     53          1           0       11.081657   -1.580931    3.172867
     54          1           0        9.926223   -0.480672    2.595938
     55          1           0       11.831268   -0.071030    2.598350
     56          1           0       10.485059   -2.754807   -0.337716
     57          1           0       10.518443   -3.393413    1.325610
     58          1           0        9.157324   -2.132706    0.843568
     59          1           0      -11.879871   -0.085271    2.554993
     60          1           0      -10.719563   -1.456517    2.153592
     61          1           0      -12.368388   -1.851560    2.715187
     62          1           0      -13.674904   -2.667632    0.482094
     63          1           0      -12.013522   -3.054769    0.122292
     64          1           0      -12.975306   -2.252743   -1.050923
     65          1           0        8.931915   -0.241456    0.473900
     66          1           0      -10.246764   -2.050931   -0.806098
     67          1           0       10.571196    1.137472   -2.424922
     68          1           0       12.018614    2.086250   -1.467891
     69          1           0       12.362014    0.780755   -2.902667
     70          1           0      -10.956266    2.445094   -2.448328
     71          1           0       -9.532212    1.110507   -2.035196
     72          1           0       -9.944764    2.381760   -0.758722
     73          1           0       14.723155   -3.013298    0.524623
     74          1           0      -15.209980    1.562795    1.490951
     75          1           0       10.269358    2.296069   -0.116209
     76          1           0       -8.709132    0.428516    0.189243
     77          1           0        9.088096    4.474013    0.154238
     78          1           0        7.346369    4.428098   -0.344205
     79          1           0        7.804889    4.186184    1.299619
     80          1           0       -7.985694   -3.310673   -0.218411
     81          1           0       -8.166203   -2.758979   -2.089382
     82          1           0       -6.640115   -3.012553   -1.359889
     83          1           0        6.958401    0.435077   -0.166150
     84          1           0       -6.385450    0.206779    0.144382
     85          1           0        5.483225    2.918728    0.411289
     86          1           0       -4.912165   -2.106490   -0.917551
     87          1           0        4.790357    0.201935   -0.212329
     88          1           0       -4.105744    0.614617    0.195943
     89          1           0        3.370166    2.988355    1.602038
     90          1           0        1.786581    3.336762    0.877359
     91          1           0        3.274894    3.922800   -0.054817
     92          1           0       -2.834779   -2.908064   -0.132587
     93          1           0       -2.952629   -2.317711   -1.666947
     94          1           0       -1.330112   -2.599444   -0.931665
     95          1           0        2.305449   -0.317903   -0.556665
     96          1           0       -2.059076    1.049889    0.103093
     97          1           0        0.273136    1.870651    0.511165
     98          1           0        0.355457   -1.138543   -0.534765
 ---------------------------------------------------------------------

 SCF Done:  E(RCAM-B3LYP) =  -1706.94891508     A.U. after   15 cycles

 Excitation energies and oscillator strengths:

 Excited State   1:      Singlet-A      2.2113 eV  560.68 nm  f=3.8364  <S**2>=0.000
     155 ->158        -0.15277
     156 ->157         0.69108
 This state for optimization and/or second-order correction.
 Total Energy, E(TD-HF/TD-DFT) =  -1706.86765130
 Copying the excited state density for this state as the 1-particle RhoCI density.

 The electronic state is 1-A.
 Alpha  occ. eigenvalues --  -19.21939 -19.20750 -10.30729 -10.29434 -10.28561
 Alpha  occ. eigenvalues --  -10.28052 -10.27977 -10.27602 -10.27399 -10.27345
 Alpha  occ. eigenvalues --  -10.27319 -10.27202 -10.27156 -10.27072 -10.27029
 Alpha  occ. eigenvalues --  -10.27013 -10.27006 -10.26869 -10.26836 -10.26810
 Alpha  occ. eigenvalues --  -10.26798 -10.26241 -10.26155 -10.26009 -10.25835
 Alpha  occ. eigenvalues --  -10.25822 -10.25820 -10.25809 -10.25612 -10.25375
 Alpha  occ. eigenvalues --  -10.25326 -10.25232 -10.25094 -10.24982 -10.24968
 Alpha  occ. eigenvalues --  -10.24741 -10.24695 -10.24641 -10.24499 -10.24469
 Alpha  occ. eigenvalues --  -10.23926 -10.23787  -1.14189  -1.08602  -0.94105
 Alpha  occ. eigenvalues --   -0.93862  -0.92953  -0.91970  -0.90542  -0.89989
 Alpha  occ. eigenvalues --   -0.88188  -0.87513  -0.86169  -0.85246  -0.84756
 Alpha  occ. eigenvalues --   -0.82682  -0.81535  -0.79621  -0.79312  -0.78530
 Alpha  occ. eigenvalues --   -0.77218  -0.76674  -0.76406  -0.75840  -0.75426
 Alpha  occ. eigenvalues --   -0.75224  -0.74791  -0.74439  -0.73810  -0.71148
 Alpha  occ. eigenvalues --   -0.69116  -0.68171  -0.66625  -0.65420  -0.64688
 Alpha  occ. eigenvalues --   -0.64239  -0.63635  -0.61635  -0.61282  -0.60414
 Alpha  occ. eigenvalues --   -0.59835  -0.59221  -0.58521  -0.57927  -0.56129
 Alpha  occ. eigenvalues --   -0.55749  -0.55478  -0.54761  -0.53962  -0.53528
 Alpha  occ. eigenvalues --   -0.53229  -0.52216  -0.51833  -0.51245  -0.51016
 Alpha  occ. eigenvalues --   -0.50778  -0.50570  -0.49995  -0.49719  -0.49478
 Alpha  occ. eigenvalues --   -0.49434  -0.49139  -0.49040  -0.48250  -0.48178
 Alpha  occ. eigenvalues --   -0.47837  -0.47815  -0.47595  -0.47052  -0.46759
 Alpha  occ. eigenvalues --   -0.46050  -0.45868  -0.45393  -0.45058  -0.44984
 Alpha  occ. eigenvalues --   -0.44501  -0.44411  -0.44174  -0.43560  -0.43056
 Alpha  occ. eigenvalues --   -0.42669  -0.42325  -0.42057  -0.42003  -0.41902
 Alpha  occ. eigenvalues --   -0.41745  -0.41673  -0.41553  -0.41233  -0.40648
 Alpha  occ. eigenvalues --   -0.40468  -0.40287  -0.39811  -0.39524  -0.39391
 Alpha  occ. eigenvalues --   -0.39280  -0.39100  -0.38545  -0.38322  -0.38064
 Alpha  occ. eigenvalues --   -0.37520  -0.37264  -0.36520  -0.36223  -0.35575
 Alpha  occ. eigenvalues --   -0.35502  -0.35338  -0.34588  -0.32346  -0.32193
 Alpha  occ. eigenvalues --   -0.30530  -0.30311  -0.28475  -0.26854  -0.23593
 Alpha  occ. eigenvalues --   -0.19434
 Alpha virt. eigenvalues --   -0.05997  -0.01127   0.03293   0.05978   0.08303
 Alpha virt. eigenvalues --    0.09119   0.09824   0.10533   0.11672   0.12198
 Alpha virt. eigenvalues --    0.12727   0.13168   0.13314   0.13480   0.13728

 Mulliken charges:
               1
     1  O   -0.558503
     2  O   -0.510447
     3  C   -0.037629
     4  C   -0.009972
     5  C   -0.225580
     6  C   -0.204808
     7  C    0.208589
     8  C    0.177738
     9  C    0.105100
    10  C    0.093756
    11  C   -0.207548
    12  C   -0.205822
    13  C    0.029969
    14  C    0.022391
    15  C   -0.289042
    16  C   -0.283216
    17  C   -0.317511
    18  C   -0.312475
    19  C   -0.094825
    20  C   -0.137021
    21  C   -0.345626
    22  C   -0.335661
    23  C   -0.105118
    24  C   -0.107032
    25  C    0.077949
    26  C    0.105530
    27  C   -0.377181
    28  C   -0.368222
    29  C   -0.108027
    30  C   -0.096866
    31  C   -0.066470
    32  C   -0.103023
    33  C   -0.120472
    34  C   -0.086588
    35  C    0.072725
    36  C    0.084572
    37  C   -0.366703
    38  C   -0.366755
    39  C   -0.123073
    40  C   -0.155670
    41  C   -0.026744
    42  C   -0.079983
    43  H    0.101801
    44  H    0.073083
    45  H    0.081625
    46  H    0.092622
    47  H    0.084433
    48  H    0.057493
    49  H    0.106666
    50  H    0.081636
    51  H    0.113788
    52  H    0.116008
    53  H    0.100262
    54  H    0.106734
    55  H    0.083307
    56  H    0.098999
    57  H    0.105947
    58  H    0.068987
    59  H    0.098024
    60  H    0.094821
    61  H    0.107217
    62  H    0.104517
    63  H    0.109090
    64  H    0.094770
    65  H    0.069169
    66  H    0.085490
    67  H    0.124352
    68  H    0.123614
    69  H    0.091117
    70  H    0.062235
    71  H    0.130990
    72  H    0.096413
    73  H    0.297417
    74  H    0.289975
    75  H    0.072931
    76  H    0.078230
    77  H    0.074764
    78  H    0.127946
    79  H    0.137836
    80  H    0.126214
    81  H    0.101053
    82  H    0.113748
    83  H    0.090469
    84  H    0.060147
    85  H    0.059417
    86  H    0.076999
    87  H    0.064938
    88  H    0.087006
    89  H    0.142233
    90  H    0.086364
    91  H    0.137435
    92  H    0.121696
    93  H    0.128936
    94  H    0.107251
    95  H    0.078946
    96  H    0.066729
    97  H    0.089010
    98  H    0.072395
 Sum of Mulliken charges =  -0.00000

 Dipole moment (field-independent basis, Debye):
    X=             -1.1612    Y=             -1.4009    Z=              2.3483  Tot=              2.9708
 Quadrupole moment (field-independent basis, Debye-Ang):
   XX=           -271.4827   YY=           -244.9061   ZZ=           -262.2640
   XY=             16.7288   XZ=              3.5663   YZ=             -0.0820

 Normal termination of Gaussian 16 at Sat Jul 13 11:02:48 2019.
