 Gaussian 16, Revision A.03,
 Gaussian 16:  ES64L-G16RevA.03 25-Dec-2016

 -------------------------------------
 # td=(NStates=1) CAM-B3LYP/6-31G(d,p)
 -------------------------------------

 --
 TD
 --
 Symbolic Z-matrix:
 Charge =  0 Multiplicity = 1

                         Standard orientation:
 ---------------------------------------------------------------------
 Center     Atomic      Atomic             Coordinates (Angstroms)
 Number     Number       Type             X           Y           Z
 ---------------------------------------------------------------------
      1          8           0       14.858678   -2.058259   -0.163400
      2          8           0      -14.747716    1.952284    1.234525
      3          6           0       11.228132   -1.460860    1.113775
      4          6           0      -12.337372   -1.074948    0.624333
      5          6           0       12.720621   -1.765612    1.140605
      6          6           0      -13.647413   -0.354416    0.896561
      7          6           0       13.428444   -1.788313   -0.260021
      8          6           0      -13.506992    1.217112    1.123793
      9          6           0       10.886122   -0.289838    0.093747
     10          6           0      -11.296004   -0.241957   -0.119992
     11          6           0       13.326015   -0.408935   -0.941713
     12          6           0      -12.770158    1.753569   -0.034499
     13          6           0       11.866935    0.058848   -0.843031
     14          6           0      -11.602187    1.031466   -0.445609
     15          6           0       10.880850   -0.948288    2.571949
     16          6           0       10.415746   -2.724984    0.692947
     17          6           0      -11.760588   -1.463417    2.000724
     18          6           0      -12.790763   -2.426779   -0.026212
     19          6           0        9.572853    0.274806    0.186575
     20          6           0      -10.090600   -0.942910   -0.593370
     21          6           0       11.493641    0.982015   -2.007556
     22          6           0      -10.675203    1.893289   -1.327001
     23          6           0        9.390005    1.572988    0.082883
     24          6           0       -8.804578   -0.475115   -0.456409
     25          6           0        8.111178    2.198676    0.230485
     26          6           0       -7.615771   -1.152437   -0.634892
     27          6           0        8.005552    3.701475    0.513234
     28          6           0       -7.749323   -2.550597   -1.267766
     29          6           0        6.918465    1.433869    0.009400
     30          6           0       -6.376243   -0.453224   -0.517207
     31          6           0        5.583293    1.996084    0.105905
     32          6           0       -5.054472   -0.994387   -0.730893
     33          6           0        4.446544    1.193971   -0.058807
     34          6           0       -3.885708   -0.285566   -0.506414
     35          6           0        3.113876    1.673969    0.030888
     36          6           0       -2.580565   -0.808150   -0.599688
     37          6           0        2.859647    3.110883    0.328366
     38          6           0       -2.314311   -2.221608   -1.047520
     39          6           0        2.060682    0.770046   -0.292946
     40          6           0       -1.613221    0.185447   -0.328492
     41          6           0        0.688904    0.941156   -0.272112
     42          6           0       -0.224296   -0.020697   -0.499489
     43          1           0       13.308097   -0.998405    1.928781
     44          1           0       12.974870   -2.739937    1.674546
     45          1           0      -14.428596   -0.962075    1.565550
     46          1           0      -14.052966   -0.083087   -0.053555
     47          1           0       12.890058   -2.332808   -0.960018
     48          1           0      -12.675771    1.380925    1.969501
     49          1           0       13.973479    0.243914   -0.206945
     50          1           0       13.570711   -0.457554   -1.978185
     51          1           0      -13.454267    1.637609   -0.910693
     52          1           0      -12.582824    2.887680    0.025403
     53          1           0       10.862396   -1.772338    3.228679
     54          1           0        9.757055   -0.764463    2.758171
     55          1           0       11.552634   -0.321337    2.909164
     56          1           0       10.709148   -3.014775   -0.308414
     57          1           0       10.511312   -3.496596    1.414078
     58          1           0        9.367125   -2.647919    0.569532
     59          1           0      -11.604305   -0.637228    2.716742
     60          1           0      -10.843063   -1.969025    1.932685
     61          1           0      -12.440276   -2.208123    2.572256
     62          1           0      -13.490606   -2.898785    0.909892
     63          1           0      -11.922575   -3.051216   -0.217953
     64          1           0      -13.354565   -2.148933   -0.942360
     65          1           0        8.968177   -0.280146    0.629334
     66          1           0      -10.235258   -1.939027   -0.725028
     67          1           0       10.546769    1.093222   -2.268846
     68          1           0       11.904215    2.114521   -1.842072
     69          1           0       12.184877    0.873602   -2.820988
     70          1           0      -11.308100    2.633042   -2.019082
     71          1           0       -9.969920    1.161672   -1.885172
     72          1           0       -9.947531    2.398787   -0.570744
     73          1           0       15.249821   -2.914359    0.231615
     74          1           0      -14.974501    1.720283    2.121502
     75          1           0       10.094454    2.282675   -0.161710
     76          1           0       -8.600316    0.462516   -0.013103
     77          1           0        8.963380    4.241319    0.625488
     78          1           0        7.260921    4.281159   -0.308252
     79          1           0        7.588117    3.753464    1.648569
     80          1           0       -8.086892   -3.226734   -0.546581
     81          1           0       -8.527041   -2.513483   -2.047182
     82          1           0       -6.789730   -3.103798   -1.739672
     83          1           0        7.087747    0.463104   -0.109902
     84          1           0       -6.862532    0.540118   -0.011273
     85          1           0        5.680266    3.199651    0.211579
     86          1           0       -4.948514   -2.111211   -0.959104
     87          1           0        4.634438   -0.037737   -0.098363
     88          1           0       -3.933522    0.659607   -0.257060
     89          1           0        3.303364    3.430160    1.489782
     90          1           0        1.808257    3.561134    0.417794
     91          1           0        3.464268    3.703938   -0.439711
     92          1           0       -3.228393   -3.061933   -0.735253
     93          1           0       -2.385950   -2.294530   -2.305676
     94          1           0       -1.343709   -2.564857   -0.652597
     95          1           0        2.702591   -0.109354   -0.533289
     96          1           0       -2.009063    1.157313   -0.189197
     97          1           0        0.385559    1.890460   -0.019047
     98          1           0       -0.001415   -1.082091   -0.889803
 ---------------------------------------------------------------------

 SCF Done:  E(RCAM-B3LYP) =  -1706.91453160     A.U. after   15 cycles

 Excitation energies and oscillator strengths:

 Excited State   1:      Singlet-A      2.0641 eV  600.68 nm  f=3.8556  <S**2>=0.000
     155 ->158         0.16953
     156 ->157         0.68491
 This state for optimization and/or second-order correction.
 Total Energy, E(TD-HF/TD-DFT) =  -1706.83867851
 Copying the excited state density for this state as the 1-particle RhoCI density.

 The electronic state is 1-A.
 Alpha  occ. eigenvalues --  -19.22256 -19.21004 -10.31387 -10.30613 -10.29565
 Alpha  occ. eigenvalues --  -10.28527 -10.28182 -10.28130 -10.28047 -10.28030
 Alpha  occ. eigenvalues --  -10.27862 -10.27791 -10.27772 -10.27427 -10.27341
 Alpha  occ. eigenvalues --  -10.27168 -10.27091 -10.26937 -10.26913 -10.26865
 Alpha  occ. eigenvalues --  -10.26599 -10.26423 -10.26336 -10.26208 -10.25941
 Alpha  occ. eigenvalues --  -10.25922 -10.25882 -10.25863 -10.25613 -10.25561
 Alpha  occ. eigenvalues --  -10.25459 -10.25439 -10.25365 -10.25238 -10.25108
 Alpha  occ. eigenvalues --  -10.24983 -10.24974 -10.24432 -10.24288 -10.23964
 Alpha  occ. eigenvalues --  -10.23903 -10.23656  -1.10212  -1.06314  -0.94056
 Alpha  occ. eigenvalues --   -0.93115  -0.92448  -0.91328  -0.90719  -0.90139
 Alpha  occ. eigenvalues --   -0.87671  -0.87230  -0.86327  -0.85498  -0.84816
 Alpha  occ. eigenvalues --   -0.82829  -0.81464  -0.79931  -0.79024  -0.77791
 Alpha  occ. eigenvalues --   -0.77609  -0.76581  -0.75689  -0.75594  -0.75204
 Alpha  occ. eigenvalues --   -0.75080  -0.74960  -0.74226  -0.73331  -0.71078
 Alpha  occ. eigenvalues --   -0.69818  -0.67581  -0.66012  -0.65382  -0.63993
 Alpha  occ. eigenvalues --   -0.63305  -0.62630  -0.61766  -0.60435  -0.59307
 Alpha  occ. eigenvalues --   -0.59160  -0.58934  -0.58646  -0.57924  -0.56283
 Alpha  occ. eigenvalues --   -0.55888  -0.55488  -0.54944  -0.54540  -0.53920
 Alpha  occ. eigenvalues --   -0.53307  -0.52783  -0.52282  -0.51496  -0.51082
 Alpha  occ. eigenvalues --   -0.50467  -0.49995  -0.49487  -0.49047  -0.49006
 Alpha  occ. eigenvalues --   -0.48477  -0.48119  -0.48057  -0.47800  -0.47647
 Alpha  occ. eigenvalues --   -0.47270  -0.47032  -0.46831  -0.46317  -0.46041
 Alpha  occ. eigenvalues --   -0.45483  -0.45221  -0.44772  -0.44652  -0.44623
 Alpha  occ. eigenvalues --   -0.44456  -0.44359  -0.43588  -0.43318  -0.43140
 Alpha  occ. eigenvalues --   -0.42904  -0.42574  -0.42353  -0.42052  -0.41724
 Alpha  occ. eigenvalues --   -0.41395  -0.41314  -0.41206  -0.40651  -0.40496
 Alpha  occ. eigenvalues --   -0.40195  -0.40048  -0.39980  -0.39466  -0.39418
 Alpha  occ. eigenvalues --   -0.38874  -0.38666  -0.38491  -0.38382  -0.38213
 Alpha  occ. eigenvalues --   -0.38060  -0.37895  -0.37337  -0.36525  -0.36022
 Alpha  occ. eigenvalues --   -0.35637  -0.35125  -0.34209  -0.32472  -0.32333
 Alpha  occ. eigenvalues --   -0.31648  -0.29699  -0.27855  -0.25538  -0.22611
 Alpha  occ. eigenvalues --   -0.19104
 Alpha virt. eigenvalues --   -0.06205  -0.01726   0.01861   0.05643   0.08028
 Alpha virt. eigenvalues --    0.09152   0.10537   0.11356   0.11435   0.11665
 Alpha virt. eigenvalues --    0.12013   0.12289   0.13011   0.13188   0.13508

 Mulliken charges:
               1
     1  O   -0.597146
     2  O   -0.533785
     3  C   -0.009409
     4  C   -0.042808
     5  C   -0.190441
     6  C   -0.182417
     7  C    0.190251
     8  C    0.122937
     9  C    0.044759
    10  C    0.076011
    11  C   -0.204719
    12  C   -0.245602
    13  C    0.017736
    14  C    0.070706
    15  C   -0.308514
    16  C   -0.318102
    17  C   -0.288288
    18  C   -0.270683
    19  C   -0.062219
    20  C   -0.144757
    21  C   -0.355473
    22  C   -0.358104
    23  C   -0.067115
    24  C   -0.085630
    25  C    0.053077
    26  C    0.102777
    27  C   -0.373909
    28  C   -0.378719
    29  C   -0.081682
    30  C   -0.112160
    31  C   -0.090634
    32  C   -0.127386
    33  C   -0.145193
    34  C   -0.065078
    35  C    0.123150
    36  C    0.127097
    37  C   -0.364457
    38  C   -0.358186
    39  C   -0.101905
    40  C   -0.122402
    41  C   -0.083575
    42  C   -0.074986
    43  H    0.071560
    44  H    0.081133
    45  H    0.080676
    46  H    0.106375
    47  H    0.095170
    48  H    0.060257
    49  H    0.118621
    50  H    0.113682
    51  H    0.119791
    52  H    0.112041
    53  H    0.099009
    54  H    0.088317
    55  H    0.117307
    56  H    0.108673
    57  H    0.105738
    58  H    0.105616
    59  H    0.097672
    60  H    0.106128
    61  H    0.072699
    62  H    0.075470
    63  H    0.102395
    64  H    0.109239
    65  H    0.066415
    66  H    0.074235
    67  H    0.130121
    68  H    0.074264
    69  H    0.102369
    70  H    0.097343
    71  H    0.117368
    72  H    0.108851
    73  H    0.310750
    74  H    0.312097
    75  H    0.092491
    76  H    0.077649
    77  H    0.114323
    78  H    0.105184
    79  H    0.115236
    80  H    0.126988
    81  H    0.122539
    82  H    0.087827
    83  H    0.066302
    84  H    0.069652
    85  H    0.090399
    86  H    0.086295
    87  H    0.087850
    88  H    0.071184
    89  H    0.081308
    90  H    0.111626
    91  H    0.120923
    92  H    0.089992
    93  H    0.109280
    94  H    0.124640
    95  H    0.067118
    96  H    0.088742
    97  H    0.083359
    98  H    0.084692
 Sum of Mulliken charges =  -0.00000

 Dipole moment (field-independent basis, Debye):
    X=              2.0356    Y=             -1.6678    Z=              1.6310  Tot=              3.0960
 Quadrupole moment (field-independent basis, Debye-Ang):
   XX=           -286.2490   YY=           -243.1837   ZZ=           -260.1909
   XY=             -0.2650   XZ=             -5.7362   YZ=              1.2573

 Normal termination of Gaussian 16 at Mon Jul 15 07:50:02 2019.
