 Gaussian 16, Revision A.03,
 Gaussian 16:  ES64L-G16RevA.03 25-Dec-2016

 -------------------------------------
 # td=(NStates=1) CAM-B3LYP/6-31G(d,p)
 -------------------------------------

 --
 TD
 --
 Symbolic Z-matrix:
 Charge =  0 Multiplicity = 1

                         Standard orientation:
 ---------------------------------------------------------------------
 Center     Atomic      Atomic             Coordinates (Angstroms)
 Number     Number       Type             X           Y           Z
 ---------------------------------------------------------------------
      1          8           0       14.781092   -2.285813   -0.083417
      2          8           0      -14.956354    1.594283    0.940233
      3          6           0       11.177024   -1.527749    1.008830
      4          6           0      -12.364483   -1.095265    0.525663
      5          6           0       12.704081   -1.978799    0.983787
      6          6           0      -13.655282   -0.440823    0.531441
      7          6           0       13.396947   -1.987744   -0.286946
      8          6           0      -13.603574    1.040352    0.961721
      9          6           0       10.952974   -0.315879    0.089019
     10          6           0      -11.313375   -0.267599   -0.131861
     11          6           0       13.325906   -0.609087   -0.863303
     12          6           0      -12.752184    1.756134    0.046788
     13          6           0       11.928275    0.164822   -0.781497
     14          6           0      -11.564878    1.024479   -0.418038
     15          6           0       10.728236   -1.224935    2.387557
     16          6           0       10.463011   -2.733014    0.378925
     17          6           0      -11.860787   -1.475514    1.905758
     18          6           0      -12.560839   -2.407126   -0.228585
     19          6           0        9.586724    0.249880    0.071851
     20          6           0      -10.015651   -0.943539   -0.408866
     21          6           0       11.819563    1.289740   -1.771577
     22          6           0      -10.586101    1.794515   -1.230638
     23          6           0        9.453561    1.639209    0.138651
     24          6           0       -8.818358   -0.371282   -0.250926
     25          6           0        8.063599    2.268420    0.258009
     26          6           0       -7.510246   -1.072359   -0.518232
     27          6           0        8.042987    3.709509    0.584561
     28          6           0       -7.587260   -2.457725   -1.025284
     29          6           0        6.920839    1.571939    0.080571
     30          6           0       -6.357313   -0.500544   -0.277738
     31          6           0        5.557625    2.090288   -0.016657
     32          6           0       -5.084742   -1.000487   -0.492976
     33          6           0        4.442803    1.368440   -0.196294
     34          6           0       -3.919201   -0.273254   -0.231033
     35          6           0        3.110054    1.734958   -0.108239
     36          6           0       -2.598710   -0.583779   -0.579753
     37          6           0        2.857503    3.096940    0.465878
     38          6           0       -2.359055   -1.980483   -1.156297
     39          6           0        2.089796    0.835982   -0.398257
     40          6           0       -1.634601    0.239901   -0.108604
     41          6           0        0.734407    1.020330   -0.062669
     42          6           0       -0.233514    0.051038   -0.386984
     43          1           0       13.011087   -1.151739    1.505548
     44          1           0       12.806467   -2.902137    1.542428
     45          1           0      -14.445766   -0.939485    1.145853
     46          1           0      -14.184507   -0.382598   -0.410133
     47          1           0       12.960414   -2.774635   -0.765288
     48          1           0      -13.392464    1.252068    2.076483
     49          1           0       14.169612   -0.062568   -0.320214
     50          1           0       13.551416   -0.393866   -1.977558
     51          1           0      -13.373073    2.143413   -0.864555
     52          1           0      -12.531496    2.757598    0.537301
     53          1           0       10.819155   -1.949574    3.060867
     54          1           0        9.628929   -0.921938    2.395938
     55          1           0       11.361595   -0.325028    2.869369
     56          1           0       10.931567   -3.078488   -0.558492
     57          1           0       10.466247   -3.364688    1.042443
     58          1           0        9.202428   -2.471774   -0.065576
     59          1           0      -11.879263   -0.448419    2.352061
     60          1           0      -10.911421   -1.967140    1.907829
     61          1           0      -12.389336   -2.308729    2.492344
     62          1           0      -13.209910   -3.141320    0.166729
     63          1           0      -11.761578   -3.018169   -0.571873
     64          1           0      -13.024491   -2.087309   -1.240714
     65          1           0        8.701685   -0.542113    0.096937
     66          1           0       -9.982402   -2.030116   -0.794919
     67          1           0       10.751187    1.626074   -1.920640
     68          1           0       12.335624    2.157273   -1.303040
     69          1           0       12.367795    0.992711   -2.562233
     70          1           0      -11.429380    2.622002   -1.642358
     71          1           0      -10.055768    1.104826   -1.851156
     72          1           0       -9.918296    2.281592   -0.523538
     73          1           0       14.717130   -3.201975    0.206518
     74          1           0      -15.518233    1.086190    1.499521
     75          1           0       10.193426    2.400982    0.229118
     76          1           0       -8.726886    0.655613    0.166807
     77          1           0        9.040878    4.104573    0.943090
     78          1           0        7.542273    4.210843   -0.312096
     79          1           0        7.381405    4.109525    1.466640
     80          1           0       -8.515578   -2.997258   -0.529275
     81          1           0       -8.175940   -2.402207   -2.051556
     82          1           0       -6.629499   -2.952990   -1.108867
     83          1           0        6.852594    0.582620   -0.062080
     84          1           0       -6.497479    0.664064   -0.017473
     85          1           0        5.450669    3.270687    0.163104
     86          1           0       -5.048298   -2.071746   -0.840425
     87          1           0        4.654113    0.441432   -0.700513
     88          1           0       -4.207791    0.670575    0.260041
     89          1           0        3.214566    3.284435    1.469522
     90          1           0        1.821488    3.437972    0.525334
     91          1           0        3.258662    3.966169   -0.162166
     92          1           0       -2.347421   -2.660388   -0.176091
     93          1           0       -3.300667   -2.308438   -1.883094
     94          1           0       -1.381450   -2.015662   -1.733667
     95          1           0        2.428756   -0.029461   -0.613602
     96          1           0       -1.856796    1.219718    0.333900
     97          1           0        0.411906    2.007149    0.103139
     98          1           0        0.209656   -0.815241   -0.776736
 ---------------------------------------------------------------------

 SCF Done:  E(RCAM-B3LYP) =  -1706.98563719     A.U. after   15 cycles

 Excitation energies and oscillator strengths:

 Excited State   1:      Singlet-A      2.3624 eV  524.82 nm  f=3.6615  <S**2>=0.000
     155 ->158        -0.16293
     156 ->157         0.68579
 This state for optimization and/or second-order correction.
 Total Energy, E(TD-HF/TD-DFT) =  -1706.89881958
 Copying the excited state density for this state as the 1-particle RhoCI density.

 The electronic state is 1-A.
 Alpha  occ. eigenvalues --  -19.21335 -19.19987 -10.30460 -10.29466 -10.28490
 Alpha  occ. eigenvalues --  -10.27961 -10.27689 -10.27296 -10.27269 -10.27115
 Alpha  occ. eigenvalues --  -10.27096 -10.26974 -10.26777 -10.26738 -10.26726
 Alpha  occ. eigenvalues --  -10.26647 -10.26580 -10.26563 -10.26481 -10.26394
 Alpha  occ. eigenvalues --  -10.26356 -10.26220 -10.26203 -10.26185 -10.26094
 Alpha  occ. eigenvalues --  -10.26048 -10.25978 -10.25899 -10.25776 -10.25634
 Alpha  occ. eigenvalues --  -10.25449 -10.25423 -10.25220 -10.25112 -10.24954
 Alpha  occ. eigenvalues --  -10.24754 -10.24643 -10.24499 -10.24424 -10.24327
 Alpha  occ. eigenvalues --  -10.23934 -10.23767  -1.10283  -1.08348  -0.95241
 Alpha  occ. eigenvalues --   -0.93797  -0.92554  -0.92116  -0.90915  -0.89988
 Alpha  occ. eigenvalues --   -0.88261  -0.87392  -0.86966  -0.86151  -0.85419
 Alpha  occ. eigenvalues --   -0.83508  -0.82152  -0.80734  -0.79919  -0.78049
 Alpha  occ. eigenvalues --   -0.77480  -0.76534  -0.76273  -0.76194  -0.76105
 Alpha  occ. eigenvalues --   -0.75812  -0.75413  -0.75256  -0.74016  -0.70719
 Alpha  occ. eigenvalues --   -0.68940  -0.67780  -0.66106  -0.65371  -0.64332
 Alpha  occ. eigenvalues --   -0.64110  -0.63474  -0.62523  -0.60358  -0.60173
 Alpha  occ. eigenvalues --   -0.59972  -0.59225  -0.58238  -0.58166  -0.56678
 Alpha  occ. eigenvalues --   -0.55569  -0.55491  -0.54807  -0.54431  -0.54016
 Alpha  occ. eigenvalues --   -0.53629  -0.53132  -0.52527  -0.51813  -0.51477
 Alpha  occ. eigenvalues --   -0.51318  -0.50793  -0.50257  -0.50118  -0.49636
 Alpha  occ. eigenvalues --   -0.49315  -0.49184  -0.48781  -0.48381  -0.48021
 Alpha  occ. eigenvalues --   -0.47910  -0.47270  -0.47204  -0.46386  -0.46061
 Alpha  occ. eigenvalues --   -0.45806  -0.45747  -0.45467  -0.45248  -0.44995
 Alpha  occ. eigenvalues --   -0.44517  -0.44207  -0.43851  -0.43741  -0.43591
 Alpha  occ. eigenvalues --   -0.43399  -0.43067  -0.42682  -0.42628  -0.42233
 Alpha  occ. eigenvalues --   -0.41998  -0.41809  -0.41448  -0.41111  -0.40895
 Alpha  occ. eigenvalues --   -0.40719  -0.40600  -0.40376  -0.40220  -0.39580
 Alpha  occ. eigenvalues --   -0.39268  -0.39204  -0.38572  -0.38205  -0.37923
 Alpha  occ. eigenvalues --   -0.37239  -0.36881  -0.36740  -0.36449  -0.35899
 Alpha  occ. eigenvalues --   -0.35079  -0.34779  -0.34109  -0.32714  -0.32420
 Alpha  occ. eigenvalues --   -0.31495  -0.29791  -0.27975  -0.26293  -0.23703
 Alpha  occ. eigenvalues --   -0.19778
 Alpha virt. eigenvalues --   -0.05283  -0.00702   0.02629   0.05587   0.07856
 Alpha virt. eigenvalues --    0.09291   0.10763   0.11345   0.11406   0.12115
 Alpha virt. eigenvalues --    0.12636   0.12742   0.13137   0.13208   0.13338

 Mulliken charges:
               1
     1  O   -0.547573
     2  O   -0.583477
     3  C   -0.048145
     4  C   -0.016773
     5  C   -0.190881
     6  C   -0.195700
     7  C    0.178761
     8  C    0.154716
     9  C    0.057250
    10  C    0.082737
    11  C   -0.228233
    12  C   -0.226143
    13  C    0.030620
    14  C    0.049220
    15  C   -0.296841
    16  C   -0.248311
    17  C   -0.283458
    18  C   -0.315357
    19  C   -0.118888
    20  C   -0.143596
    21  C   -0.351234
    22  C   -0.342604
    23  C   -0.098374
    24  C   -0.083624
    25  C    0.085585
    26  C    0.147588
    27  C   -0.384422
    28  C   -0.386718
    29  C   -0.090180
    30  C   -0.127828
    31  C   -0.083952
    32  C   -0.103001
    33  C   -0.137575
    34  C   -0.107901
    35  C    0.134532
    36  C    0.107668
    37  C   -0.393342
    38  C   -0.351730
    39  C   -0.100522
    40  C   -0.115849
    41  C   -0.085208
    42  C   -0.087955
    43  H    0.110070
    44  H    0.077078
    45  H    0.074674
    46  H    0.115321
    47  H    0.080362
    48  H    0.081698
    49  H    0.122640
    50  H    0.087684
    51  H    0.120946
    52  H    0.114239
    53  H    0.111172
    54  H    0.107292
    55  H    0.089689
    56  H    0.109652
    57  H    0.106602
    58  H    0.030066
    59  H    0.092238
    60  H    0.112527
    61  H    0.082801
    62  H    0.104396
    63  H    0.097927
    64  H    0.081004
    65  H    0.106224
    66  H    0.075456
    67  H    0.123941
    68  H    0.117019
    69  H    0.112904
    70  H    0.072287
    71  H    0.135602
    72  H    0.120985
    73  H    0.299642
    74  H    0.300600
    75  H    0.098257
    76  H    0.085297
    77  H    0.103926
    78  H    0.126603
    79  H    0.113392
    80  H    0.109931
    81  H    0.110450
    82  H    0.112472
    83  H    0.058575
    84  H    0.063059
    85  H    0.062399
    86  H    0.075032
    87  H    0.076676
    88  H    0.081304
    89  H    0.130382
    90  H    0.103344
    91  H    0.107275
    92  H    0.124258
    93  H    0.099091
    94  H    0.114333
    95  H    0.060116
    96  H    0.090811
    97  H    0.083558
    98  H    0.081439
 Sum of Mulliken charges =  -0.00000

 Dipole moment (field-independent basis, Debye):
    X=              1.0687    Y=             -2.0787    Z=              1.2055  Tot=              2.6299
 Quadrupole moment (field-independent basis, Debye-Ang):
   XX=           -284.2670   YY=           -241.3779   ZZ=           -263.0465
   XY=              8.9559   XZ=             -3.0604   YZ=              2.9592

 Normal termination of Gaussian 16 at Wed Jul 10 09:36:35 2019.
