 Gaussian 16, Revision A.03,
 Gaussian 16:  ES64L-G16RevA.03 25-Dec-2016

 -------------------------------------
 # td=(NStates=1) CAM-B3LYP/6-31G(d,p)
 -------------------------------------

 --
 TD
 --
 Symbolic Z-matrix:
 Charge =  0 Multiplicity = 1

                         Standard orientation:
 ---------------------------------------------------------------------
 Center     Atomic      Atomic             Coordinates (Angstroms)
 Number     Number       Type             X           Y           Z
 ---------------------------------------------------------------------
      1          8           0       14.774829   -2.223062   -0.333227
      2          8           0      -14.870675    1.805959    0.962885
      3          6           0       11.261525   -1.409520    0.946690
      4          6           0      -12.443854   -1.117953    0.380665
      5          6           0       12.811872   -1.664701    1.028036
      6          6           0      -13.695637   -0.330232    0.504449
      7          6           0       13.360727   -1.807932   -0.349791
      8          6           0      -13.557546    1.120718    0.828137
      9          6           0       10.915883   -0.276192   -0.103472
     10          6           0      -11.309609   -0.208201   -0.143863
     11          6           0       13.308456   -0.565011   -1.070075
     12          6           0      -12.741029    1.765379   -0.213869
     13          6           0       11.852145    0.003087   -1.025354
     14          6           0      -11.421425    1.162740   -0.508735
     15          6           0       10.877983   -0.974031    2.347828
     16          6           0       10.495214   -2.706875    0.670720
     17          6           0      -11.964051   -1.476684    1.929647
     18          6           0      -12.638954   -2.421803   -0.438421
     19          6           0        9.618360    0.263417    0.137228
     20          6           0      -10.095077   -1.049473   -0.451591
     21          6           0       11.485274    1.131954   -2.061401
     22          6           0      -10.486128    1.911365   -1.325807
     23          6           0        9.312743    1.569252    0.122369
     24          6           0       -8.741462   -0.504543   -0.349406
     25          6           0        8.012890    2.092289    0.216616
     26          6           0       -7.561859   -1.163234   -0.520750
     27          6           0        7.986633    3.522593    0.630215
     28          6           0       -7.550533   -2.632042   -0.905107
     29          6           0        6.848048    1.453280    0.050112
     30          6           0       -6.294975   -0.542331   -0.280545
     31          6           0        5.544809    2.000498    0.123729
     32          6           0       -4.991853   -1.092514   -0.446098
     33          6           0        4.415443    1.325168   -0.120408
     34          6           0       -3.971695   -0.214739   -0.317033
     35          6           0        3.090034    1.825549    0.028019
     36          6           0       -2.597988   -0.764838   -0.334723
     37          6           0        2.790347    3.203149    0.452525
     38          6           0       -2.379653   -2.173376   -0.664562
     39          6           0        2.102111    0.884205    0.006154
     40          6           0       -1.601661    0.196037   -0.159723
     41          6           0        0.730654    1.209292    0.038049
     42          6           0       -0.212425    0.069874   -0.025086
     43          1           0       13.314883   -0.744543    1.312302
     44          1           0       13.208376   -2.509111    1.607271
     45          1           0      -14.417839   -0.791455    1.426480
     46          1           0      -14.235544   -0.329018   -0.441814
     47          1           0       12.640239   -2.466882   -0.867520
     48          1           0      -12.765421    1.282171    1.695666
     49          1           0       14.024872    0.242810   -0.639472
     50          1           0       13.748436   -0.708004   -2.003729
     51          1           0      -13.434248    1.907210   -1.114022
     52          1           0      -12.399227    2.825153   -0.000691
     53          1           0       11.112697   -2.019373    2.921966
     54          1           0        9.637972   -0.878328    2.535575
     55          1           0       11.486828   -0.109709    2.717497
     56          1           0       10.575821   -3.082962   -0.492022
     57          1           0       10.590528   -3.607187    1.374460
     58          1           0        9.364789   -2.621034    0.847659
     59          1           0      -11.876704   -0.496416    2.327437
     60          1           0      -11.052262   -1.902352    1.693994
     61          1           0      -12.659068   -2.438139    2.197790
     62          1           0      -13.574615   -2.786860   -0.119786
     63          1           0      -11.892762   -2.980120   -0.149206
     64          1           0      -12.681563   -2.233424   -1.583846
     65          1           0        8.812033   -0.512125    0.211470
     66          1           0      -10.330545   -2.051472   -0.577615
     67          1           0       10.445300    1.224964   -2.340203
     68          1           0       11.877916    2.123185   -1.703517
     69          1           0       12.186540    0.909364   -3.100327
     70          1           0      -11.294694    2.777900   -1.778236
     71          1           0      -10.022840    1.219558   -2.071220
     72          1           0       -9.666723    2.179938   -0.681691
     73          1           0       14.727316   -2.936330    0.332840
     74          1           0      -15.214101    1.679466    2.044007
     75          1           0        9.953928    2.351204    0.029727
     76          1           0       -8.545616    0.536867    0.027057
     77          1           0        9.082057    3.965969    0.876256
     78          1           0        7.565635    4.306562   -0.178506
     79          1           0        7.353766    3.780392    1.409086
     80          1           0       -7.731423   -3.330475   -0.081068
     81          1           0       -8.052571   -2.890073   -1.771529
     82          1           0       -6.362851   -2.878351   -1.231055
     83          1           0        6.934537    0.363377   -0.331004
     84          1           0       -6.449042    0.354007    0.016801
     85          1           0        5.555705    2.957396    0.595131
     86          1           0       -4.896481   -2.174266   -0.568255
     87          1           0        4.577670    0.299621   -0.598844
     88          1           0       -4.010363    0.802038   -0.312534
     89          1           0        2.773553    3.195850    1.645435
     90          1           0        1.700278    3.586288   -0.056296
     91          1           0        3.790834    4.060995    0.220999
     92          1           0       -3.066433   -2.765691   -0.074699
     93          1           0       -2.594426   -2.623657   -1.714066
     94          1           0       -1.395481   -2.675558   -0.391991
     95          1           0        2.419229   -0.120590   -0.021747
     96          1           0       -2.065419    1.174986    0.001447
     97          1           0        0.231239    2.206068    0.300416
     98          1           0        0.379629   -0.994731   -0.161727
 ---------------------------------------------------------------------

 SCF Done:  E(RCAM-B3LYP) =  -1706.89519205     A.U. after   15 cycles

 Excitation energies and oscillator strengths:

 Excited State   1:      Singlet-A      2.0881 eV  593.76 nm  f=3.7317  <S**2>=0.000
     155 ->158        -0.16309
     156 ->157         0.68690
 This state for optimization and/or second-order correction.
 Total Energy, E(TD-HF/TD-DFT) =  -1706.81845482
 Copying the excited state density for this state as the 1-particle RhoCI density.

 The electronic state is 1-A.
 Alpha  occ. eigenvalues --  -19.22996 -19.21401 -10.31006 -10.30032 -10.29257
 Alpha  occ. eigenvalues --  -10.28664 -10.28144 -10.28057 -10.27907 -10.27602
 Alpha  occ. eigenvalues --  -10.27323 -10.27155 -10.27032 -10.26982 -10.26935
 Alpha  occ. eigenvalues --  -10.26934 -10.26926 -10.26780 -10.26705 -10.26679
 Alpha  occ. eigenvalues --  -10.26579 -10.26539 -10.26490 -10.26466 -10.26434
 Alpha  occ. eigenvalues --  -10.26294 -10.26268 -10.26201 -10.26029 -10.26005
 Alpha  occ. eigenvalues --  -10.25860 -10.25792 -10.25621 -10.25550 -10.25500
 Alpha  occ. eigenvalues --  -10.25392 -10.25352 -10.25158 -10.25133 -10.25106
 Alpha  occ. eigenvalues --  -10.24983 -10.24443  -1.08353  -1.05376  -0.94023
 Alpha  occ. eigenvalues --   -0.93654  -0.92711  -0.92326  -0.91384  -0.90205
 Alpha  occ. eigenvalues --   -0.87877  -0.87366  -0.86432  -0.86149  -0.84892
 Alpha  occ. eigenvalues --   -0.83816  -0.82261  -0.80123  -0.79531  -0.78350
 Alpha  occ. eigenvalues --   -0.76969  -0.76540  -0.76263  -0.75855  -0.75418
 Alpha  occ. eigenvalues --   -0.75212  -0.75119  -0.74212  -0.73162  -0.70782
 Alpha  occ. eigenvalues --   -0.69512  -0.67750  -0.65084  -0.64599  -0.64106
 Alpha  occ. eigenvalues --   -0.63074  -0.62448  -0.62293  -0.60649  -0.59768
 Alpha  occ. eigenvalues --   -0.59454  -0.59077  -0.58215  -0.57988  -0.56406
 Alpha  occ. eigenvalues --   -0.55763  -0.55191  -0.55152  -0.54101  -0.53580
 Alpha  occ. eigenvalues --   -0.53058  -0.52532  -0.51898  -0.51549  -0.51011
 Alpha  occ. eigenvalues --   -0.50891  -0.49926  -0.49769  -0.49704  -0.49418
 Alpha  occ. eigenvalues --   -0.49164  -0.48816  -0.48293  -0.47675  -0.47602
 Alpha  occ. eigenvalues --   -0.47427  -0.46975  -0.46825  -0.46536  -0.46305
 Alpha  occ. eigenvalues --   -0.46154  -0.45682  -0.45397  -0.45209  -0.44893
 Alpha  occ. eigenvalues --   -0.44760  -0.44077  -0.43985  -0.43908  -0.43444
 Alpha  occ. eigenvalues --   -0.42879  -0.42862  -0.42673  -0.42216  -0.42105
 Alpha  occ. eigenvalues --   -0.41716  -0.41411  -0.41353  -0.40647  -0.40362
 Alpha  occ. eigenvalues --   -0.40251  -0.40052  -0.39860  -0.39501  -0.39422
 Alpha  occ. eigenvalues --   -0.38928  -0.38755  -0.38564  -0.38314  -0.38171
 Alpha  occ. eigenvalues --   -0.37765  -0.37304  -0.36613  -0.36511  -0.35958
 Alpha  occ. eigenvalues --   -0.35088  -0.34385  -0.34223  -0.32934  -0.32393
 Alpha  occ. eigenvalues --   -0.32377  -0.29835  -0.28484  -0.25932  -0.22732
 Alpha  occ. eigenvalues --   -0.19233
 Alpha virt. eigenvalues --   -0.06200  -0.01880   0.01214   0.05810   0.07287
 Alpha virt. eigenvalues --    0.08319   0.09301   0.10798   0.11028   0.11539
 Alpha virt. eigenvalues --    0.11816   0.12100   0.12485   0.12873   0.12996

 Mulliken charges:
               1
     1  O   -0.568568
     2  O   -0.567550
     3  C   -0.018820
     4  C   -0.053017
     5  C   -0.180543
     6  C   -0.142021
     7  C    0.154488
     8  C    0.143389
     9  C    0.079419
    10  C    0.058026
    11  C   -0.199668
    12  C   -0.223253
    13  C    0.018006
    14  C    0.057984
    15  C   -0.268881
    16  C   -0.307991
    17  C   -0.289743
    18  C   -0.301509
    19  C   -0.125018
    20  C   -0.138453
    21  C   -0.352195
    22  C   -0.351018
    23  C   -0.062343
    24  C   -0.131049
    25  C    0.120217
    26  C    0.117413
    27  C   -0.397190
    28  C   -0.367569
    29  C   -0.132229
    30  C   -0.095279
    31  C   -0.069775
    32  C   -0.088865
    33  C   -0.117652
    34  C   -0.087969
    35  C    0.127021
    36  C    0.129716
    37  C   -0.348224
    38  C   -0.392745
    39  C   -0.098718
    40  C   -0.133504
    41  C   -0.099622
    42  C   -0.101701
    43  H    0.106468
    44  H    0.076692
    45  H    0.049348
    46  H    0.100094
    47  H    0.084049
    48  H    0.067528
    49  H    0.103927
    50  H    0.122119
    51  H    0.107896
    52  H    0.098157
    53  H    0.072453
    54  H    0.077929
    55  H    0.108757
    56  H    0.089405
    57  H    0.101527
    58  H    0.095618
    59  H    0.115007
    60  H    0.112111
    61  H    0.084016
    62  H    0.113721
    63  H    0.113372
    64  H    0.104342
    65  H    0.100413
    66  H    0.086494
    67  H    0.131813
    68  H    0.114508
    69  H    0.062266
    70  H    0.089011
    71  H    0.135119
    72  H    0.129944
    73  H    0.302010
    74  H    0.309755
    75  H    0.081090
    76  H    0.073824
    77  H    0.087773
    78  H    0.097692
    79  H    0.137437
    80  H    0.125052
    81  H    0.127237
    82  H    0.061246
    83  H    0.062773
    84  H    0.050404
    85  H    0.072980
    86  H    0.100535
    87  H    0.083583
    88  H    0.092304
    89  H    0.125163
    90  H    0.102281
    91  H    0.069371
    92  H    0.122608
    93  H    0.120692
    94  H    0.107659
    95  H    0.089961
    96  H    0.073887
    97  H    0.099345
    98  H    0.076239
 Sum of Mulliken charges =  -0.00000

 Dipole moment (field-independent basis, Debye):
    X=             -1.2739    Y=             -1.2703    Z=              2.0264  Tot=              2.7098
 Quadrupole moment (field-independent basis, Debye-Ang):
   XX=           -311.3010   YY=           -244.7617   ZZ=           -264.8778
   XY=             12.4228   XZ=              1.5476   YZ=              2.5854

 Normal termination of Gaussian 16 at Fri Jul 19 23:00:59 2019.
