 Gaussian 16, Revision A.03,
 Gaussian 16:  ES64L-G16RevA.03 25-Dec-2016

 -------------------------------------
 # td=(NStates=1) CAM-B3LYP/6-31G(d,p)
 -------------------------------------

 --
 TD
 --
 Symbolic Z-matrix:
 Charge =  0 Multiplicity = 1

                         Standard orientation:
 ---------------------------------------------------------------------
 Center     Atomic      Atomic             Coordinates (Angstroms)
 Number     Number       Type             X           Y           Z
 ---------------------------------------------------------------------
      1          8           0       14.613497   -2.472605   -0.414522
      2          8           0      -14.693385    1.979776    1.068067
      3          6           0       11.235417   -1.432137    1.091280
      4          6           0      -12.436172   -1.069086    0.551889
      5          6           0       12.688499   -1.900870    1.047455
      6          6           0      -13.749562   -0.253419    0.641995
      7          6           0       13.279422   -2.082019   -0.427890
      8          6           0      -13.533268    1.191221    1.024472
      9          6           0       10.902016   -0.244149    0.033571
     10          6           0      -11.407798   -0.372142   -0.239061
     11          6           0       13.188290   -0.642753   -1.165626
     12          6           0      -12.752922    1.761344   -0.228414
     13          6           0       11.895970    0.094179   -0.946793
     14          6           0      -11.554388    0.959307   -0.547988
     15          6           0       11.066704   -0.926256    2.638798
     16          6           0       10.335426   -2.533826    0.846073
     17          6           0      -11.995388   -1.451037    1.954867
     18          6           0      -12.635908   -2.389777   -0.191742
     19          6           0        9.679191    0.363460    0.251821
     20          6           0      -10.096131   -1.080345   -0.502090
     21          6           0       11.467625    0.976030   -2.050684
     22          6           0      -10.617054    1.758369   -1.443181
     23          6           0        9.399398    1.682257    0.014094
     24          6           0       -8.852787   -0.509858   -0.431034
     25          6           0        8.133092    2.354064    0.137691
     26          6           0       -7.589939   -1.230661   -0.501446
     27          6           0        7.993350    3.832897    0.365555
     28          6           0       -7.595328   -2.669458   -1.006589
     29          6           0        6.924907    1.596320    0.017915
     30          6           0       -6.332328   -0.564632   -0.337944
     31          6           0        5.626107    2.160720    0.199800
     32          6           0       -5.053047   -1.039155   -0.594616
     33          6           0        4.481366    1.359070    0.058533
     34          6           0       -3.920631   -0.380017   -0.317985
     35          6           0        3.171161    1.749463    0.162404
     36          6           0       -2.538270   -0.724559   -0.441305
     37          6           0        2.772358    3.180431    0.524673
     38          6           0       -2.327366   -2.141442   -0.785810
     39          6           0        2.154589    0.730229   -0.109931
     40          6           0       -1.539690    0.221108   -0.143526
     41          6           0        0.815597    1.023114   -0.050109
     42          6           0       -0.151727    0.016681   -0.324640
     43          1           0       13.373837   -1.124147    1.451596
     44          1           0       12.891337   -2.732763    1.576625
     45          1           0      -14.393040   -0.658802    1.422652
     46          1           0      -14.291898   -0.241814   -0.466774
     47          1           0       12.654692   -2.808617   -0.969003
     48          1           0      -12.778180    1.240356    1.824197
     49          1           0       13.898196    0.028558   -0.712346
     50          1           0       13.349624   -0.645103   -2.169028
     51          1           0      -13.562374    1.870013   -1.125590
     52          1           0      -12.463012    2.841440    0.215163
     53          1           0       10.909352   -1.851968    3.339731
     54          1           0        9.952847   -0.506405    2.617545
     55          1           0       11.837258   -0.054323    2.899049
     56          1           0       10.524688   -2.860149   -0.265182
     57          1           0       10.624287   -3.357522    1.611362
     58          1           0        9.236439   -2.463914    1.053502
     59          1           0      -11.941296   -0.508409    2.706193
     60          1           0      -11.003409   -1.707024    1.740101
     61          1           0      -12.717102   -2.306094    2.293337
     62          1           0      -13.481380   -2.964360    0.156886
     63          1           0      -11.872380   -3.043192   -0.278415
     64          1           0      -12.710179   -2.021551   -1.192699
     65          1           0        8.861956   -0.289300    0.581886
     66          1           0      -10.046905   -1.981961   -0.783360
     67          1           0       10.443447    1.095362   -2.329207
     68          1           0       11.498378    2.145278   -1.813367
     69          1           0       12.017448    0.903054   -2.918484
     70          1           0      -11.064159    2.392749   -2.326738
     71          1           0       -9.862358    1.104426   -1.891003
     72          1           0       -9.686211    2.315313   -0.892532
     73          1           0       14.680025   -3.405130   -0.063503
     74          1           0      -15.082076    1.583923    1.793947
     75          1           0       10.301824    2.337541    0.069810
     76          1           0       -8.767978    0.493248    0.114348
     77          1           0        8.940713    4.291913    0.210918
     78          1           0        7.372573    4.385981   -0.326463
     79          1           0        7.803246    4.307786    1.451941
     80          1           0       -8.186560   -3.418727   -0.299737
     81          1           0       -7.979681   -2.854460   -2.003889
     82          1           0       -6.568885   -2.777257   -0.873541
     83          1           0        6.834885    0.599134   -0.280719
     84          1           0       -6.404932    0.569243   -0.288818
     85          1           0        5.485218    3.293570    0.065098
     86          1           0       -4.744634   -2.010138   -0.966853
     87          1           0        4.688352    0.298783   -0.164165
     88          1           0       -4.032248    0.822234   -0.200639
     89          1           0        3.356420    3.397648    1.421106
     90          1           0        1.757583    3.397548    0.646177
     91          1           0        3.017954    3.847879   -0.413961
     92          1           0       -2.787346   -2.588654    0.048358
     93          1           0       -2.637713   -2.453321   -1.754719
     94          1           0       -1.311177   -2.213219   -0.800665
     95          1           0        2.547816   -0.308946   -0.310027
     96          1           0       -1.938616    1.201813    0.169058
     97          1           0        0.445045    2.022356    0.134357
     98          1           0        0.464704   -0.923258   -0.608756
 ---------------------------------------------------------------------

 SCF Done:  E(RCAM-B3LYP) =  -1706.98125493     A.U. after   16 cycles

 Excitation energies and oscillator strengths:

 Excited State   1:      Singlet-A      1.8359 eV  675.32 nm  f=3.6841  <S**2>=0.000
     155 ->158        -0.14690
     156 ->157         0.69476
     156 <-157        -0.10647
 This state for optimization and/or second-order correction.
 Total Energy, E(TD-HF/TD-DFT) =  -1706.91378600
 Copying the excited state density for this state as the 1-particle RhoCI density.

 The electronic state is 1-A.
 Alpha  occ. eigenvalues --  -19.22082 -19.21717 -10.31490 -10.29777 -10.28029
 Alpha  occ. eigenvalues --  -10.27983 -10.27942 -10.27927 -10.27574 -10.27573
 Alpha  occ. eigenvalues --  -10.27319 -10.27228 -10.27220 -10.27177 -10.27096
 Alpha  occ. eigenvalues --  -10.26722 -10.26627 -10.26576 -10.26553 -10.26513
 Alpha  occ. eigenvalues --  -10.26447 -10.26367 -10.26348 -10.26250 -10.26127
 Alpha  occ. eigenvalues --  -10.26108 -10.26055 -10.26037 -10.25957 -10.25880
 Alpha  occ. eigenvalues --  -10.25837 -10.25800 -10.25731 -10.25708 -10.25398
 Alpha  occ. eigenvalues --  -10.25380 -10.25335 -10.25176 -10.24621 -10.24292
 Alpha  occ. eigenvalues --  -10.23816 -10.23017  -1.12082  -1.10161  -0.94189
 Alpha  occ. eigenvalues --   -0.92919  -0.92494  -0.91612  -0.90222  -0.89694
 Alpha  occ. eigenvalues --   -0.87679  -0.87309  -0.86572  -0.85821  -0.84858
 Alpha  occ. eigenvalues --   -0.83158  -0.82006  -0.79960  -0.79837  -0.79182
 Alpha  occ. eigenvalues --   -0.76625  -0.76506  -0.76467  -0.76007  -0.75575
 Alpha  occ. eigenvalues --   -0.75227  -0.73965  -0.73935  -0.73045  -0.70580
 Alpha  occ. eigenvalues --   -0.69256  -0.67634  -0.66106  -0.65158  -0.63535
 Alpha  occ. eigenvalues --   -0.63383  -0.62564  -0.61900  -0.60689  -0.59754
 Alpha  occ. eigenvalues --   -0.59374  -0.59045  -0.58803  -0.57953  -0.56134
 Alpha  occ. eigenvalues --   -0.55950  -0.55574  -0.55199  -0.54507  -0.54237
 Alpha  occ. eigenvalues --   -0.53594  -0.52899  -0.51847  -0.51407  -0.51078
 Alpha  occ. eigenvalues --   -0.50463  -0.50030  -0.49947  -0.49624  -0.49268
 Alpha  occ. eigenvalues --   -0.49043  -0.49005  -0.48367  -0.48191  -0.47749
 Alpha  occ. eigenvalues --   -0.47383  -0.47235  -0.47058  -0.46915  -0.46512
 Alpha  occ. eigenvalues --   -0.46378  -0.45513  -0.45388  -0.45172  -0.44814
 Alpha  occ. eigenvalues --   -0.44576  -0.44463  -0.44431  -0.43814  -0.43554
 Alpha  occ. eigenvalues --   -0.43382  -0.42926  -0.42680  -0.42509  -0.42340
 Alpha  occ. eigenvalues --   -0.42109  -0.41764  -0.41021  -0.40815  -0.40727
 Alpha  occ. eigenvalues --   -0.40570  -0.40510  -0.39795  -0.39675  -0.39275
 Alpha  occ. eigenvalues --   -0.39248  -0.39066  -0.38527  -0.37967  -0.37809
 Alpha  occ. eigenvalues --   -0.37523  -0.36977  -0.36676  -0.36438  -0.36318
 Alpha  occ. eigenvalues --   -0.35143  -0.34479  -0.33753  -0.32795  -0.32126
 Alpha  occ. eigenvalues --   -0.31128  -0.29629  -0.28105  -0.25525  -0.22961
 Alpha  occ. eigenvalues --   -0.18375
 Alpha virt. eigenvalues --   -0.06975  -0.01930   0.01312   0.04969   0.07194
 Alpha virt. eigenvalues --    0.08982   0.11224   0.11607   0.12013   0.12258
 Alpha virt. eigenvalues --    0.12778   0.13009   0.13317   0.13480   0.13984

 Mulliken charges:
               1
     1  O   -0.549790
     2  O   -0.520345
     3  C   -0.008065
     4  C   -0.023743
     5  C   -0.176783
     6  C   -0.166951
     7  C    0.160639
     8  C    0.135061
     9  C    0.053537
    10  C    0.070425
    11  C   -0.220189
    12  C   -0.222502
    13  C    0.043103
    14  C    0.058400
    15  C   -0.297104
    16  C   -0.288406
    17  C   -0.272931
    18  C   -0.313496
    19  C   -0.089926
    20  C   -0.096295
    21  C   -0.373987
    22  C   -0.364855
    23  C   -0.135136
    24  C   -0.106599
    25  C    0.077587
    26  C    0.062616
    27  C   -0.380707
    28  C   -0.355115
    29  C   -0.112379
    30  C   -0.128083
    31  C   -0.091278
    32  C   -0.083141
    33  C   -0.125846
    34  C   -0.113541
    35  C    0.096593
    36  C    0.084560
    37  C   -0.362907
    38  C   -0.369340
    39  C   -0.132208
    40  C   -0.124661
    41  C   -0.066949
    42  C   -0.103657
    43  H    0.097535
    44  H    0.082604
    45  H    0.068316
    46  H    0.076232
    47  H    0.073776
    48  H    0.087431
    49  H    0.132227
    50  H    0.114588
    51  H    0.105122
    52  H    0.093310
    53  H    0.092902
    54  H    0.085126
    55  H    0.103681
    56  H    0.095173
    57  H    0.081710
    58  H    0.104155
    59  H    0.073717
    60  H    0.115995
    61  H    0.091659
    62  H    0.097400
    63  H    0.114343
    64  H    0.108506
    65  H    0.090532
    66  H    0.067592
    67  H    0.137528
    68  H    0.091683
    69  H    0.106546
    70  H    0.103425
    71  H    0.119935
    72  H    0.086942
    73  H    0.311134
    74  H    0.297238
    75  H    0.088277
    76  H    0.084488
    77  H    0.110958
    78  H    0.126105
    79  H    0.106660
    80  H    0.092417
    81  H    0.129686
    82  H    0.115456
    83  H    0.083453
    84  H    0.089412
    85  H    0.089841
    86  H    0.094949
    87  H    0.078129
    88  H    0.045381
    89  H    0.131545
    90  H    0.118968
    91  H    0.110259
    92  H    0.137221
    93  H    0.127027
    94  H    0.109794
    95  H    0.086728
    96  H    0.092777
    97  H    0.086584
    98  H    0.090213
 Sum of Mulliken charges =  -0.00000

 Dipole moment (field-independent basis, Debye):
    X=              2.5378    Y=             -2.0328    Z=              0.4892  Tot=              3.2882
 Quadrupole moment (field-independent basis, Debye-Ang):
   XX=           -283.5818   YY=           -242.8114   ZZ=           -261.7838
   XY=             10.8598   XZ=            -10.0119   YZ=              0.8387

 Normal termination of Gaussian 16 at Tue Jul  9 15:48:55 2019.
