 Gaussian 16, Revision A.03,
 Gaussian 16:  ES64L-G16RevA.03 25-Dec-2016

 -------------------------------------
 # td=(NStates=1) CAM-B3LYP/6-31G(d,p)
 -------------------------------------

 --
 TD
 --
 Symbolic Z-matrix:
 Charge =  0 Multiplicity = 1

                         Standard orientation:
 ---------------------------------------------------------------------
 Center     Atomic      Atomic             Coordinates (Angstroms)
 Number     Number       Type             X           Y           Z
 ---------------------------------------------------------------------
      1          8           0       14.646928   -2.316017   -0.170857
      2          8           0      -14.841777    1.893518    0.983203
      3          6           0       11.082240   -1.422975    0.949544
      4          6           0      -12.279552   -1.065627    0.614128
      5          6           0       12.604329   -1.849118    1.048929
      6          6           0      -13.556143   -0.281421    0.620524
      7          6           0       13.199255   -1.947213   -0.354255
      8          6           0      -13.511832    1.165900    0.877692
      9          6           0       10.929323   -0.290965   -0.080813
     10          6           0      -11.256553   -0.254680   -0.313307
     11          6           0       13.203090   -0.516741   -0.954139
     12          6           0      -12.827166    1.819747   -0.213758
     13          6           0       11.865618    0.087955   -0.868475
     14          6           0      -11.453096    0.995887   -0.617283
     15          6           0       10.593736   -0.988776    2.292800
     16          6           0       10.250412   -2.711002    0.543306
     17          6           0      -11.684635   -1.139591    2.073128
     18          6           0      -12.493645   -2.366754    0.080396
     19          6           0        9.670588    0.320701    0.158700
     20          6           0       -9.997577   -0.922457   -0.645563
     21          6           0       11.665613    1.095932   -1.971805
     22          6           0      -10.581826    1.912684   -1.445795
     23          6           0        9.416048    1.776573    0.271129
     24          6           0       -8.692974   -0.503592   -0.411153
     25          6           0        8.051326    2.297497    0.244287
     26          6           0       -7.434141   -1.333514   -0.492853
     27          6           0        8.023727    3.774811    0.490969
     28          6           0       -7.719269   -2.784424   -0.867574
     29          6           0        6.874226    1.568328    0.063805
     30          6           0       -6.274494   -0.688630   -0.327295
     31          6           0        5.514977    2.135984    0.229671
     32          6           0       -4.982741   -1.168054   -0.538359
     33          6           0        4.449680    1.352765   -0.082946
     34          6           0       -3.922160   -0.269745   -0.388863
     35          6           0        3.102961    1.699769    0.152952
     36          6           0       -2.541098   -0.745313   -0.626264
     37          6           0        2.785003    3.218003    0.398956
     38          6           0       -2.360724   -2.263428   -0.963230
     39          6           0        2.120744    0.736165    0.026576
     40          6           0       -1.559970    0.194540   -0.325230
     41          6           0        0.742109    0.937126    0.035550
     42          6           0       -0.178295   -0.079342   -0.217151
     43          1           0       13.328362   -0.978362    1.374553
     44          1           0       12.758473   -2.650990    1.745136
     45          1           0      -14.174674   -0.817048    1.466135
     46          1           0      -14.124288   -0.436514   -0.280172
     47          1           0       12.668825   -2.618979   -1.063430
     48          1           0      -12.732566    1.398436    1.654147
     49          1           0       13.879148    0.314096   -0.477243
     50          1           0       13.583602   -0.710020   -1.999929
     51          1           0      -13.452211    1.805373   -1.164160
     52          1           0      -12.519471    2.826523    0.071056
     53          1           0       10.834558   -1.743077    3.006483
     54          1           0        9.758536   -0.530003    2.372277
     55          1           0       11.218483   -0.065766    2.583342
     56          1           0       10.691296   -3.069534   -0.446135
     57          1           0       10.157976   -3.459253    1.308907
     58          1           0        9.192416   -2.499803    0.476417
     59          1           0      -11.420382    0.023912    2.588852
     60          1           0      -10.926743   -1.685285    2.131432
     61          1           0      -12.342189   -1.651089    2.985098
     62          1           0      -13.161512   -2.927156    0.793169
     63          1           0      -11.669797   -3.008335    0.142409
     64          1           0      -12.809243   -2.246056   -0.949858
     65          1           0        8.746221   -0.299171    0.464965
     66          1           0      -10.125572   -1.989297   -1.178427
     67          1           0       10.642355    1.318400   -2.082552
     68          1           0       11.964648    2.113982   -1.685199
     69          1           0       12.060434    0.728365   -2.960230
     70          1           0      -11.294752    2.080837   -2.565715
     71          1           0       -9.911782    1.406501   -2.060049
     72          1           0      -10.215770    2.930696   -1.144668
     73          1           0       14.645587   -3.371613   -0.026648
     74          1           0      -15.371064    1.025505    1.488972
     75          1           0       10.341205    2.393407   -0.075842
     76          1           0       -8.401678    0.531893   -0.158071
     77          1           0        9.036511    4.379922    0.630863
     78          1           0        7.574801    4.265354   -0.488993
     79          1           0        7.199837    3.950567    1.405906
     80          1           0       -8.023618   -3.422534    0.098303
     81          1           0       -8.206208   -2.960042   -1.688125
     82          1           0       -6.662818   -3.279064   -1.203209
     83          1           0        6.943213    0.257497    0.020403
     84          1           0       -6.293298    0.455326   -0.058920
     85          1           0        5.606617    3.199404    0.462407
     86          1           0       -4.845399   -2.283201   -0.791756
     87          1           0        4.619742    0.235843   -0.250064
     88          1           0       -4.194564    0.753810   -0.178728
     89          1           0        3.133222    3.376902    1.440093
     90          1           0        1.776968    3.516591    0.415364
     91          1           0        3.137509    4.035534   -0.263915
     92          1           0       -2.362105   -2.963680    0.009633
     93          1           0       -3.330158   -2.762667   -1.536819
     94          1           0       -1.247395   -2.191596   -1.336024
     95          1           0        2.398809   -0.317245    0.062493
     96          1           0       -1.792152    1.253713   -0.212532
     97          1           0        0.178508    1.860077    0.271898
     98          1           0        0.069667   -1.103131   -0.443643
 ---------------------------------------------------------------------

 SCF Done:  E(RCAM-B3LYP) =  -1706.87378651     A.U. after   15 cycles

 Excitation energies and oscillator strengths:

 Excited State   1:      Singlet-A      2.2934 eV  540.61 nm  f=3.5420  <S**2>=0.000
     155 ->158        -0.17430
     156 ->157         0.68058
 This state for optimization and/or second-order correction.
 Total Energy, E(TD-HF/TD-DFT) =  -1706.78950551
 Copying the excited state density for this state as the 1-particle RhoCI density.

 The electronic state is 1-A.
 Alpha  occ. eigenvalues --  -19.22496 -19.21673 -10.31288 -10.29520 -10.29396
 Alpha  occ. eigenvalues --  -10.28601 -10.28411 -10.28048 -10.28044 -10.27932
 Alpha  occ. eigenvalues --  -10.27921 -10.27798 -10.27709 -10.27416 -10.27255
 Alpha  occ. eigenvalues --  -10.27131 -10.26984 -10.26917 -10.26857 -10.26782
 Alpha  occ. eigenvalues --  -10.26781 -10.26718 -10.26625 -10.26602 -10.26599
 Alpha  occ. eigenvalues --  -10.26489 -10.26482 -10.26436 -10.26368 -10.26356
 Alpha  occ. eigenvalues --  -10.26282 -10.26191 -10.25818 -10.25796 -10.25604
 Alpha  occ. eigenvalues --  -10.25392 -10.25136 -10.25128 -10.24871 -10.24744
 Alpha  occ. eigenvalues --  -10.24214 -10.22590  -1.05480  -1.04639  -0.94625
 Alpha  occ. eigenvalues --   -0.94296  -0.92012  -0.91336  -0.90150  -0.89188
 Alpha  occ. eigenvalues --   -0.87735  -0.87586  -0.86803  -0.85448  -0.84738
 Alpha  occ. eigenvalues --   -0.83420  -0.81571  -0.79507  -0.79259  -0.78151
 Alpha  occ. eigenvalues --   -0.76827  -0.76722  -0.76360  -0.76126  -0.75926
 Alpha  occ. eigenvalues --   -0.75481  -0.75282  -0.75097  -0.73060  -0.70301
 Alpha  occ. eigenvalues --   -0.68831  -0.66774  -0.65407  -0.64840  -0.64272
 Alpha  occ. eigenvalues --   -0.63591  -0.62881  -0.61906  -0.60731  -0.60207
 Alpha  occ. eigenvalues --   -0.58792  -0.57977  -0.57238  -0.56939  -0.56010
 Alpha  occ. eigenvalues --   -0.55597  -0.54684  -0.54283  -0.53815  -0.53044
 Alpha  occ. eigenvalues --   -0.52821  -0.52224  -0.52068  -0.51495  -0.50859
 Alpha  occ. eigenvalues --   -0.50739  -0.50084  -0.49660  -0.49188  -0.49081
 Alpha  occ. eigenvalues --   -0.48787  -0.48679  -0.48340  -0.48173  -0.47958
 Alpha  occ. eigenvalues --   -0.47305  -0.47064  -0.46702  -0.46495  -0.46184
 Alpha  occ. eigenvalues --   -0.46008  -0.45741  -0.45545  -0.45252  -0.45094
 Alpha  occ. eigenvalues --   -0.44561  -0.43833  -0.43315  -0.43182  -0.42930
 Alpha  occ. eigenvalues --   -0.42794  -0.42646  -0.42317  -0.42220  -0.41569
 Alpha  occ. eigenvalues --   -0.41452  -0.41353  -0.41333  -0.40937  -0.40781
 Alpha  occ. eigenvalues --   -0.40096  -0.39845  -0.39816  -0.39271  -0.39217
 Alpha  occ. eigenvalues --   -0.39030  -0.38521  -0.38367  -0.38056  -0.37941
 Alpha  occ. eigenvalues --   -0.37738  -0.37417  -0.37168  -0.36272  -0.35982
 Alpha  occ. eigenvalues --   -0.34547  -0.34362  -0.33399  -0.32226  -0.32032
 Alpha  occ. eigenvalues --   -0.31957  -0.30531  -0.29116  -0.26410  -0.23483
 Alpha  occ. eigenvalues --   -0.19809
 Alpha virt. eigenvalues --   -0.05544  -0.01377   0.01945   0.05552   0.07568
 Alpha virt. eigenvalues --    0.09522   0.09888   0.10059   0.10317   0.10732
 Alpha virt. eigenvalues --    0.11032   0.11557   0.12155   0.12756   0.12920

 Mulliken charges:
               1
     1  O   -0.570252
     2  O   -0.560660
     3  C   -0.037342
     4  C    0.002995
     5  C   -0.168777
     6  C   -0.188281
     7  C    0.130942
     8  C    0.168573
     9  C    0.134184
    10  C    0.077737
    11  C   -0.222136
    12  C   -0.196153
    13  C    0.034551
    14  C    0.022928
    15  C   -0.285765
    16  C   -0.302448
    17  C   -0.270745
    18  C   -0.302659
    19  C   -0.143376
    20  C   -0.182721
    21  C   -0.373516
    22  C   -0.348710
    23  C   -0.133928
    24  C   -0.075102
    25  C    0.099333
    26  C    0.102909
    27  C   -0.368749
    28  C   -0.352886
    29  C   -0.108235
    30  C   -0.133076
    31  C   -0.085943
    32  C   -0.069205
    33  C   -0.110810
    34  C   -0.106326
    35  C    0.108013
    36  C    0.071152
    37  C   -0.375478
    38  C   -0.347456
    39  C   -0.141360
    40  C   -0.112195
    41  C   -0.085000
    42  C   -0.073312
    43  H    0.098809
    44  H    0.085861
    45  H    0.062936
    46  H    0.103349
    47  H    0.090607
    48  H    0.083803
    49  H    0.120247
    50  H    0.108043
    51  H    0.105732
    52  H    0.108659
    53  H    0.097305
    54  H    0.115742
    55  H    0.084115
    56  H    0.091558
    57  H    0.105179
    58  H    0.101401
    59  H    0.072606
    60  H    0.122638
    61  H    0.068353
    62  H    0.093871
    63  H    0.112266
    64  H    0.109802
    65  H    0.094616
    66  H    0.077012
    67  H    0.128191
    68  H    0.113208
    69  H    0.108170
    70  H    0.045335
    71  H    0.131532
    72  H    0.124609
    73  H    0.301359
    74  H    0.294891
    75  H    0.082747
    76  H    0.079787
    77  H    0.111902
    78  H    0.113348
    79  H    0.102065
    80  H    0.114901
    81  H    0.140903
    82  H    0.066966
    83  H    0.052524
    84  H    0.076755
    85  H    0.099172
    86  H    0.077459
    87  H    0.083792
    88  H    0.089746
    89  H    0.123084
    90  H    0.113345
    91  H    0.118974
    92  H    0.114614
    93  H    0.113188
    94  H    0.109714
    95  H    0.090224
    96  H    0.082852
    97  H    0.086726
    98  H    0.072695
 Sum of Mulliken charges =  -0.00000

 Dipole moment (field-independent basis, Debye):
    X=              1.5229    Y=             -2.6986    Z=              0.1990  Tot=              3.1050
 Quadrupole moment (field-independent basis, Debye-Ang):
   XX=           -318.2749   YY=           -240.2429   ZZ=           -265.1672
   XY=             25.6603   XZ=             -4.7535   YZ=             -0.3548

 Normal termination of Gaussian 16 at Thu Jul 18 04:07:58 2019.
