 Gaussian 16, Revision A.03,
 Gaussian 16:  ES64L-G16RevA.03 25-Dec-2016

 -------------------------------------
 # td=(NStates=1) CAM-B3LYP/6-31G(d,p)
 -------------------------------------

 --
 TD
 --
 Symbolic Z-matrix:
 Charge =  0 Multiplicity = 1

                         Standard orientation:
 ---------------------------------------------------------------------
 Center     Atomic      Atomic             Coordinates (Angstroms)
 Number     Number       Type             X           Y           Z
 ---------------------------------------------------------------------
      1          8           0       14.730861   -2.346771   -0.386870
      2          8           0      -14.973837    1.799001    0.702171
      3          6           0       11.336046   -1.438652    1.028907
      4          6           0      -12.368110   -1.093844    0.519933
      5          6           0       12.756998   -1.791818    0.996706
      6          6           0      -13.711159   -0.384962    0.571464
      7          6           0       13.393612   -1.934557   -0.367122
      8          6           0      -13.633679    1.102070    0.827574
      9          6           0       10.886073   -0.336733   -0.030633
     10          6           0      -11.288108   -0.253042   -0.213722
     11          6           0       13.224578   -0.581538   -1.043212
     12          6           0      -12.786512    1.792941   -0.202000
     13          6           0       11.813809    0.073265   -0.970609
     14          6           0      -11.582426    0.997603   -0.575907
     15          6           0       10.893913   -0.864946    2.389315
     16          6           0       10.311358   -2.690234    0.618594
     17          6           0      -11.923633   -1.227381    2.070451
     18          6           0      -12.498310   -2.440038   -0.103772
     19          6           0        9.633834    0.225394    0.031300
     20          6           0       -9.956130   -0.945653   -0.469403
     21          6           0       11.695796    1.083665   -1.997834
     22          6           0      -10.600986    1.729769   -1.512881
     23          6           0        9.332114    1.549983    0.067577
     24          6           0       -8.667453   -0.496710   -0.200268
     25          6           0        8.063133    2.218425    0.169578
     26          6           0       -7.530037   -1.258951   -0.450558
     27          6           0        8.010803    3.765263    0.239155
     28          6           0       -7.749408   -2.674280   -1.042115
     29          6           0        6.826020    1.484411   -0.032580
     30          6           0       -6.337038   -0.522426   -0.404329
     31          6           0        5.573828    2.127177    0.263014
     32          6           0       -5.032028   -1.033363   -0.457252
     33          6           0        4.425866    1.280567    0.023302
     34          6           0       -3.908959   -0.295968   -0.253085
     35          6           0        3.056891    1.761503    0.299413
     36          6           0       -2.616805   -0.661733   -0.343330
     37          6           0        2.959386    3.183138    0.715230
     38          6           0       -2.219071   -2.046806   -0.834187
     39          6           0        2.060495    0.911080   -0.058777
     40          6           0       -1.581220    0.172958   -0.117120
     41          6           0        0.692007    1.069063    0.086784
     42          6           0       -0.216619    0.083566   -0.126200
     43          1           0       13.230846   -1.111336    1.692641
     44          1           0       12.945919   -2.783654    1.696917
     45          1           0      -14.285249   -0.821754    1.303737
     46          1           0      -14.161777   -0.488939   -0.420268
     47          1           0       12.761557   -2.554516   -1.177083
     48          1           0      -13.219528    1.287873    1.831175
     49          1           0       14.012692   -0.000169   -0.555080
     50          1           0       13.605911   -0.747792   -1.953445
     51          1           0      -13.375842    2.006779   -1.164560
     52          1           0      -12.244910    2.791613   -0.088574
     53          1           0       11.196002   -1.388438    3.370509
     54          1           0        9.752512   -0.830190    2.625584
     55          1           0       11.437333    0.091937    2.652296
     56          1           0       10.662277   -3.243672   -0.352474
     57          1           0       10.536522   -3.424095    1.409692
     58          1           0        9.234095   -2.407378    0.637220
     59          1           0      -11.935488   -0.264821    2.474116
     60          1           0      -11.012109   -1.773165    2.085854
     61          1           0      -12.484986   -1.915354    2.763452
     62          1           0      -13.536381   -3.108573    0.357544
     63          1           0      -11.877143   -3.136724    0.241115
     64          1           0      -12.579051   -2.455742   -1.221590
     65          1           0        8.922688   -0.489918    0.232366
     66          1           0      -10.074640   -2.086975   -0.926995
     67          1           0       10.502005    1.582334   -1.966209
     68          1           0       12.204984    1.975395   -1.764550
     69          1           0       11.926880    0.622489   -2.936345
     70          1           0      -11.278419    1.864982   -2.473852
     71          1           0       -9.870897    1.160575   -1.911422
     72          1           0      -10.239853    2.758630   -0.950092
     73          1           0       14.950744   -3.174527    0.203317
     74          1           0      -15.621791    1.543086    1.415731
     75          1           0       10.236982    2.251280   -0.086066
     76          1           0       -8.394488    0.439428    0.170287
     77          1           0        9.087841    4.429661    0.025633
     78          1           0        7.353062    4.081709   -0.397792
     79          1           0        7.660299    4.038867    1.261360
     80          1           0       -8.365130   -3.473017   -0.517947
     81          1           0       -8.128736   -2.285882   -2.100254
     82          1           0       -6.824079   -3.385649   -1.221030
     83          1           0        6.805871    0.480517   -0.305524
     84          1           0       -6.255462    0.485487   -0.021629
     85          1           0        5.345038    3.083322    0.615473
     86          1           0       -4.804148   -2.106752   -0.855505
     87          1           0        4.748747    0.343379   -0.423907
     88          1           0       -3.978653    0.867900    0.018015
     89          1           0        3.923870    3.580402    1.467111
     90          1           0        1.793803    3.312092    1.414283
     91          1           0        2.995374    3.732253   -0.376391
     92          1           0       -2.893480   -2.606572   -0.320142
     93          1           0       -2.612039   -2.206703   -1.897903
     94          1           0       -1.259662   -2.281172   -0.603672
     95          1           0        2.397318   -0.111512   -0.277503
     96          1           0       -1.770395    1.216296    0.205810
     97          1           0        0.269326    2.076953    0.418687
     98          1           0        0.094442   -0.887317   -0.512955
 ---------------------------------------------------------------------

 SCF Done:  E(RCAM-B3LYP) =  -1706.89662733     A.U. after   15 cycles

 Excitation energies and oscillator strengths:

 Excited State   1:      Singlet-A      2.1088 eV  587.94 nm  f=3.8905  <S**2>=0.000
     155 ->158        -0.16818
     156 ->157         0.68524
 This state for optimization and/or second-order correction.
 Total Energy, E(TD-HF/TD-DFT) =  -1706.81913098
 Copying the excited state density for this state as the 1-particle RhoCI density.

 The electronic state is 1-A.
 Alpha  occ. eigenvalues --  -19.22180 -19.20763 -10.31180 -10.31165 -10.31112
 Alpha  occ. eigenvalues --  -10.28708 -10.28461 -10.28071 -10.27983 -10.27922
 Alpha  occ. eigenvalues --  -10.27828 -10.27507 -10.26774 -10.26657 -10.26622
 Alpha  occ. eigenvalues --  -10.26470 -10.26418 -10.26353 -10.26346 -10.26339
 Alpha  occ. eigenvalues --  -10.26324 -10.26251 -10.26247 -10.26224 -10.26169
 Alpha  occ. eigenvalues --  -10.26156 -10.26141 -10.26018 -10.25965 -10.25844
 Alpha  occ. eigenvalues --  -10.25775 -10.25720 -10.25591 -10.25570 -10.25472
 Alpha  occ. eigenvalues --  -10.24992 -10.24983 -10.24538 -10.24092 -10.24091
 Alpha  occ. eigenvalues --  -10.23965 -10.23669  -1.08882  -1.05686  -0.93573
 Alpha  occ. eigenvalues --   -0.93444  -0.93139  -0.91782  -0.91010  -0.89648
 Alpha  occ. eigenvalues --   -0.87809  -0.87020  -0.86665  -0.85891  -0.84847
 Alpha  occ. eigenvalues --   -0.83440  -0.82236  -0.80176  -0.78952  -0.78514
 Alpha  occ. eigenvalues --   -0.76965  -0.76300  -0.76293  -0.75816  -0.75544
 Alpha  occ. eigenvalues --   -0.75443  -0.74877  -0.74141  -0.73302  -0.71057
 Alpha  occ. eigenvalues --   -0.69245  -0.67831  -0.65988  -0.65286  -0.63704
 Alpha  occ. eigenvalues --   -0.63346  -0.63025  -0.61421  -0.60807  -0.60253
 Alpha  occ. eigenvalues --   -0.59455  -0.58071  -0.58049  -0.57415  -0.56293
 Alpha  occ. eigenvalues --   -0.55932  -0.55101  -0.54684  -0.54498  -0.53689
 Alpha  occ. eigenvalues --   -0.52995  -0.52313  -0.51772  -0.51422  -0.50897
 Alpha  occ. eigenvalues --   -0.50435  -0.50319  -0.49938  -0.49769  -0.49588
 Alpha  occ. eigenvalues --   -0.49172  -0.48979  -0.48573  -0.48299  -0.48041
 Alpha  occ. eigenvalues --   -0.48023  -0.47794  -0.47384  -0.46913  -0.45989
 Alpha  occ. eigenvalues --   -0.45717  -0.45230  -0.44659  -0.44439  -0.44279
 Alpha  occ. eigenvalues --   -0.44094  -0.43780  -0.43578  -0.43245  -0.42918
 Alpha  occ. eigenvalues --   -0.42686  -0.42569  -0.42181  -0.41990  -0.41906
 Alpha  occ. eigenvalues --   -0.41511  -0.41324  -0.41152  -0.40916  -0.40794
 Alpha  occ. eigenvalues --   -0.40618  -0.40428  -0.40152  -0.39625  -0.39146
 Alpha  occ. eigenvalues --   -0.38736  -0.38565  -0.38325  -0.38123  -0.37658
 Alpha  occ. eigenvalues --   -0.37223  -0.36578  -0.36087  -0.35963  -0.35686
 Alpha  occ. eigenvalues --   -0.35329  -0.34968  -0.33484  -0.32509  -0.32193
 Alpha  occ. eigenvalues --   -0.31711  -0.29472  -0.27943  -0.26205  -0.22694
 Alpha  occ. eigenvalues --   -0.19104
 Alpha virt. eigenvalues --   -0.06013  -0.01596   0.02444   0.06310   0.08036
 Alpha virt. eigenvalues --    0.09573   0.10022   0.10815   0.11448   0.11647
 Alpha virt. eigenvalues --    0.12169   0.12298   0.12723   0.12926   0.13295

 Mulliken charges:
               1
     1  O   -0.576772
     2  O   -0.586526
     3  C    0.020695
     4  C   -0.011031
     5  C   -0.200801
     6  C   -0.167934
     7  C    0.197102
     8  C    0.152939
     9  C    0.072416
    10  C    0.060047
    11  C   -0.221795
    12  C   -0.195667
    13  C    0.046360
    14  C    0.027131
    15  C   -0.321260
    16  C   -0.317116
    17  C   -0.317961
    18  C   -0.293022
    19  C   -0.083734
    20  C   -0.175325
    21  C   -0.357951
    22  C   -0.332452
    23  C   -0.114110
    24  C   -0.055335
    25  C    0.054534
    26  C    0.114147
    27  C   -0.349270
    28  C   -0.369143
    29  C   -0.122019
    30  C   -0.146232
    31  C   -0.066678
    32  C   -0.098117
    33  C   -0.123211
    34  C   -0.103690
    35  C    0.111484
    36  C    0.130802
    37  C   -0.343690
    38  C   -0.365992
    39  C   -0.110373
    40  C   -0.135187
    41  C   -0.089874
    42  C   -0.069729
    43  H    0.112600
    44  H    0.050655
    45  H    0.097161
    46  H    0.102740
    47  H    0.056628
    48  H    0.089774
    49  H    0.106815
    50  H    0.109852
    51  H    0.122683
    52  H    0.106015
    53  H    0.084767
    54  H    0.104660
    55  H    0.108228
    56  H    0.101129
    57  H    0.099177
    58  H    0.107495
    59  H    0.107710
    60  H    0.109697
    61  H    0.087149
    62  H    0.039542
    63  H    0.119699
    64  H    0.108185
    65  H    0.068721
    66  H    0.085380
    67  H    0.073800
    68  H    0.132439
    69  H    0.116570
    70  H    0.092078
    71  H    0.129599
    72  H    0.087249
    73  H    0.318455
    74  H    0.302084
    75  H    0.078723
    76  H    0.088214
    77  H    0.082307
    78  H    0.142183
    79  H    0.119745
    80  H    0.125220
    81  H    0.128986
    82  H    0.095542
    83  H    0.091986
    84  H    0.089758
    85  H    0.077164
    86  H    0.074508
    87  H    0.084307
    88  H    0.069333
    89  H    0.102561
    90  H    0.075326
    91  H    0.130360
    92  H    0.125433
    93  H    0.115258
    94  H    0.114311
    95  H    0.086778
    96  H    0.052392
    97  H    0.079682
    98  H    0.065527
 Sum of Mulliken charges =  -0.00000

 Dipole moment (field-independent basis, Debye):
    X=              0.0769    Y=             -1.7530    Z=              1.7329  Tot=              2.4661
 Quadrupole moment (field-independent basis, Debye-Ang):
   XX=           -273.2150   YY=           -245.2902   ZZ=           -260.6694
   XY=             12.5681   XZ=              1.3468   YZ=              1.8880

 Normal termination of Gaussian 16 at Fri Jul 19 12:10:15 2019.
