 Gaussian 16, Revision A.03,
 Gaussian 16:  ES64L-G16RevA.03 25-Dec-2016

 -------------------------------------
 # td=(NStates=1) CAM-B3LYP/6-31G(d,p)
 -------------------------------------

 --
 TD
 --
 Symbolic Z-matrix:
 Charge =  0 Multiplicity = 1

                         Standard orientation:
 ---------------------------------------------------------------------
 Center     Atomic      Atomic             Coordinates (Angstroms)
 Number     Number       Type             X           Y           Z
 ---------------------------------------------------------------------
      1          8           0       14.708379   -2.337922   -0.503942
      2          8           0      -14.758197    2.016083    1.014857
      3          6           0       11.130865   -1.443296    1.083657
      4          6           0      -12.479601   -1.076047    0.593897
      5          6           0       12.673137   -1.772333    1.066240
      6          6           0      -13.765025   -0.165501    0.644151
      7          6           0       13.317096   -1.874395   -0.341572
      8          6           0      -13.507899    1.315953    0.949232
      9          6           0       10.959001   -0.218767    0.097771
     10          6           0      -11.308673   -0.312857   -0.086475
     11          6           0       13.104844   -0.624105   -1.111019
     12          6           0      -12.689779    1.881163   -0.175182
     13          6           0       11.845370    0.049715   -0.890537
     14          6           0      -11.386801    1.003193   -0.513839
     15          6           0       10.840837   -1.017807    2.521927
     16          6           0       10.356514   -2.738876    0.805556
     17          6           0      -12.033883   -1.317317    2.016067
     18          6           0      -12.832425   -2.359985   -0.118210
     19          6           0        9.678752    0.428490    0.285093
     20          6           0       -9.994730   -1.056697   -0.312242
     21          6           0       11.633796    1.304679   -1.888787
     22          6           0      -10.497567    1.858310   -1.449899
     23          6           0        9.413927    1.731556    0.187854
     24          6           0       -8.764361   -0.598976   -0.347583
     25          6           0        8.044444    2.315867    0.258784
     26          6           0       -7.485147   -1.274348   -0.495494
     27          6           0        8.025312    3.775123    0.495388
     28          6           0       -7.568836   -2.794507   -0.790093
     29          6           0        6.891795    1.570387    0.144893
     30          6           0       -6.325120   -0.538649   -0.525284
     31          6           0        5.600177    2.064757    0.193557
     32          6           0       -5.003070   -1.110533   -0.713107
     33          6           0        4.522771    1.226536   -0.014757
     34          6           0       -3.899297   -0.366953   -0.373799
     35          6           0        3.194384    1.665002   -0.047399
     36          6           0       -2.618684   -0.819241   -0.644719
     37          6           0        2.901681    3.084212    0.367184
     38          6           0       -2.369543   -2.298735   -1.079287
     39          6           0        2.102411    0.770525   -0.236909
     40          6           0       -1.559779    0.114783   -0.374393
     41          6           0        0.761586    0.884105   -0.179076
     42          6           0       -0.173843   -0.115214   -0.482518
     43          1           0       13.142622   -0.887047    1.700473
     44          1           0       12.708306   -2.731688    1.822611
     45          1           0      -14.430007   -0.776067    1.263499
     46          1           0      -14.156859   -0.209367   -0.289017
     47          1           0       12.604014   -2.737209   -0.752211
     48          1           0      -13.020040    1.488667    1.941919
     49          1           0       13.872838    0.024754   -0.863614
     50          1           0       13.311190   -0.776021   -2.198402
     51          1           0      -13.353050    2.092758   -1.115821
     52          1           0      -12.382887    2.713263    0.395025
     53          1           0       11.031817   -1.725324    3.340121
     54          1           0        9.753387   -1.125691    2.664497
     55          1           0       11.301330   -0.164036    2.774015
     56          1           0       10.659362   -3.099754   -0.176625
     57          1           0       10.543334   -3.458007    1.504991
     58          1           0        9.213376   -2.617177    0.880001
     59          1           0      -12.056325   -0.332783    2.755917
     60          1           0      -10.917179   -1.840236    1.793204
     61          1           0      -12.596532   -1.895345    2.646441
     62          1           0      -13.620001   -2.778283    0.462435
     63          1           0      -12.111315   -3.044996    0.014309
     64          1           0      -13.059655   -2.340573   -1.292174
     65          1           0        8.891297   -0.272021    0.575742
     66          1           0      -10.170739   -2.238116   -0.476694
     67          1           0       10.576657    1.416104   -2.026578
     68          1           0       11.800475    2.283289   -1.243304
     69          1           0       12.436681    1.464138   -2.633909
     70          1           0      -10.891843    2.625202   -2.298252
     71          1           0       -9.729037    1.163998   -1.785230
     72          1           0       -9.957132    2.543646   -1.011688
     73          1           0       14.753365   -3.151065   -0.191392
     74          1           0      -15.252279    1.885879    1.856448
     75          1           0       10.474651    2.321070    0.276218
     76          1           0       -8.640756    0.618224   -0.057778
     77          1           0        8.880313    4.305083    0.837835
     78          1           0        7.593631    4.461933   -0.442362
     79          1           0        7.273737    3.810188    1.510207
     80          1           0       -8.508115   -3.293675   -0.334392
     81          1           0       -8.166653   -2.889849   -1.827549
     82          1           0       -6.567371   -3.078556   -0.858167
     83          1           0        7.007134    0.591166    0.009394
     84          1           0       -6.404395    0.503729   -0.172639
     85          1           0        5.352051    3.196096    0.059421
     86          1           0       -4.891910   -2.166476   -0.938055
     87          1           0        4.730556    0.161655   -0.068028
     88          1           0       -3.896977    0.667935   -0.176032
     89          1           0        2.782371    3.230899    1.462236
     90          1           0        1.985991    3.553188    0.164737
     91          1           0        3.829655    3.855807   -0.049158
     92          1           0       -2.529413   -2.880063   -0.151005
     93          1           0       -3.082203   -2.476684   -1.820370
     94          1           0       -1.209893   -2.143789   -1.553502
     95          1           0        2.565724   -0.327554   -0.367472
     96          1           0       -1.848284    1.227857   -0.316934
     97          1           0        0.297304    2.012825    0.106744
     98          1           0        0.068386   -1.082494   -0.531834
 ---------------------------------------------------------------------

 SCF Done:  E(RCAM-B3LYP) =  -1706.88907304     A.U. after   15 cycles

 Excitation energies and oscillator strengths:

 Excited State   1:      Singlet-A      1.9991 eV  620.19 nm  f=3.6895  <S**2>=0.000
     155 ->158         0.13654
     156 ->157         0.69751
     156 <-157        -0.10548
 This state for optimization and/or second-order correction.
 Total Energy, E(TD-HF/TD-DFT) =  -1706.81560659
 Copying the excited state density for this state as the 1-particle RhoCI density.

 The electronic state is 1-A.
 Alpha  occ. eigenvalues --  -19.20887 -19.20277 -10.32136 -10.30194 -10.27967
 Alpha  occ. eigenvalues --  -10.27952 -10.27937 -10.27917 -10.27816 -10.27801
 Alpha  occ. eigenvalues --  -10.27606 -10.27548 -10.27545 -10.27385 -10.27366
 Alpha  occ. eigenvalues --  -10.27269 -10.27209 -10.27188 -10.26991 -10.26966
 Alpha  occ. eigenvalues --  -10.26894 -10.26889 -10.26854 -10.26697 -10.26564
 Alpha  occ. eigenvalues --  -10.26464 -10.26449 -10.26434 -10.26140 -10.26138
 Alpha  occ. eigenvalues --  -10.26058 -10.25856 -10.25692 -10.25440 -10.25153
 Alpha  occ. eigenvalues --  -10.25145 -10.24913 -10.24769 -10.24642 -10.24519
 Alpha  occ. eigenvalues --  -10.23709 -10.23279  -1.10186  -1.07775  -0.93920
 Alpha  occ. eigenvalues --   -0.92785  -0.92233  -0.91847  -0.90428  -0.89744
 Alpha  occ. eigenvalues --   -0.87910  -0.87686  -0.86409  -0.85879  -0.84721
 Alpha  occ. eigenvalues --   -0.83008  -0.81698  -0.80063  -0.79669  -0.78306
 Alpha  occ. eigenvalues --   -0.77226  -0.76645  -0.76400  -0.76289  -0.76044
 Alpha  occ. eigenvalues --   -0.75992  -0.75229  -0.75038  -0.73496  -0.70943
 Alpha  occ. eigenvalues --   -0.68713  -0.67260  -0.65785  -0.65301  -0.64182
 Alpha  occ. eigenvalues --   -0.63553  -0.62126  -0.61672  -0.61001  -0.60197
 Alpha  occ. eigenvalues --   -0.59075  -0.58678  -0.57831  -0.57127  -0.56357
 Alpha  occ. eigenvalues --   -0.55416  -0.55186  -0.54683  -0.54387  -0.53874
 Alpha  occ. eigenvalues --   -0.53363  -0.52793  -0.52567  -0.52127  -0.51539
 Alpha  occ. eigenvalues --   -0.50572  -0.50038  -0.49978  -0.49924  -0.49534
 Alpha  occ. eigenvalues --   -0.49103  -0.48846  -0.48380  -0.48000  -0.47820
 Alpha  occ. eigenvalues --   -0.47483  -0.47039  -0.46812  -0.46550  -0.46335
 Alpha  occ. eigenvalues --   -0.45781  -0.45600  -0.45311  -0.44848  -0.44479
 Alpha  occ. eigenvalues --   -0.44252  -0.44196  -0.43958  -0.43824  -0.43456
 Alpha  occ. eigenvalues --   -0.42960  -0.42824  -0.42464  -0.42172  -0.41839
 Alpha  occ. eigenvalues --   -0.41717  -0.41688  -0.41295  -0.41116  -0.40708
 Alpha  occ. eigenvalues --   -0.40012  -0.39552  -0.39362  -0.39228  -0.38985
 Alpha  occ. eigenvalues --   -0.38918  -0.38465  -0.38233  -0.38169  -0.37974
 Alpha  occ. eigenvalues --   -0.37100  -0.37046  -0.36935  -0.35982  -0.35827
 Alpha  occ. eigenvalues --   -0.35252  -0.34394  -0.34254  -0.32647  -0.32048
 Alpha  occ. eigenvalues --   -0.31265  -0.30262  -0.28519  -0.26375  -0.23733
 Alpha  occ. eigenvalues --   -0.18727
 Alpha virt. eigenvalues --   -0.06594  -0.00883   0.02318   0.05414   0.07489
 Alpha virt. eigenvalues --    0.09276   0.10679   0.10867   0.11106   0.11706
 Alpha virt. eigenvalues --    0.11814   0.12428   0.12903   0.13361   0.13539

 Mulliken charges:
               1
     1  O   -0.545596
     2  O   -0.577478
     3  C   -0.027446
     4  C   -0.035562
     5  C   -0.189423
     6  C   -0.167926
     7  C    0.163281
     8  C    0.153835
     9  C    0.035850
    10  C    0.085507
    11  C   -0.223363
    12  C   -0.204465
    13  C    0.062186
    14  C    0.008726
    15  C   -0.298231
    16  C   -0.301205
    17  C   -0.272422
    18  C   -0.294005
    19  C   -0.076938
    20  C   -0.142518
    21  C   -0.366036
    22  C   -0.362645
    23  C   -0.143820
    24  C   -0.090830
    25  C    0.078733
    26  C    0.113286
    27  C   -0.356290
    28  C   -0.357218
    29  C   -0.084018
    30  C   -0.127078
    31  C   -0.074735
    32  C   -0.121691
    33  C   -0.111724
    34  C   -0.068298
    35  C    0.115975
    36  C    0.059818
    37  C   -0.363352
    38  C   -0.352100
    39  C   -0.121024
    40  C   -0.132225
    41  C   -0.084551
    42  C   -0.071556
    43  H    0.076560
    44  H    0.063428
    45  H    0.071696
    46  H    0.106190
    47  H    0.057107
    48  H    0.072068
    49  H    0.139217
    50  H    0.119273
    51  H    0.116509
    52  H    0.116508
    53  H    0.096075
    54  H    0.093902
    55  H    0.116481
    56  H    0.107501
    57  H    0.116197
    58  H    0.087414
    59  H    0.078389
    60  H    0.079350
    61  H    0.106969
    62  H    0.104833
    63  H    0.106172
    64  H    0.100720
    65  H    0.087846
    66  H    0.057943
    67  H    0.144589
    68  H    0.095358
    69  H    0.114302
    70  H    0.096274
    71  H    0.118548
    72  H    0.133675
    73  H    0.294919
    74  H    0.306029
    75  H    0.092938
    76  H    0.067262
    77  H    0.123523
    78  H    0.097327
    79  H    0.092676
    80  H    0.125260
    81  H    0.104574
    82  H    0.110200
    83  H    0.068365
    84  H    0.088229
    85  H    0.085977
    86  H    0.088337
    87  H    0.084043
    88  H    0.083652
    89  H    0.126801
    90  H    0.117050
    91  H    0.074597
    92  H    0.137334
    93  H    0.134970
    94  H    0.094446
    95  H    0.061568
    96  H    0.075762
    97  H    0.066718
    98  H    0.084919
 Sum of Mulliken charges =  -0.00000

 Dipole moment (field-independent basis, Debye):
    X=              0.3181    Y=             -1.4727    Z=              1.9978  Tot=              2.5023
 Quadrupole moment (field-independent basis, Debye-Ang):
   XX=           -275.3873   YY=           -242.4831   ZZ=           -261.7879
   XY=             11.0747   XZ=             -9.1866   YZ=              0.8649

 Normal termination of Gaussian 16 at Tue Jul 16 13:08:30 2019.
