 Gaussian 16, Revision A.03,
 Gaussian 16:  ES64L-G16RevA.03 25-Dec-2016

 -------------------------------------
 # td=(NStates=1) CAM-B3LYP/6-31G(d,p)
 -------------------------------------

 --
 TD
 --
 Symbolic Z-matrix:
 Charge =  0 Multiplicity = 1

                         Standard orientation:
 ---------------------------------------------------------------------
 Center     Atomic      Atomic             Coordinates (Angstroms)
 Number     Number       Type             X           Y           Z
 ---------------------------------------------------------------------
      1          8           0       14.587376   -2.325937   -0.294980
      2          8           0      -14.763295    1.862540    0.877515
      3          6           0       11.165099   -1.350000    0.950673
      4          6           0      -12.280468   -1.038816    0.571327
      5          6           0       12.621333   -1.812277    1.002383
      6          6           0      -13.751015   -0.297389    0.593602
      7          6           0       13.165805   -1.959143   -0.374128
      8          6           0      -13.535014    1.166829    0.932740
      9          6           0       10.966291   -0.243643    0.069119
     10          6           0      -11.266783   -0.215917   -0.297513
     11          6           0       13.081794   -0.725118   -1.089801
     12          6           0      -12.645895    1.804337   -0.209802
     13          6           0       11.859345    0.009529   -0.909342
     14          6           0      -11.471793    1.097293   -0.634256
     15          6           0       10.835984   -0.948779    2.410479
     16          6           0       10.303560   -2.569279    0.625853
     17          6           0      -11.873548   -1.170861    1.935932
     18          6           0      -12.647936   -2.360261   -0.064683
     19          6           0        9.677129    0.400892    0.265902
     20          6           0      -10.062175   -0.946068   -0.622412
     21          6           0       11.681385    1.146147   -2.020780
     22          6           0      -10.557832    1.809567   -1.517578
     23          6           0        9.383558    1.714368   -0.022425
     24          6           0       -8.794698   -0.470101   -0.342387
     25          6           0        8.098531    2.315060    0.084957
     26          6           0       -7.626995   -1.269600   -0.508115
     27          6           0        8.001956    3.833406    0.283352
     28          6           0       -7.625369   -2.605942   -0.881474
     29          6           0        6.906917    1.571907   -0.048647
     30          6           0       -6.311176   -0.664541   -0.362334
     31          6           0        5.644130    2.111511    0.160230
     32          6           0       -5.040859   -1.130453   -0.569620
     33          6           0        4.514696    1.322557   -0.136139
     34          6           0       -3.927489   -0.430546   -0.268537
     35          6           0        3.201882    1.747053    0.132569
     36          6           0       -2.509355   -0.797522   -0.315290
     37          6           0        2.846666    3.140336    0.789986
     38          6           0       -2.242958   -2.266317   -0.853331
     39          6           0        2.127963    0.855738   -0.002106
     40          6           0       -1.498393    0.093528   -0.142093
     41          6           0        0.675533    0.930187    0.207854
     42          6           0       -0.176281   -0.121762   -0.160818
     43          1           0       13.012464   -0.882275    1.577038
     44          1           0       12.661184   -2.838323    1.849791
     45          1           0      -14.347839   -0.821086    1.374022
     46          1           0      -14.275481   -0.450473   -0.334977
     47          1           0       12.811548   -2.881065   -0.872819
     48          1           0      -13.022126    1.446325    2.038173
     49          1           0       14.028013   -0.099954   -0.841348
     50          1           0       13.100889   -0.761792   -2.128797
     51          1           0      -13.265461    1.814461   -1.106955
     52          1           0      -12.230722    2.937952   -0.125548
     53          1           0       10.854403   -1.831020    3.189303
     54          1           0        9.743649   -0.781574    2.697084
     55          1           0       11.479488   -0.135298    2.885775
     56          1           0       10.618224   -3.027797   -0.289237
     57          1           0       10.633413   -3.359008    1.370336
     58          1           0        9.235104   -2.399214    0.699017
     59          1           0      -11.294640   -0.313593    2.394781
     60          1           0      -11.017823   -1.986549    1.970093
     61          1           0      -12.515444   -1.624176    2.659347
     62          1           0      -13.569405   -2.948835    0.337689
     63          1           0      -11.620913   -2.970633   -0.190140
     64          1           0      -12.768548   -2.273927   -1.157125
     65          1           0        8.966448   -0.333749    0.703163
     66          1           0      -10.220700   -1.980120   -1.026277
     67          1           0       10.645706    1.443014   -2.252985
     68          1           0       12.195761    2.138339   -1.632328
     69          1           0       12.177018    0.878490   -2.938843
     70          1           0      -11.110291    2.464940   -2.193307
     71          1           0       -9.738983    1.232109   -2.027560
     72          1           0      -10.040377    2.505448   -0.785459
     73          1           0       14.527830   -3.207356    0.140993
     74          1           0      -15.569761    1.656128    1.315018
     75          1           0        9.943678    2.541805   -0.232768
     76          1           0       -8.974540    0.526821    0.069829
     77          1           0        9.084107    4.220022    0.384759
     78          1           0        7.327967    4.279695   -0.667333
     79          1           0        7.378939    3.992510    1.197347
     80          1           0       -8.054957   -3.083759   -0.072204
     81          1           0       -8.034802   -2.961906   -1.756496
     82          1           0       -6.827316   -3.280636   -0.980671
     83          1           0        7.051214    0.679673   -0.879415
     84          1           0       -6.462999    0.461898   -0.078856
     85          1           0        5.440588    2.905141    0.980804
     86          1           0       -5.008803   -2.178973   -0.717809
     87          1           0        4.622222    0.232416   -0.548001
     88          1           0       -4.080076    0.601847   -0.128261
     89          1           0        3.054525    3.204541    1.944426
     90          1           0        1.801425    3.468223    0.543549
     91          1           0        3.234882    3.827964    0.293114
     92          1           0       -2.834879   -3.265502   -0.311306
     93          1           0       -2.614938   -2.307286   -1.884648
     94          1           0       -1.350028   -2.535262   -0.863619
     95          1           0        2.509007   -0.167329   -0.317004
     96          1           0       -1.927800    1.138145    0.308554
     97          1           0        0.172863    1.841685    0.231135
     98          1           0        0.393299   -1.099396   -0.453402
 ---------------------------------------------------------------------

 SCF Done:  E(RCAM-B3LYP) =  -1706.89605786     A.U. after   15 cycles

 Excitation energies and oscillator strengths:

 Excited State   1:      Singlet-A      1.9892 eV  623.28 nm  f=3.7283  <S**2>=0.000
     155 ->158        -0.16576
     156 ->157         0.68703
 This state for optimization and/or second-order correction.
 Total Energy, E(TD-HF/TD-DFT) =  -1706.82295534
 Copying the excited state density for this state as the 1-particle RhoCI density.

 The electronic state is 1-A.
 Alpha  occ. eigenvalues --  -19.20230 -19.19657 -10.32827 -10.30327 -10.27999
 Alpha  occ. eigenvalues --  -10.27683 -10.27602 -10.27444 -10.27311 -10.27303
 Alpha  occ. eigenvalues --  -10.27208 -10.27095 -10.26933 -10.26843 -10.26830
 Alpha  occ. eigenvalues --  -10.26635 -10.26541 -10.26535 -10.26497 -10.26445
 Alpha  occ. eigenvalues --  -10.26184 -10.26177 -10.26106 -10.26077 -10.26048
 Alpha  occ. eigenvalues --  -10.26046 -10.25900 -10.25891 -10.25869 -10.25657
 Alpha  occ. eigenvalues --  -10.25643 -10.25344 -10.25301 -10.25288 -10.25246
 Alpha  occ. eigenvalues --  -10.25060 -10.25046 -10.24957 -10.24791 -10.24739
 Alpha  occ. eigenvalues --  -10.24383 -10.23035  -1.08604  -1.07899  -0.95685
 Alpha  occ. eigenvalues --   -0.93828  -0.92079  -0.91316  -0.90807  -0.89363
 Alpha  occ. eigenvalues --   -0.88376  -0.88178  -0.87593  -0.85461  -0.84784
 Alpha  occ. eigenvalues --   -0.83518  -0.82088  -0.80768  -0.79215  -0.78105
 Alpha  occ. eigenvalues --   -0.77100  -0.76716  -0.76231  -0.76123  -0.75823
 Alpha  occ. eigenvalues --   -0.75565  -0.75149  -0.74742  -0.72798  -0.70742
 Alpha  occ. eigenvalues --   -0.69938  -0.68195  -0.66003  -0.65490  -0.64654
 Alpha  occ. eigenvalues --   -0.63493  -0.62705  -0.61743  -0.60992  -0.60489
 Alpha  occ. eigenvalues --   -0.58903  -0.58477  -0.57436  -0.56936  -0.56061
 Alpha  occ. eigenvalues --   -0.55626  -0.55101  -0.55062  -0.54275  -0.53353
 Alpha  occ. eigenvalues --   -0.52704  -0.52550  -0.51939  -0.51347  -0.50825
 Alpha  occ. eigenvalues --   -0.50617  -0.50511  -0.49780  -0.49719  -0.49211
 Alpha  occ. eigenvalues --   -0.49126  -0.49036  -0.48447  -0.48222  -0.47987
 Alpha  occ. eigenvalues --   -0.47337  -0.46771  -0.46708  -0.46693  -0.46325
 Alpha  occ. eigenvalues --   -0.46005  -0.45905  -0.45578  -0.45028  -0.44976
 Alpha  occ. eigenvalues --   -0.44209  -0.44077  -0.43687  -0.43015  -0.42968
 Alpha  occ. eigenvalues --   -0.42914  -0.42365  -0.42256  -0.42030  -0.41749
 Alpha  occ. eigenvalues --   -0.41657  -0.41274  -0.40714  -0.40473  -0.40433
 Alpha  occ. eigenvalues --   -0.40099  -0.39973  -0.39668  -0.39162  -0.38838
 Alpha  occ. eigenvalues --   -0.38689  -0.38612  -0.38527  -0.38502  -0.38207
 Alpha  occ. eigenvalues --   -0.37692  -0.37502  -0.36993  -0.36507  -0.35819
 Alpha  occ. eigenvalues --   -0.35067  -0.34399  -0.33553  -0.32405  -0.31712
 Alpha  occ. eigenvalues --   -0.30790  -0.29207  -0.27886  -0.25982  -0.22208
 Alpha  occ. eigenvalues --   -0.18731
 Alpha virt. eigenvalues --   -0.06205  -0.01809   0.02197   0.05723   0.07746
 Alpha virt. eigenvalues --    0.09742   0.10516   0.11469   0.12083   0.12171
 Alpha virt. eigenvalues --    0.12467   0.12619   0.13083   0.13140   0.13575

 Mulliken charges:
               1
     1  O   -0.576553
     2  O   -0.585143
     3  C   -0.076550
     4  C    0.007006
     5  C   -0.176615
     6  C   -0.197943
     7  C    0.168506
     8  C    0.207209
     9  C    0.144984
    10  C    0.015891
    11  C   -0.211041
    12  C   -0.222715
    13  C    0.019913
    14  C    0.095752
    15  C   -0.309449
    16  C   -0.289590
    17  C   -0.290543
    18  C   -0.313865
    19  C   -0.115381
    20  C   -0.135702
    21  C   -0.358805
    22  C   -0.372696
    23  C   -0.071473
    24  C   -0.102077
    25  C    0.033523
    26  C    0.113056
    27  C   -0.347906
    28  C   -0.402314
    29  C   -0.116906
    30  C   -0.136948
    31  C   -0.109955
    32  C   -0.050805
    33  C   -0.115800
    34  C   -0.116615
    35  C    0.092953
    36  C    0.096381
    37  C   -0.355194
    38  C   -0.339837
    39  C   -0.138344
    40  C   -0.134388
    41  C   -0.089805
    42  C   -0.058443
    43  H    0.102415
    44  H    0.049118
    45  H    0.083084
    46  H    0.107236
    47  H    0.091734
    48  H    0.061199
    49  H    0.130711
    50  H    0.117150
    51  H    0.128830
    52  H    0.084408
    53  H    0.079214
    54  H    0.098231
    55  H    0.105309
    56  H    0.104598
    57  H    0.091160
    58  H    0.106496
    59  H    0.107065
    60  H    0.077422
    61  H    0.107941
    62  H    0.100338
    63  H    0.072638
    64  H    0.110206
    65  H    0.099726
    66  H    0.081974
    67  H    0.125055
    68  H    0.102995
    69  H    0.105772
    70  H    0.111540
    71  H    0.132211
    72  H    0.109345
    73  H    0.298591
    74  H    0.305003
    75  H    0.072699
    76  H    0.099274
    77  H    0.098102
    78  H    0.107547
    79  H    0.127488
    80  H    0.130654
    81  H    0.124933
    82  H    0.116905
    83  H    0.078899
    84  H    0.057842
    85  H    0.098007
    86  H    0.079544
    87  H    0.087931
    88  H    0.074348
    89  H    0.113587
    90  H    0.099325
    91  H    0.128733
    92  H    0.073426
    93  H    0.125119
    94  H    0.110062
    95  H    0.062881
    96  H    0.081899
    97  H    0.089094
    98  H    0.097214
 Sum of Mulliken charges =  -0.00000

 Dipole moment (field-independent basis, Debye):
    X=             -2.3863    Y=             -1.6483    Z=              0.3032  Tot=              2.9160
 Quadrupole moment (field-independent basis, Debye-Ang):
   XX=           -261.2104   YY=           -243.3645   ZZ=           -260.1597
   XY=             10.8082   XZ=             -4.1023   YZ=              2.7861

 Normal termination of Gaussian 16 at Tue Jul  9 22:32:16 2019.
