 Gaussian 16, Revision A.03,
 Gaussian 16:  ES64L-G16RevA.03 25-Dec-2016

 -------------------------------------
 # td=(NStates=1) CAM-B3LYP/6-31G(d,p)
 -------------------------------------

 --
 TD
 --
 Symbolic Z-matrix:
 Charge =  0 Multiplicity = 1

                         Standard orientation:
 ---------------------------------------------------------------------
 Center     Atomic      Atomic             Coordinates (Angstroms)
 Number     Number       Type             X           Y           Z
 ---------------------------------------------------------------------
      1          8           0       14.592043   -2.388971    0.086459
      2          8           0      -14.501579    1.953352    1.184799
      3          6           0       10.995701   -1.573612    1.020833
      4          6           0      -12.275810   -1.050044    0.779706
      5          6           0       12.431053   -1.935629    1.144860
      6          6           0      -13.531773   -0.213271    0.781894
      7          6           0       13.231535   -2.025750   -0.113185
      8          6           0      -13.262458    1.179782    1.092213
      9          6           0       10.819343   -0.280167    0.182801
     10          6           0      -11.180605   -0.280615    0.035136
     11          6           0       13.138245   -0.674772   -0.810727
     12          6           0      -12.470508    1.869648    0.003391
     13          6           0       11.811178    0.011543   -0.831149
     14          6           0      -11.330623    0.900824   -0.507619
     15          6           0       10.447467   -1.272844    2.474327
     16          6           0       10.108480   -2.701723    0.479082
     17          6           0      -11.805691   -1.446890    2.223519
     18          6           0      -12.630894   -2.483902    0.122438
     19          6           0        9.585417    0.393475    0.153223
     20          6           0      -10.016085   -1.054361   -0.267382
     21          6           0       11.805788    1.190286   -1.690858
     22          6           0      -10.564195    1.566925   -1.483288
     23          6           0        9.328810    1.718477    0.238654
     24          6           0       -8.731730   -0.493257   -0.331092
     25          6           0        7.966661    2.335333    0.285573
     26          6           0       -7.502338   -1.253554   -0.628933
     27          6           0        7.954509    3.827216    0.926780
     28          6           0       -7.576883   -2.728317   -1.060857
     29          6           0        6.918256    1.575091   -0.050021
     30          6           0       -6.272628   -0.624478   -0.452922
     31          6           0        5.587113    2.158057    0.060245
     32          6           0       -5.043544   -1.070409   -0.776021
     33          6           0        4.452849    1.412030   -0.299511
     34          6           0       -3.850109   -0.290180   -0.668012
     35          6           0        3.063079    1.872102   -0.171162
     36          6           0       -2.602434   -0.639061   -0.949388
     37          6           0        2.811030    3.242348    0.439802
     38          6           0       -2.134803   -2.014695   -1.345835
     39          6           0        2.023674    0.930460   -0.497619
     40          6           0       -1.613255    0.337795   -0.699449
     41          6           0        0.701580    1.094698   -0.373776
     42          6           0       -0.210606    0.036440   -0.795049
     43          1           0       12.939797   -1.280498    1.804348
     44          1           0       12.548425   -2.877610    1.603440
     45          1           0      -14.111514   -0.601684    1.577037
     46          1           0      -14.021633   -0.400970   -0.246950
     47          1           0       12.528213   -2.614950   -0.765849
     48          1           0      -12.937457    1.193448    2.176425
     49          1           0       13.722723    0.042667   -0.201027
     50          1           0       13.586244   -0.767217   -1.822008
     51          1           0      -13.195757    2.093105   -0.787850
     52          1           0      -12.020034    2.838141    0.184097
     53          1           0       10.703385   -2.017407    3.193868
     54          1           0        9.378473   -1.074811    2.443912
     55          1           0       10.787670   -0.375026    2.866589
     56          1           0       10.381901   -3.084145   -0.525005
     57          1           0       10.226106   -3.572747    1.054417
     58          1           0        9.131019   -2.509831    0.399901
     59          1           0      -11.376883   -0.479347    2.578458
     60          1           0      -10.943872   -1.944799    2.140446
     61          1           0      -12.687628   -1.996879    2.705758
     62          1           0      -13.473302   -2.986104    0.525978
     63          1           0      -11.759497   -2.989508    0.435533
     64          1           0      -12.893830   -2.335039   -0.688724
     65          1           0        8.715464   -0.225632    0.233576
     66          1           0       -9.859703   -2.092497   -0.419412
     67          1           0       10.683905    1.800512   -1.821817
     68          1           0       12.453063    2.158279   -1.551742
     69          1           0       12.079479    0.847285   -2.683560
     70          1           0      -11.304662    2.155442   -2.112718
     71          1           0       -9.703952    0.956724   -1.975873
     72          1           0      -10.129401    2.227974   -0.959483
     73          1           0       14.408163   -3.254186    0.555844
     74          1           0      -15.013653    1.933046    2.017248
     75          1           0       10.070126    2.346408   -0.016205
     76          1           0       -8.647308    0.510090    0.097994
     77          1           0        8.925375    4.479204    0.814378
     78          1           0        7.101930    4.401963    0.349521
     79          1           0        7.542323    3.784932    1.972947
     80          1           0       -8.247510   -3.173143   -0.292513
     81          1           0       -8.268698   -2.540298   -2.083933
     82          1           0       -6.651347   -3.270526   -0.919551
     83          1           0        6.990664    0.573423   -0.420102
     84          1           0       -6.246193    0.315822   -0.074937
     85          1           0        5.580034    3.209490    0.503188
     86          1           0       -4.850225   -2.155304   -1.109259
     87          1           0        4.590460    0.483911   -0.698382
     88          1           0       -3.984015    0.797901   -0.194240
     89          1           0        3.038994    3.193535    1.609658
     90          1           0        1.768718    3.482785   -0.067266
     91          1           0        3.570766    4.072500   -0.091861
     92          1           0       -2.440760   -2.837500   -0.758345
     93          1           0       -2.734814   -2.304519   -2.261599
     94          1           0       -1.166268   -2.147806   -1.670008
     95          1           0        2.440965   -0.062663   -1.153864
     96          1           0       -1.928075    1.143656   -0.438716
     97          1           0        0.211416    1.975394    0.039450
     98          1           0        0.319702   -0.830050   -1.085007
 ---------------------------------------------------------------------

 SCF Done:  E(RCAM-B3LYP) =  -1706.88309424     A.U. after   15 cycles

 Excitation energies and oscillator strengths:

 Excited State   1:      Singlet-A      1.8891 eV  656.31 nm  f=3.7408  <S**2>=0.000
     155 ->158        -0.12679
     156 ->157         0.70219
     156 <-157        -0.12437
 This state for optimization and/or second-order correction.
 Total Energy, E(TD-HF/TD-DFT) =  -1706.81367054
 Copying the excited state density for this state as the 1-particle RhoCI density.

 The electronic state is 1-A.
 Alpha  occ. eigenvalues --  -19.23080 -19.19300 -10.30255 -10.30179 -10.28727
 Alpha  occ. eigenvalues --  -10.28470 -10.27904 -10.27841 -10.27659 -10.27612
 Alpha  occ. eigenvalues --  -10.27498 -10.27452 -10.27443 -10.26814 -10.26741
 Alpha  occ. eigenvalues --  -10.26716 -10.26650 -10.26550 -10.26460 -10.26364
 Alpha  occ. eigenvalues --  -10.26346 -10.26210 -10.26124 -10.25900 -10.25632
 Alpha  occ. eigenvalues --  -10.25419 -10.25372 -10.25352 -10.25043 -10.25038
 Alpha  occ. eigenvalues --  -10.24834 -10.24832 -10.24740 -10.24647 -10.24450
 Alpha  occ. eigenvalues --  -10.24080 -10.23847 -10.23786 -10.23697 -10.23538
 Alpha  occ. eigenvalues --  -10.23533 -10.21666  -1.10348  -1.06614  -0.94423
 Alpha  occ. eigenvalues --   -0.93828  -0.92490  -0.90845  -0.90316  -0.89468
 Alpha  occ. eigenvalues --   -0.88495  -0.87449  -0.86708  -0.85885  -0.84833
 Alpha  occ. eigenvalues --   -0.83175  -0.81791  -0.80791  -0.79845  -0.78544
 Alpha  occ. eigenvalues --   -0.77601  -0.77427  -0.77076  -0.76679  -0.76079
 Alpha  occ. eigenvalues --   -0.75963  -0.75585  -0.74887  -0.72888  -0.70423
 Alpha  occ. eigenvalues --   -0.68682  -0.67116  -0.66248  -0.64793  -0.64488
 Alpha  occ. eigenvalues --   -0.64324  -0.62944  -0.62120  -0.60152  -0.59888
 Alpha  occ. eigenvalues --   -0.59244  -0.59109  -0.58553  -0.57830  -0.57015
 Alpha  occ. eigenvalues --   -0.55921  -0.55409  -0.55366  -0.54497  -0.53859
 Alpha  occ. eigenvalues --   -0.53649  -0.53210  -0.52601  -0.52073  -0.51960
 Alpha  occ. eigenvalues --   -0.50740  -0.50521  -0.50030  -0.49598  -0.48876
 Alpha  occ. eigenvalues --   -0.48747  -0.48554  -0.48337  -0.47978  -0.47845
 Alpha  occ. eigenvalues --   -0.47657  -0.47385  -0.47118  -0.46702  -0.46598
 Alpha  occ. eigenvalues --   -0.46461  -0.46165  -0.45971  -0.45868  -0.45151
 Alpha  occ. eigenvalues --   -0.45030  -0.44579  -0.44193  -0.43809  -0.43664
 Alpha  occ. eigenvalues --   -0.43102  -0.42924  -0.42798  -0.42684  -0.42541
 Alpha  occ. eigenvalues --   -0.42438  -0.42081  -0.41681  -0.41436  -0.41063
 Alpha  occ. eigenvalues --   -0.40482  -0.40285  -0.40152  -0.39560  -0.39230
 Alpha  occ. eigenvalues --   -0.39166  -0.38611  -0.38324  -0.38098  -0.37685
 Alpha  occ. eigenvalues --   -0.37561  -0.37173  -0.36900  -0.36279  -0.35501
 Alpha  occ. eigenvalues --   -0.35214  -0.34767  -0.33567  -0.32706  -0.32380
 Alpha  occ. eigenvalues --   -0.31154  -0.29616  -0.27739  -0.25462  -0.23114
 Alpha  occ. eigenvalues --   -0.17795
 Alpha virt. eigenvalues --   -0.06570  -0.00639   0.02158   0.05433   0.07422
 Alpha virt. eigenvalues --    0.10012   0.11102   0.11803   0.11933   0.12017
 Alpha virt. eigenvalues --    0.12424   0.12526   0.13206   0.13522   0.13722

 Mulliken charges:
               1
     1  O   -0.542620
     2  O   -0.599443
     3  C   -0.022910
     4  C   -0.070406
     5  C   -0.183677
     6  C   -0.151677
     7  C    0.148478
     8  C    0.171528
     9  C    0.050563
    10  C    0.086814
    11  C   -0.213183
    12  C   -0.223205
    13  C    0.056488
    14  C    0.046940
    15  C   -0.314663
    16  C   -0.303093
    17  C   -0.297790
    18  C   -0.257820
    19  C   -0.106927
    20  C   -0.138096
    21  C   -0.357150
    22  C   -0.355751
    23  C   -0.098755
    24  C   -0.126972
    25  C    0.053329
    26  C    0.061328
    27  C   -0.366351
    28  C   -0.359225
    29  C   -0.085910
    30  C   -0.087050
    31  C   -0.100185
    32  C   -0.097668
    33  C   -0.102530
    34  C   -0.150715
    35  C    0.077195
    36  C    0.154844
    37  C   -0.352436
    38  C   -0.384291
    39  C   -0.118514
    40  C   -0.075347
    41  C   -0.081566
    42  C   -0.093380
    43  H    0.107573
    44  H    0.069648
    45  H    0.079399
    46  H    0.087729
    47  H    0.073947
    48  H    0.077311
    49  H    0.121392
    50  H    0.101081
    51  H    0.126811
    52  H    0.112424
    53  H    0.100190
    54  H    0.102573
    55  H    0.113871
    56  H    0.094615
    57  H    0.103310
    58  H    0.113495
    59  H    0.093612
    60  H    0.112905
    61  H    0.098828
    62  H    0.092328
    63  H    0.102531
    64  H    0.092957
    65  H    0.075752
    66  H    0.077583
    67  H    0.081404
    68  H    0.113509
    69  H    0.112360
    70  H    0.101743
    71  H    0.115899
    72  H    0.136444
    73  H    0.312166
    74  H    0.300332
    75  H    0.076131
    76  H    0.087320
    77  H    0.114139
    78  H    0.104953
    79  H    0.133978
    80  H    0.121712
    81  H    0.117449
    82  H    0.122494
    83  H    0.093426
    84  H    0.067662
    85  H    0.078858
    86  H    0.069513
    87  H    0.070432
    88  H    0.071089
    89  H    0.127587
    90  H    0.109885
    91  H    0.095841
    92  H    0.128666
    93  H    0.105126
    94  H    0.120689
    95  H    0.065769
    96  H    0.040334
    97  H    0.091325
    98  H    0.091701
 Sum of Mulliken charges =  -0.00000

 Dipole moment (field-independent basis, Debye):
    X=             -0.2931    Y=             -1.4316    Z=              1.8699  Tot=              2.3731
 Quadrupole moment (field-independent basis, Debye-Ang):
   XX=           -286.6113   YY=           -240.7215   ZZ=           -259.8445
   XY=              3.7587   XZ=             -8.0719   YZ=              2.5812

 Normal termination of Gaussian 16 at Tue Jul 16 00:46:14 2019.
