 Gaussian 16, Revision A.03,
 Gaussian 16:  ES64L-G16RevA.03 25-Dec-2016

 -------------------------------------
 # td=(NStates=1) CAM-B3LYP/6-31G(d,p)
 -------------------------------------

 --
 TD
 --
 Symbolic Z-matrix:
 Charge =  0 Multiplicity = 1

                         Standard orientation:
 ---------------------------------------------------------------------
 Center     Atomic      Atomic             Coordinates (Angstroms)
 Number     Number       Type             X           Y           Z
 ---------------------------------------------------------------------
      1          8           0       14.789483   -2.205066   -0.168548
      2          8           0      -14.721433    2.024542    0.867479
      3          6           0       11.154426   -1.509835    0.827799
      4          6           0      -12.331987   -0.926802    0.698414
      5          6           0       12.585875   -1.929125    0.918971
      6          6           0      -13.571281   -0.157287    0.750931
      7          6           0       13.390217   -1.940337   -0.351861
      8          6           0      -13.468039    1.324687    0.868587
      9          6           0       10.934328   -0.174841    0.029079
     10          6           0      -11.365314   -0.348145   -0.296267
     11          6           0       13.310335   -0.532601   -0.964243
     12          6           0      -12.705898    1.858772   -0.354573
     13          6           0       11.927363    0.084222   -0.777587
     14          6           0      -11.504281    0.911743   -0.790465
     15          6           0       10.589667   -1.191933    2.292152
     16          6           0       10.311716   -2.795114    0.291386
     17          6           0      -11.714023   -1.093681    2.079352
     18          6           0      -12.622871   -2.357207    0.136366
     19          6           0        9.627206    0.442113    0.114378
     20          6           0      -10.062672   -1.063041   -0.543685
     21          6           0       11.826593    1.241915   -1.874587
     22          6           0      -10.647328    1.525939   -1.849957
     23          6           0        9.393150    1.764183    0.201681
     24          6           0       -8.849721   -0.584953   -0.529374
     25          6           0        8.110332    2.313403    0.160612
     26          6           0       -7.592846   -1.341445   -0.619283
     27          6           0        7.981289    3.825165    0.500060
     28          6           0       -7.640053   -2.810265   -0.959921
     29          6           0        6.923460    1.592767    0.022799
     30          6           0       -6.437653   -0.641434   -0.433381
     31          6           0        5.596356    2.118525    0.178585
     32          6           0       -5.046418   -1.114415   -0.403792
     33          6           0        4.401796    1.318995   -0.011231
     34          6           0       -3.936121   -0.304196   -0.216575
     35          6           0        3.130403    1.733162    0.117950
     36          6           0       -2.530223   -0.771072   -0.228900
     37          6           0        2.883314    3.131091    0.593531
     38          6           0       -2.357539   -2.251299   -0.668369
     39          6           0        2.024526    0.809968   -0.064418
     40          6           0       -1.624079    0.214026   -0.123271
     41          6           0        0.688074    0.978115    0.044857
     42          6           0       -0.229921   -0.013007   -0.201238
     43          1           0       13.153037   -1.290186    1.554459
     44          1           0       12.782099   -2.971655    1.114138
     45          1           0      -14.038890   -0.486582    1.529456
     46          1           0      -14.205317   -0.442878   -0.015164
     47          1           0       12.691466   -2.551911   -1.145440
     48          1           0      -12.696995    1.494581    1.697751
     49          1           0       14.139679    0.163557   -0.471890
     50          1           0       13.834136   -0.601427   -1.880385
     51          1           0      -13.503692    1.686378   -1.078277
     52          1           0      -12.535659    2.938921   -0.165630
     53          1           0       10.884699   -1.946712    2.782182
     54          1           0        9.460754   -1.070685    2.218358
     55          1           0       11.013940   -0.160958    2.762080
     56          1           0       10.790726   -3.298339   -0.764556
     57          1           0       10.165801   -3.646363    1.139030
     58          1           0        9.272108   -2.342524    0.107560
     59          1           0      -11.668902   -0.141573    2.571868
     60          1           0      -10.857669   -1.855736    2.062178
     61          1           0      -12.457637   -1.606782    2.652528
     62          1           0      -13.275194   -2.754668    0.826558
     63          1           0      -11.694480   -2.892706    0.327563
     64          1           0      -12.869033   -2.458060   -0.930034
     65          1           0        8.740905   -0.162311    0.392119
     66          1           0      -10.327831   -2.085081   -0.848732
     67          1           0       10.744573    1.406339   -2.214023
     68          1           0       12.211798    2.096481   -1.419387
     69          1           0       12.401486    1.188786   -2.884522
     70          1           0      -11.340805    2.136668   -2.520796
     71          1           0      -10.059869    0.820342   -2.407841
     72          1           0       -9.979105    2.433517   -1.417630
     73          1           0       14.684003   -3.239938    0.001718
     74          1           0      -15.368620    1.567416    1.491109
     75          1           0       10.199205    2.421031    0.160495
     76          1           0       -8.630198    0.396678   -0.255397
     77          1           0        8.885971    4.337176    0.723820
     78          1           0        7.207085    4.519200   -0.033755
     79          1           0        7.584198    3.906545    1.560864
     80          1           0       -8.019908   -3.557712   -0.130438
     81          1           0       -8.227087   -2.850012   -1.816661
     82          1           0       -6.631210   -3.237666   -0.955875
     83          1           0        6.975373    0.609506   -0.262241
     84          1           0       -6.605044    0.382357   -0.377741
     85          1           0        5.567168    3.072584    0.450945
     86          1           0       -5.048642   -2.126654   -0.517409
     87          1           0        4.661256    0.382063   -0.557194
     88          1           0       -4.151415    0.684675   -0.049756
     89          1           0        2.916118    3.218138    1.581853
     90          1           0        1.843903    3.469384    0.323774
     91          1           0        3.388504    3.870316    0.192324
     92          1           0       -2.663864   -2.921208    0.280433
     93          1           0       -2.843594   -2.640317   -1.725071
     94          1           0       -1.304390   -2.420883   -0.481078
     95          1           0        2.379033   -0.214708   -0.294708
     96          1           0       -1.946744    1.225746    0.308705
     97          1           0        0.234439    1.914384    0.187325
     98          1           0        0.280982   -0.942863   -0.358088
 ---------------------------------------------------------------------

 SCF Done:  E(RCAM-B3LYP) =  -1706.97638921     A.U. after   15 cycles

 Excitation energies and oscillator strengths:

 Excited State   1:      Singlet-A      2.0613 eV  601.47 nm  f=3.3994  <S**2>=0.000
     155 ->158         0.12760
     156 ->157         0.69849
     156 <-157        -0.11020
 This state for optimization and/or second-order correction.
 Total Energy, E(TD-HF/TD-DFT) =  -1706.90063601
 Copying the excited state density for this state as the 1-particle RhoCI density.

 The electronic state is 1-A.
 Alpha  occ. eigenvalues --  -19.23746 -19.22298 -10.31023 -10.30178 -10.28557
 Alpha  occ. eigenvalues --  -10.28247 -10.28141 -10.27847 -10.27430 -10.27295
 Alpha  occ. eigenvalues --  -10.27209 -10.26925 -10.26830 -10.26425 -10.26375
 Alpha  occ. eigenvalues --  -10.26374 -10.26301 -10.26216 -10.26179 -10.26080
 Alpha  occ. eigenvalues --  -10.25996 -10.25880 -10.25826 -10.25631 -10.25595
 Alpha  occ. eigenvalues --  -10.25467 -10.25437 -10.25295 -10.25258 -10.25250
 Alpha  occ. eigenvalues --  -10.25203 -10.25140 -10.24975 -10.24932 -10.24864
 Alpha  occ. eigenvalues --  -10.24667 -10.24553 -10.24528 -10.23983 -10.23951
 Alpha  occ. eigenvalues --  -10.23327 -10.22197  -1.09326  -1.08622  -0.94279
 Alpha  occ. eigenvalues --   -0.93609  -0.92342  -0.91434  -0.90872  -0.90230
 Alpha  occ. eigenvalues --   -0.87714  -0.86683  -0.85967  -0.85234  -0.84904
 Alpha  occ. eigenvalues --   -0.83109  -0.82223  -0.80148  -0.79663  -0.78567
 Alpha  occ. eigenvalues --   -0.76981  -0.76806  -0.76483  -0.76435  -0.76300
 Alpha  occ. eigenvalues --   -0.75361  -0.75255  -0.74049  -0.73708  -0.71228
 Alpha  occ. eigenvalues --   -0.69189  -0.67475  -0.65689  -0.64515  -0.64008
 Alpha  occ. eigenvalues --   -0.63529  -0.62991  -0.62792  -0.61807  -0.60748
 Alpha  occ. eigenvalues --   -0.59684  -0.58533  -0.58457  -0.58083  -0.56431
 Alpha  occ. eigenvalues --   -0.56012  -0.55798  -0.55348  -0.54443  -0.53948
 Alpha  occ. eigenvalues --   -0.53196  -0.52807  -0.52541  -0.51387  -0.51287
 Alpha  occ. eigenvalues --   -0.50966  -0.50343  -0.50281  -0.49463  -0.49318
 Alpha  occ. eigenvalues --   -0.49205  -0.48165  -0.48038  -0.47924  -0.47874
 Alpha  occ. eigenvalues --   -0.47606  -0.47078  -0.46612  -0.46270  -0.46231
 Alpha  occ. eigenvalues --   -0.45909  -0.45802  -0.45427  -0.44856  -0.44754
 Alpha  occ. eigenvalues --   -0.44569  -0.44204  -0.44018  -0.43759  -0.43520
 Alpha  occ. eigenvalues --   -0.43039  -0.42841  -0.42597  -0.42183  -0.42109
 Alpha  occ. eigenvalues --   -0.42025  -0.41775  -0.41623  -0.41002  -0.40920
 Alpha  occ. eigenvalues --   -0.40632  -0.40441  -0.40142  -0.39895  -0.39812
 Alpha  occ. eigenvalues --   -0.39627  -0.39566  -0.38936  -0.38246  -0.38103
 Alpha  occ. eigenvalues --   -0.37998  -0.37606  -0.36668  -0.36524  -0.36208
 Alpha  occ. eigenvalues --   -0.35325  -0.34457  -0.33925  -0.32686  -0.32353
 Alpha  occ. eigenvalues --   -0.31645  -0.30136  -0.27910  -0.26430  -0.23726
 Alpha  occ. eigenvalues --   -0.18881
 Alpha virt. eigenvalues --   -0.06397  -0.00628   0.02542   0.06177   0.08375
 Alpha virt. eigenvalues --    0.09629   0.10175   0.11381   0.12067   0.12222
 Alpha virt. eigenvalues --    0.12585   0.13197   0.13501   0.13987   0.14131

 Mulliken charges:
               1
     1  O   -0.540746
     2  O   -0.566486
     3  C   -0.036094
     4  C   -0.043515
     5  C   -0.148466
     6  C   -0.168245
     7  C    0.123019
     8  C    0.163288
     9  C    0.103554
    10  C    0.078975
    11  C   -0.212452
    12  C   -0.222877
    13  C    0.024350
    14  C    0.034586
    15  C   -0.281656
    16  C   -0.293517
    17  C   -0.301103
    18  C   -0.313460
    19  C   -0.127644
    20  C   -0.155169
    21  C   -0.374138
    22  C   -0.353882
    23  C   -0.083163
    24  C   -0.070339
    25  C    0.101115
    26  C    0.106382
    27  C   -0.394946
    28  C   -0.363869
    29  C   -0.120100
    30  C   -0.138907
    31  C   -0.068981
    32  C   -0.072193
    33  C   -0.135101
    34  C   -0.100823
    35  C    0.110000
    36  C    0.100132
    37  C   -0.373836
    38  C   -0.358557
    39  C   -0.139153
    40  C   -0.125569
    41  C   -0.055512
    42  C   -0.082866
    43  H    0.108754
    44  H    0.068651
    45  H    0.076807
    46  H    0.100530
    47  H    0.056759
    48  H    0.064547
    49  H    0.098875
    50  H    0.122776
    51  H    0.118650
    52  H    0.109482
    53  H    0.107995
    54  H    0.093756
    55  H    0.087048
    56  H    0.081847
    57  H    0.094054
    58  H    0.097650
    59  H    0.112266
    60  H    0.108579
    61  H    0.096697
    62  H    0.098885
    63  H    0.101513
    64  H    0.111632
    65  H    0.094664
    66  H    0.082606
    67  H    0.108743
    68  H    0.126289
    69  H    0.095321
    70  H    0.101272
    71  H    0.122823
    72  H    0.088093
    73  H    0.310202
    74  H    0.309693
    75  H    0.087590
    76  H    0.085650
    77  H    0.112371
    78  H    0.113565
    79  H    0.116735
    80  H    0.098305
    81  H    0.132412
    82  H    0.106908
    83  H    0.071602
    84  H    0.067566
    85  H    0.067329
    86  H    0.066072
    87  H    0.082699
    88  H    0.074364
    89  H    0.139859
    90  H    0.096326
    91  H    0.124075
    92  H    0.106955
    93  H    0.126517
    94  H    0.114603
    95  H    0.073854
    96  H    0.096398
    97  H    0.074715
    98  H    0.084037
 Sum of Mulliken charges =  -0.00000

 Dipole moment (field-independent basis, Debye):
    X=             -0.7174    Y=             -2.2471    Z=              1.4089  Tot=              2.7476
 Quadrupole moment (field-independent basis, Debye-Ang):
   XX=           -269.2926   YY=           -241.2332   ZZ=           -262.9474
   XY=             13.1547   XZ=            -11.9324   YZ=              3.5469

 Normal termination of Gaussian 16 at Wed Jul 10 17:15:23 2019.
