 Gaussian 16, Revision A.03,
 Gaussian 16:  ES64L-G16RevA.03 25-Dec-2016

 -------------------------------------
 # td=(NStates=1) CAM-B3LYP/6-31G(d,p)
 -------------------------------------

 --
 TD
 --
 Symbolic Z-matrix:
 Charge =  0 Multiplicity = 1

                         Standard orientation:
 ---------------------------------------------------------------------
 Center     Atomic      Atomic             Coordinates (Angstroms)
 Number     Number       Type             X           Y           Z
 ---------------------------------------------------------------------
      1          8           0       14.656547   -2.352254   -0.247325
      2          8           0      -14.594450    2.071791    1.006565
      3          6           0       11.248788   -1.453414    1.051763
      4          6           0      -12.282454   -0.996911    0.677052
      5          6           0       12.596407   -1.813942    0.983808
      6          6           0      -13.613921   -0.231807    0.804492
      7          6           0       13.265377   -2.004556   -0.355454
      8          6           0      -13.367958    1.274980    0.894817
      9          6           0       10.966361   -0.292402   -0.002903
     10          6           0      -11.226840   -0.318423   -0.265120
     11          6           0       13.230768   -0.660989   -1.055697
     12          6           0      -12.613853    1.734600   -0.239085
     13          6           0       11.851954    0.044459   -0.955704
     14          6           0      -11.383969    0.938248   -0.686205
     15          6           0       10.805640   -1.132921    2.414112
     16          6           0       10.411790   -2.618140    0.519920
     17          6           0      -11.706577   -1.249549    2.125445
     18          6           0      -12.587157   -2.501644    0.125357
     19          6           0        9.693727    0.413030    0.191033
     20          6           0      -10.036207   -1.097943   -0.507276
     21          6           0       11.612400    1.276809   -1.915437
     22          6           0      -10.525836    1.684036   -1.793421
     23          6           0        9.332236    1.803545    0.031253
     24          6           0       -8.821935   -0.582062   -0.395700
     25          6           0        7.966962    2.312093    0.136659
     26          6           0       -7.619779   -1.312137   -0.663039
     27          6           0        7.878238    3.759768    0.475066
     28          6           0       -7.702685   -2.778671   -1.116676
     29          6           0        6.799917    1.598108    0.083737
     30          6           0       -6.424028   -0.699581   -0.433424
     31          6           0        5.509731    2.106347    0.178853
     32          6           0       -5.068466   -1.193406   -0.595737
     33          6           0        4.379575    1.329139    0.050327
     34          6           0       -3.978784   -0.300818   -0.389510
     35          6           0        3.117360    1.770912    0.129386
     36          6           0       -2.618071   -0.678837   -0.426414
     37          6           0        2.744152    3.199588    0.561056
     38          6           0       -2.234699   -2.091842   -0.774890
     39          6           0        2.005202    0.877344   -0.083437
     40          6           0       -1.643638    0.207678   -0.119708
     41          6           0        0.658916    1.064932    0.070540
     42          6           0       -0.278491    0.049813   -0.196780
     43          1           0       13.355452   -0.993467    1.606362
     44          1           0       12.853067   -2.763718    1.526619
     45          1           0      -14.257149   -0.696309    1.535173
     46          1           0      -14.166470   -0.376866   -0.152096
     47          1           0       12.846201   -2.772968   -0.946643
     48          1           0      -12.815523    1.472675    1.875311
     49          1           0       13.842558    0.063430   -0.511770
     50          1           0       13.521298   -0.960886   -2.092795
     51          1           0      -13.276361    1.789223   -1.221567
     52          1           0      -12.134030    2.876982   -0.288665
     53          1           0       11.174106   -2.051831    2.794839
     54          1           0        9.712253   -0.843390    2.646485
     55          1           0       11.530327   -0.511221    2.941845
     56          1           0       10.614452   -2.910057   -0.581795
     57          1           0       10.204977   -3.501534    1.205526
     58          1           0        9.386720   -2.234277    0.230758
     59          1           0      -11.230571   -0.330817    2.683593
     60          1           0      -10.693100   -1.810558    2.182891
     61          1           0      -12.467041   -1.657413    2.761413
     62          1           0      -13.560860   -2.708041    0.715873
     63          1           0      -11.737221   -3.219599    0.119416
     64          1           0      -12.807817   -2.436199   -0.973883
     65          1           0        8.627938   -0.014449    0.528940
     66          1           0      -10.167675   -2.151669   -0.828990
     67          1           0       10.533506    1.171220   -2.281880
     68          1           0       12.026511    2.226524   -1.425264
     69          1           0       12.496113    1.223718   -2.767064
     70          1           0      -11.422732    2.008321   -2.643679
     71          1           0       -9.811629    0.907283   -2.147705
     72          1           0       -9.972185    2.585693   -1.331863
     73          1           0       14.650616   -3.314793    0.202249
     74          1           0      -15.167415    1.679681    1.667139
     75          1           0       10.226798    2.333940   -0.116512
     76          1           0       -8.740126    0.430082   -0.116829
     77          1           0        8.870409    4.190844    0.078507
     78          1           0        7.078582    4.407272   -0.124691
     79          1           0        7.669741    3.822947    1.679739
     80          1           0       -8.168025   -3.330834   -0.357329
     81          1           0       -8.246237   -2.709541   -2.005811
     82          1           0       -6.574315   -2.996851   -1.284832
     83          1           0        6.950586    0.616722   -0.262978
     84          1           0       -6.552932    0.447613    0.057028
     85          1           0        5.293706    3.111294    0.341841
     86          1           0       -4.883668   -2.250195   -1.159353
     87          1           0        4.659611    0.248402   -0.389261
     88          1           0       -4.262783    0.802178   -0.182180
     89          1           0        2.937263    3.289814    1.691966
     90          1           0        1.579697    3.625139    0.542713
     91          1           0        3.346973    3.807809   -0.043287
     92          1           0       -2.481356   -3.004077   -0.050885
     93          1           0       -2.733338   -2.545316   -1.557243
     94          1           0       -0.991185   -2.404512   -0.951093
     95          1           0        2.434617   -0.233070   -0.264978
     96          1           0       -1.829097    1.171836    0.124390
     97          1           0        0.118226    2.008932    0.285278
     98          1           0        0.070859   -0.954021   -0.235247
 ---------------------------------------------------------------------

 SCF Done:  E(RCAM-B3LYP) =  -1706.94590814     A.U. after   15 cycles

 Excitation energies and oscillator strengths:

 Excited State   1:      Singlet-A      1.9572 eV  633.49 nm  f=3.7183  <S**2>=0.000
     155 ->158         0.13487
     156 ->157         0.69782
     156 <-157        -0.10822
 This state for optimization and/or second-order correction.
 Total Energy, E(TD-HF/TD-DFT) =  -1706.87398369
 Copying the excited state density for this state as the 1-particle RhoCI density.

 The electronic state is 1-A.
 Alpha  occ. eigenvalues --  -19.22095 -19.20513 -10.31004 -10.30030 -10.28670
 Alpha  occ. eigenvalues --  -10.28469 -10.28036 -10.27941 -10.27903 -10.27779
 Alpha  occ. eigenvalues --  -10.27706 -10.27613 -10.27562 -10.27501 -10.27432
 Alpha  occ. eigenvalues --  -10.27409 -10.27351 -10.27243 -10.27238 -10.27236
 Alpha  occ. eigenvalues --  -10.26861 -10.26739 -10.26688 -10.26680 -10.26604
 Alpha  occ. eigenvalues --  -10.26536 -10.26481 -10.26370 -10.26242 -10.25938
 Alpha  occ. eigenvalues --  -10.25834 -10.25786 -10.25657 -10.25610 -10.25474
 Alpha  occ. eigenvalues --  -10.25464 -10.25431 -10.25375 -10.25033 -10.24940
 Alpha  occ. eigenvalues --  -10.24803 -10.24546  -1.08067  -1.07883  -0.95060
 Alpha  occ. eigenvalues --   -0.93394  -0.92600  -0.92019  -0.90837  -0.90147
 Alpha  occ. eigenvalues --   -0.87994  -0.87399  -0.86063  -0.85439  -0.84817
 Alpha  occ. eigenvalues --   -0.83232  -0.81792  -0.79807  -0.79138  -0.78201
 Alpha  occ. eigenvalues --   -0.76967  -0.76329  -0.75823  -0.75597  -0.75178
 Alpha  occ. eigenvalues --   -0.75006  -0.74960  -0.74761  -0.73398  -0.70988
 Alpha  occ. eigenvalues --   -0.68701  -0.67718  -0.65788  -0.64683  -0.63645
 Alpha  occ. eigenvalues --   -0.63270  -0.62727  -0.62512  -0.60533  -0.60240
 Alpha  occ. eigenvalues --   -0.58481  -0.58405  -0.58102  -0.57307  -0.56215
 Alpha  occ. eigenvalues --   -0.56034  -0.55623  -0.54898  -0.54481  -0.53412
 Alpha  occ. eigenvalues --   -0.53014  -0.52849  -0.52067  -0.51378  -0.50587
 Alpha  occ. eigenvalues --   -0.50448  -0.50238  -0.49778  -0.49437  -0.49426
 Alpha  occ. eigenvalues --   -0.48859  -0.48632  -0.48536  -0.47855  -0.47556
 Alpha  occ. eigenvalues --   -0.47265  -0.47168  -0.47046  -0.46432  -0.46321
 Alpha  occ. eigenvalues --   -0.46015  -0.45652  -0.45472  -0.44883  -0.44720
 Alpha  occ. eigenvalues --   -0.44252  -0.44007  -0.43499  -0.43072  -0.42968
 Alpha  occ. eigenvalues --   -0.42820  -0.42250  -0.42080  -0.41938  -0.41777
 Alpha  occ. eigenvalues --   -0.41662  -0.41064  -0.40933  -0.40857  -0.40726
 Alpha  occ. eigenvalues --   -0.40186  -0.39667  -0.39453  -0.38995  -0.38871
 Alpha  occ. eigenvalues --   -0.38671  -0.38336  -0.38267  -0.37910  -0.37760
 Alpha  occ. eigenvalues --   -0.37528  -0.37523  -0.37091  -0.36588  -0.36453
 Alpha  occ. eigenvalues --   -0.35941  -0.34897  -0.33769  -0.32902  -0.32272
 Alpha  occ. eigenvalues --   -0.31778  -0.30383  -0.28614  -0.26513  -0.23619
 Alpha  occ. eigenvalues --   -0.18631
 Alpha virt. eigenvalues --   -0.06769  -0.01113   0.02308   0.05805   0.08184
 Alpha virt. eigenvalues --    0.09816   0.10376   0.10795   0.11330   0.11895
 Alpha virt. eigenvalues --    0.12022   0.12594   0.12683   0.12940   0.13199

 Mulliken charges:
               1
     1  O   -0.565953
     2  O   -0.572286
     3  C    0.050117
     4  C   -0.012576
     5  C   -0.196787
     6  C   -0.215628
     7  C    0.165395
     8  C    0.183121
     9  C    0.065371
    10  C    0.069236
    11  C   -0.204152
    12  C   -0.199181
    13  C    0.004970
    14  C    0.026649
    15  C   -0.296830
    16  C   -0.315220
    17  C   -0.297359
    18  C   -0.307780
    19  C   -0.136869
    20  C   -0.149832
    21  C   -0.357406
    22  C   -0.335210
    23  C   -0.114149
    24  C   -0.068000
    25  C    0.082121
    26  C    0.074984
    27  C   -0.355698
    28  C   -0.345927
    29  C   -0.112930
    30  C   -0.121088
    31  C   -0.076207
    32  C   -0.111673
    33  C   -0.111365
    34  C   -0.127673
    35  C    0.104985
    36  C    0.153379
    37  C   -0.364382
    38  C   -0.382568
    39  C   -0.133393
    40  C   -0.113424
    41  C   -0.081604
    42  C   -0.064978
    43  H    0.064468
    44  H    0.066043
    45  H    0.090224
    46  H    0.104005
    47  H    0.093073
    48  H    0.083197
    49  H    0.132089
    50  H    0.110031
    51  H    0.103574
    52  H    0.087093
    53  H    0.102284
    54  H    0.114679
    55  H    0.103509
    56  H    0.097295
    57  H    0.098566
    58  H    0.102357
    59  H    0.086217
    60  H    0.098649
    61  H    0.102733
    62  H    0.093475
    63  H    0.110335
    64  H    0.101123
    65  H    0.078595
    66  H    0.080697
    67  H    0.142865
    68  H    0.124024
    69  H    0.081111
    70  H    0.085770
    71  H    0.125995
    72  H    0.113527
    73  H    0.302361
    74  H    0.302224
    75  H    0.087378
    76  H    0.086199
    77  H    0.101947
    78  H    0.100585
    79  H    0.114466
    80  H    0.132663
    81  H    0.130592
    82  H    0.091055
    83  H    0.077165
    84  H    0.062101
    85  H    0.080958
    86  H    0.091142
    87  H    0.077339
    88  H    0.093746
    89  H    0.122478
    90  H    0.096716
    91  H    0.126746
    92  H    0.103830
    93  H    0.129727
    94  H    0.083338
    95  H    0.070523
    96  H    0.065129
    97  H    0.084126
    98  H    0.075661
 Sum of Mulliken charges =  -0.00000

 Dipole moment (field-independent basis, Debye):
    X=              0.5236    Y=             -2.1951    Z=              0.9555  Tot=              2.4506
 Quadrupole moment (field-independent basis, Debye-Ang):
   XX=           -273.8651   YY=           -247.1677   ZZ=           -263.1639
   XY=             12.4230   XZ=             -6.0055   YZ=              1.7481

 Normal termination of Gaussian 16 at Sun Jul 14 02:40:27 2019.
