 Gaussian 16, Revision A.03,
 Gaussian 16:  ES64L-G16RevA.03 25-Dec-2016

 -------------------------------------
 # td=(NStates=1) CAM-B3LYP/6-31G(d,p)
 -------------------------------------

 --
 TD
 --
 Symbolic Z-matrix:
 Charge =  0 Multiplicity = 1

                         Standard orientation:
 ---------------------------------------------------------------------
 Center     Atomic      Atomic             Coordinates (Angstroms)
 Number     Number       Type             X           Y           Z
 ---------------------------------------------------------------------
      1          8           0       14.660983   -2.235338   -0.135565
      2          8           0      -14.613000    2.100201    1.170900
      3          6           0       11.289502   -1.230878    1.194325
      4          6           0      -12.321716   -0.960625    0.706598
      5          6           0       12.732446   -1.630311    1.232556
      6          6           0      -13.531849   -0.072783    0.782327
      7          6           0       13.237550   -1.921785   -0.205736
      8          6           0      -13.376038    1.344973    1.063394
      9          6           0       10.978373   -0.130326    0.041096
     10          6           0      -11.248103   -0.358181   -0.237383
     11          6           0       13.195111   -0.609816   -0.956199
     12          6           0      -12.505547    1.928538   -0.054151
     13          6           0       11.859970    0.056790   -0.978757
     14          6           0      -11.502635    0.993922   -0.609080
     15          6           0       10.993657   -0.692502    2.571349
     16          6           0       10.410834   -2.523479    0.924993
     17          6           0      -11.656805   -1.192423    2.116035
     18          6           0      -12.739500   -2.329559    0.205158
     19          6           0        9.565981    0.404171    0.272950
     20          6           0      -10.054579   -1.063439   -0.577344
     21          6           0       11.524522    0.975086   -2.189826
     22          6           0      -10.609084    1.672841   -1.596774
     23          6           0        9.290744    1.722017   -0.048130
     24          6           0       -8.801195   -0.534284   -0.510041
     25          6           0        7.952347    2.342949   -0.071656
     26          6           0       -7.648512   -1.223118   -0.769673
     27          6           0        7.866144    3.877438    0.158336
     28          6           0       -7.699736   -2.699326   -1.215216
     29          6           0        6.873082    1.577868   -0.101980
     30          6           0       -6.325317   -0.747771   -0.585177
     31          6           0        5.525881    2.059210    0.036629
     32          6           0       -5.074168   -1.298002   -0.610588
     33          6           0        4.371775    1.214975    0.073752
     34          6           0       -3.943739   -0.513945   -0.506407
     35          6           0        3.013482    1.594922    0.172061
     36          6           0       -2.596785   -0.966917   -0.616032
     37          6           0        2.676967    3.081777    0.424172
     38          6           0       -2.295052   -2.348619   -0.955972
     39          6           0        2.105976    0.547642    0.012090
     40          6           0       -1.599791    0.076695   -0.322751
     41          6           0        0.760848    0.756466    0.025114
     42          6           0       -0.256123   -0.199290   -0.240087
     43          1           0       13.608903   -0.893637    1.536130
     44          1           0       12.870705   -2.410820    1.964537
     45          1           0      -14.100741   -0.406726    1.626806
     46          1           0      -14.006061   -0.257858   -0.365318
     47          1           0       12.620745   -2.652899   -0.756666
     48          1           0      -12.758794    1.628198    2.021183
     49          1           0       13.877260   -0.036944   -0.583540
     50          1           0       13.371486   -0.724254   -2.112968
     51          1           0      -13.204405    2.259345   -0.836668
     52          1           0      -11.989102    2.938836    0.392905
     53          1           0       11.345284   -1.365215    3.254420
     54          1           0        9.834333   -0.669520    2.611673
     55          1           0       11.448912    0.188463    2.779137
     56          1           0       10.446243   -2.870610   -0.166159
     57          1           0       10.558125   -3.406524    1.716959
     58          1           0        9.424194   -2.405915    0.989972
     59          1           0      -11.527178   -0.108722    2.395705
     60          1           0      -10.566447   -1.621937    2.014176
     61          1           0      -12.297281   -1.634276    2.818931
     62          1           0      -13.443930   -2.726355    0.843671
     63          1           0      -11.980390   -2.999831    0.117629
     64          1           0      -13.133468   -2.411524   -0.799120
     65          1           0        8.877079   -0.300408    0.381813
     66          1           0      -10.354518   -2.146148   -0.977688
     67          1           0       10.504678    0.908861   -2.390453
     68          1           0       11.859442    2.039517   -2.173227
     69          1           0       11.778446    0.555993   -3.095337
     70          1           0      -11.180745    2.283618   -2.261277
     71          1           0       -9.983344    1.113075   -2.307505
     72          1           0       -9.845805    2.361476   -1.203578
     73          1           0       14.605341   -3.114364    0.287545
     74          1           0      -14.958311    2.056223    2.278685
     75          1           0       10.057165    2.347304   -0.294300
     76          1           0       -8.508854    0.365840    0.054085
     77          1           0        8.911279    4.176073    0.405031
     78          1           0        7.327417    4.334918   -0.664032
     79          1           0        7.252065    4.121593    1.137092
     80          1           0       -8.181806   -3.334365   -0.573120
     81          1           0       -8.217400   -2.832339   -2.168675
     82          1           0       -6.607071   -3.117590   -1.363673
     83          1           0        6.928395    0.511631   -0.238568
     84          1           0       -6.315765    0.413059   -0.183128
     85          1           0        5.282186    3.057161    0.344524
     86          1           0       -4.951280   -2.386251   -0.843506
     87          1           0        4.473860    0.241382   -0.270356
     88          1           0       -3.939002    0.610646   -0.215708
     89          1           0        3.008561    3.276679    1.479230
     90          1           0        1.555565    3.272116    0.416919
     91          1           0        3.001852    3.704403   -0.451349
     92          1           0       -3.086405   -2.860079   -0.358441
     93          1           0       -2.288526   -2.494432   -2.052823
     94          1           0       -1.265229   -2.444151   -0.559434
     95          1           0        2.245746   -0.465362   -0.311924
     96          1           0       -1.984416    0.996293    0.166395
     97          1           0        0.470020    1.721630    0.286443
     98          1           0        0.113615   -1.189596   -0.349602
 ---------------------------------------------------------------------

 SCF Done:  E(RCAM-B3LYP) =  -1707.00382165     A.U. after   16 cycles

 Excitation energies and oscillator strengths:

 Excited State   1:      Singlet-A      1.8914 eV  655.51 nm  f=3.7686  <S**2>=0.000
     155 ->158        -0.13476
     156 ->157         0.69934
     156 <-157        -0.11367
 This state for optimization and/or second-order correction.
 Total Energy, E(TD-HF/TD-DFT) =  -1706.93431303
 Copying the excited state density for this state as the 1-particle RhoCI density.

 The electronic state is 1-A.
 Alpha  occ. eigenvalues --  -19.22569 -19.21113 -10.30587 -10.30076 -10.28168
 Alpha  occ. eigenvalues --  -10.27803 -10.27592 -10.27340 -10.27208 -10.27064
 Alpha  occ. eigenvalues --  -10.27061 -10.27053 -10.26942 -10.26879 -10.26771
 Alpha  occ. eigenvalues --  -10.26741 -10.26722 -10.26666 -10.26660 -10.26462
 Alpha  occ. eigenvalues --  -10.26330 -10.26323 -10.26197 -10.26017 -10.26016
 Alpha  occ. eigenvalues --  -10.25971 -10.25828 -10.25790 -10.25766 -10.25703
 Alpha  occ. eigenvalues --  -10.25570 -10.25464 -10.25385 -10.25237 -10.25061
 Alpha  occ. eigenvalues --  -10.24832 -10.24821 -10.23994 -10.23992 -10.23502
 Alpha  occ. eigenvalues --  -10.22933 -10.22397  -1.08440  -1.05942  -0.93462
 Alpha  occ. eigenvalues --   -0.92809  -0.92576  -0.91827  -0.90705  -0.90251
 Alpha  occ. eigenvalues --   -0.87514  -0.86998  -0.86683  -0.85684  -0.84550
 Alpha  occ. eigenvalues --   -0.83209  -0.81844  -0.80159  -0.79719  -0.79143
 Alpha  occ. eigenvalues --   -0.76918  -0.76628  -0.76523  -0.76161  -0.76049
 Alpha  occ. eigenvalues --   -0.75837  -0.75070  -0.75003  -0.72943  -0.71219
 Alpha  occ. eigenvalues --   -0.69257  -0.67751  -0.65574  -0.65077  -0.63608
 Alpha  occ. eigenvalues --   -0.63440  -0.63113  -0.62382  -0.60494  -0.59594
 Alpha  occ. eigenvalues --   -0.59382  -0.59348  -0.57839  -0.56926  -0.56247
 Alpha  occ. eigenvalues --   -0.55313  -0.54774  -0.54648  -0.54519  -0.53518
 Alpha  occ. eigenvalues --   -0.53104  -0.52772  -0.52250  -0.51221  -0.50597
 Alpha  occ. eigenvalues --   -0.50518  -0.50400  -0.50339  -0.49880  -0.49253
 Alpha  occ. eigenvalues --   -0.49147  -0.48881  -0.48704  -0.48260  -0.47937
 Alpha  occ. eigenvalues --   -0.47845  -0.47802  -0.47520  -0.46654  -0.46421
 Alpha  occ. eigenvalues --   -0.46143  -0.45899  -0.45475  -0.45197  -0.45166
 Alpha  occ. eigenvalues --   -0.44765  -0.44539  -0.43961  -0.43590  -0.43399
 Alpha  occ. eigenvalues --   -0.42940  -0.42466  -0.42388  -0.42136  -0.41972
 Alpha  occ. eigenvalues --   -0.41840  -0.41226  -0.41140  -0.40769  -0.40529
 Alpha  occ. eigenvalues --   -0.40314  -0.40287  -0.40043  -0.39876  -0.39747
 Alpha  occ. eigenvalues --   -0.39587  -0.39430  -0.38621  -0.38214  -0.38059
 Alpha  occ. eigenvalues --   -0.37775  -0.37431  -0.37319  -0.37101  -0.35902
 Alpha  occ. eigenvalues --   -0.35140  -0.34329  -0.33878  -0.32430  -0.32048
 Alpha  occ. eigenvalues --   -0.31624  -0.29586  -0.27997  -0.26079  -0.23364
 Alpha  occ. eigenvalues --   -0.18475
 Alpha virt. eigenvalues --   -0.07041  -0.01387   0.02074   0.05396   0.07323
 Alpha virt. eigenvalues --    0.07808   0.09413   0.11359   0.11772   0.12467
 Alpha virt. eigenvalues --    0.12887   0.13125   0.13508   0.13666   0.14171

 Mulliken charges:
               1
     1  O   -0.555834
     2  O   -0.569243
     3  C   -0.018463
     4  C   -0.023881
     5  C   -0.185733
     6  C   -0.150769
     7  C    0.121952
     8  C    0.172446
     9  C    0.030882
    10  C    0.065371
    11  C   -0.176759
    12  C   -0.231634
    13  C    0.015265
    14  C    0.056209
    15  C   -0.277992
    16  C   -0.311857
    17  C   -0.302402
    18  C   -0.302930
    19  C   -0.086013
    20  C   -0.151146
    21  C   -0.367844
    22  C   -0.369328
    23  C   -0.102217
    24  C   -0.082377
    25  C    0.070664
    26  C    0.111503
    27  C   -0.361767
    28  C   -0.369492
    29  C   -0.092499
    30  C   -0.129953
    31  C   -0.108137
    32  C   -0.102815
    33  C   -0.110650
    34  C   -0.087092
    35  C    0.079931
    36  C    0.077864
    37  C   -0.373356
    38  C   -0.357992
    39  C   -0.100538
    40  C   -0.121044
    41  C   -0.073386
    42  C   -0.103272
    43  H    0.093140
    44  H    0.081387
    45  H    0.078286
    46  H    0.087808
    47  H    0.086654
    48  H    0.070153
    49  H    0.129101
    50  H    0.085904
    51  H    0.125250
    52  H    0.090599
    53  H    0.099323
    54  H    0.081846
    55  H    0.116324
    56  H    0.097214
    57  H    0.082778
    58  H    0.115524
    59  H    0.090791
    60  H    0.104379
    61  H    0.104431
    62  H    0.102350
    63  H    0.102381
    64  H    0.094908
    65  H    0.089546
    66  H    0.090372
    67  H    0.126649
    68  H    0.114266
    69  H    0.108152
    70  H    0.101835
    71  H    0.115093
    72  H    0.107352
    73  H    0.303864
    74  H    0.301733
    75  H    0.083227
    76  H    0.095011
    77  H    0.110046
    78  H    0.132237
    79  H    0.110380
    80  H    0.125767
    81  H    0.115176
    82  H    0.081989
    83  H    0.079963
    84  H    0.051142
    85  H    0.080803
    86  H    0.091268
    87  H    0.075970
    88  H    0.080919
    89  H    0.135724
    90  H    0.108013
    91  H    0.134799
    92  H    0.124513
    93  H    0.137078
    94  H    0.111411
    95  H    0.082771
    96  H    0.091823
    97  H    0.060750
    98  H    0.076158
 Sum of Mulliken charges =  -0.00000

 Dipole moment (field-independent basis, Debye):
    X=              0.0754    Y=             -1.1568    Z=              1.7014  Tot=              2.0588
 Quadrupole moment (field-independent basis, Debye-Ang):
   XX=           -317.1391   YY=           -242.5731   ZZ=           -256.8224
   XY=              6.7271   XZ=            -15.4432   YZ=              2.8150

 Normal termination of Gaussian 16 at Fri Jul 12 13:30:34 2019.
