 Gaussian 16, Revision A.03,
 Gaussian 16:  ES64L-G16RevA.03 25-Dec-2016

 -------------------------------------
 # td=(NStates=1) CAM-B3LYP/6-31G(d,p)
 -------------------------------------

 --
 TD
 --
 Symbolic Z-matrix:
 Charge =  0 Multiplicity = 1

                         Standard orientation:
 ---------------------------------------------------------------------
 Center     Atomic      Atomic             Coordinates (Angstroms)
 Number     Number       Type             X           Y           Z
 ---------------------------------------------------------------------
      1          8           0       14.822476   -2.017840   -0.129382
      2          8           0      -14.796676    1.782467    1.030896
      3          6           0       11.148988   -1.551245    0.981472
      4          6           0      -12.357347   -1.117394    0.469766
      5          6           0       12.739878   -1.761523    1.007352
      6          6           0      -13.695585   -0.357364    0.743044
      7          6           0       13.432135   -1.817605   -0.308257
      8          6           0      -13.525727    1.087725    1.057159
      9          6           0       10.964116   -0.329156   -0.016485
     10          6           0      -11.284896   -0.232562   -0.190175
     11          6           0       13.314903   -0.459909   -1.000253
     12          6           0      -12.726934    1.888276   -0.025792
     13          6           0       11.838447    0.112739   -0.904020
     14          6           0      -11.522049    1.129496   -0.467376
     15          6           0       10.778108   -1.114199    2.412149
     16          6           0       10.379540   -2.733012    0.514027
     17          6           0      -11.744309   -1.270844    1.900529
     18          6           0      -12.597214   -2.484883   -0.100168
     19          6           0        9.602006    0.272150    0.097418
     20          6           0      -10.038287   -0.917298   -0.421706
     21          6           0       11.535728    1.136603   -1.952874
     22          6           0      -10.552082    1.917599   -1.353341
     23          6           0        9.314123    1.625085    0.192245
     24          6           0       -8.834641   -0.372840   -0.363749
     25          6           0        8.110525    2.126716    0.274092
     26          6           0       -7.580208   -1.165261   -0.668956
     27          6           0        8.063026    3.644266    0.624164
     28          6           0       -7.716012   -2.682112   -0.995146
     29          6           0        6.943130    1.496483    0.057419
     30          6           0       -6.452818   -0.565916   -0.535080
     31          6           0        5.638701    1.994320    0.159122
     32          6           0       -5.140159   -1.114737   -0.664107
     33          6           0        4.466102    1.271307    0.034574
     34          6           0       -3.979522   -0.343650   -0.499981
     35          6           0        3.123066    1.743519    0.032152
     36          6           0       -2.555300   -0.677219   -0.424539
     37          6           0        2.901539    3.184868    0.319742
     38          6           0       -2.268282   -2.189321   -0.758939
     39          6           0        2.068044    0.768177   -0.123835
     40          6           0       -1.601236    0.237630   -0.373458
     41          6           0        0.642781    1.032193   -0.185970
     42          6           0       -0.164035   -0.045494   -0.279813
     43          1           0       13.252786   -0.998280    1.763620
     44          1           0       12.975523   -2.601921    1.440737
     45          1           0      -14.299946   -1.085661    1.432165
     46          1           0      -14.242696   -0.254517   -0.411958
     47          1           0       13.237994   -2.641381   -0.790947
     48          1           0      -13.188424    1.225470    2.162627
     49          1           0       13.957680    0.198429   -0.454181
     50          1           0       13.639508   -0.347879   -2.000769
     51          1           0      -13.399506    2.076372   -0.852223
     52          1           0      -12.390694    2.921576    0.401855
     53          1           0       10.832595   -2.046447    3.085776
     54          1           0        9.581277   -1.145204    2.703706
     55          1           0       11.154962   -0.100318    2.733208
     56          1           0       10.511596   -2.919002   -0.531909
     57          1           0       10.711603   -3.513207    1.218360
     58          1           0        9.302445   -2.573776    0.407613
     59          1           0      -11.905433   -0.404030    2.537182
     60          1           0      -10.637304   -1.510954    1.697951
     61          1           0      -12.341247   -1.988835    2.403066
     62          1           0      -13.208155   -3.249444    0.680807
     63          1           0      -11.583432   -3.041568   -0.320157
     64          1           0      -12.965627   -2.311324   -1.155731
     65          1           0        8.781421   -0.685920    0.087930
     66          1           0      -10.136978   -1.885541   -0.691168
     67          1           0       10.392165    1.360987   -2.048745
     68          1           0       12.044395    2.091643   -1.574632
     69          1           0       11.871011    0.902933   -2.866351
     70          1           0      -11.035759    2.499328   -2.056494
     71          1           0       -9.980137    1.279120   -2.003082
     72          1           0      -10.218073    2.707940   -0.626697
     73          1           0       14.855852   -2.935135    0.200024
     74          1           0      -15.399602    1.306639    1.676579
     75          1           0       10.215311    2.244424    0.184036
     76          1           0       -8.689625    0.577753   -0.068632
     77          1           0        9.144095    3.863563    1.104629
     78          1           0        7.742487    4.300189   -0.302592
     79          1           0        7.273554    3.898992    1.529444
     80          1           0       -8.179106   -3.085079   -0.191975
     81          1           0       -8.343560   -2.722783   -1.920263
     82          1           0       -6.803199   -3.147865   -1.478460
     83          1           0        7.082666    0.392173   -0.244548
     84          1           0       -6.481094    0.359424   -0.423203
     85          1           0        5.414925    3.184981    0.429642
     86          1           0       -5.183957   -2.262518   -0.799003
     87          1           0        4.409017    0.114152   -0.209260
     88          1           0       -4.507107    0.700265   -0.102631
     89          1           0        3.780211    3.565530    1.109493
     90          1           0        1.842800    3.252024    0.994430
     91          1           0        2.875004    3.773072   -0.721963
     92          1           0       -2.917938   -2.934697   -0.284065
     93          1           0       -2.506249   -2.121972   -1.883280
     94          1           0       -1.191004   -2.563809   -0.616803
     95          1           0        2.190244   -0.212450   -0.450360
     96          1           0       -1.878252    1.265895   -0.261289
     97          1           0        0.258781    2.095773    0.019537
     98          1           0        0.066353   -1.177802   -0.447584
 ---------------------------------------------------------------------

 SCF Done:  E(RCAM-B3LYP) =  -1706.90020513     A.U. after   15 cycles

 Excitation energies and oscillator strengths:

 Excited State   1:      Singlet-A      2.4259 eV  511.10 nm  f=3.3321  <S**2>=0.000
     155 ->158         0.15464
     156 ->157         0.68528
 This state for optimization and/or second-order correction.
 Total Energy, E(TD-HF/TD-DFT) =  -1706.81105670
 Copying the excited state density for this state as the 1-particle RhoCI density.

 The electronic state is 1-A.
 Alpha  occ. eigenvalues --  -19.20730 -19.20650 -10.31413 -10.29065 -10.28876
 Alpha  occ. eigenvalues --  -10.28223 -10.27914 -10.27830 -10.27670 -10.27643
 Alpha  occ. eigenvalues --  -10.27601 -10.27571 -10.27473 -10.27260 -10.27243
 Alpha  occ. eigenvalues --  -10.27065 -10.27041 -10.27005 -10.26968 -10.26823
 Alpha  occ. eigenvalues --  -10.26651 -10.26570 -10.26459 -10.26418 -10.26278
 Alpha  occ. eigenvalues --  -10.26171 -10.25996 -10.25626 -10.25497 -10.25356
 Alpha  occ. eigenvalues --  -10.25298 -10.25250 -10.25119 -10.25089 -10.25078
 Alpha  occ. eigenvalues --  -10.24775 -10.24773 -10.24501 -10.24438 -10.24366
 Alpha  occ. eigenvalues --  -10.23845 -10.22886  -1.10066  -1.07830  -0.93556
 Alpha  occ. eigenvalues --   -0.93205  -0.91832  -0.91674  -0.90988  -0.89604
 Alpha  occ. eigenvalues --   -0.87195  -0.86996  -0.86719  -0.85738  -0.84364
 Alpha  occ. eigenvalues --   -0.82668  -0.81791  -0.79979  -0.79123  -0.77756
 Alpha  occ. eigenvalues --   -0.76827  -0.76759  -0.75816  -0.75810  -0.75525
 Alpha  occ. eigenvalues --   -0.75171  -0.74493  -0.74273  -0.73282  -0.69867
 Alpha  occ. eigenvalues --   -0.68864  -0.67490  -0.66061  -0.64919  -0.64130
 Alpha  occ. eigenvalues --   -0.63667  -0.62342  -0.61677  -0.61093  -0.59792
 Alpha  occ. eigenvalues --   -0.59282  -0.58085  -0.57110  -0.56644  -0.56172
 Alpha  occ. eigenvalues --   -0.55854  -0.55273  -0.54862  -0.54478  -0.52894
 Alpha  occ. eigenvalues --   -0.52681  -0.52047  -0.51817  -0.51635  -0.51027
 Alpha  occ. eigenvalues --   -0.50982  -0.50445  -0.49788  -0.49507  -0.48822
 Alpha  occ. eigenvalues --   -0.48493  -0.48275  -0.48129  -0.48002  -0.47899
 Alpha  occ. eigenvalues --   -0.47621  -0.47271  -0.47171  -0.46969  -0.46886
 Alpha  occ. eigenvalues --   -0.46359  -0.45932  -0.45807  -0.45576  -0.44269
 Alpha  occ. eigenvalues --   -0.43972  -0.43720  -0.43642  -0.43298  -0.43146
 Alpha  occ. eigenvalues --   -0.42614  -0.42301  -0.42289  -0.42041  -0.41465
 Alpha  occ. eigenvalues --   -0.41450  -0.41216  -0.40921  -0.40514  -0.40262
 Alpha  occ. eigenvalues --   -0.40116  -0.39992  -0.39810  -0.39416  -0.38996
 Alpha  occ. eigenvalues --   -0.38812  -0.38471  -0.38376  -0.38078  -0.37776
 Alpha  occ. eigenvalues --   -0.37490  -0.37171  -0.36423  -0.35850  -0.35581
 Alpha  occ. eigenvalues --   -0.34888  -0.34570  -0.34110  -0.32430  -0.32030
 Alpha  occ. eigenvalues --   -0.31889  -0.29827  -0.28100  -0.25875  -0.23169
 Alpha  occ. eigenvalues --   -0.19767
 Alpha virt. eigenvalues --   -0.04811  -0.00737   0.02657   0.05656   0.08831
 Alpha virt. eigenvalues --    0.10226   0.10647   0.11038   0.11812   0.11962
 Alpha virt. eigenvalues --    0.12353   0.12377   0.12716   0.13057   0.13535

 Mulliken charges:
               1
     1  O   -0.560750
     2  O   -0.568159
     3  C    0.010426
     4  C   -0.019143
     5  C   -0.172637
     6  C   -0.172598
     7  C    0.170201
     8  C    0.172498
     9  C    0.017756
    10  C    0.068414
    11  C   -0.205590
    12  C   -0.216485
    13  C    0.032033
    14  C    0.017989
    15  C   -0.298911
    16  C   -0.308349
    17  C   -0.290893
    18  C   -0.291887
    19  C   -0.100014
    20  C   -0.133269
    21  C   -0.359782
    22  C   -0.360093
    23  C   -0.138225
    24  C   -0.067594
    25  C    0.153798
    26  C    0.074909
    27  C   -0.358527
    28  C   -0.372377
    29  C   -0.109460
    30  C   -0.076199
    31  C   -0.108974
    32  C   -0.075115
    33  C   -0.092050
    34  C   -0.140287
    35  C    0.111511
    36  C    0.078263
    37  C   -0.357576
    38  C   -0.365107
    39  C   -0.128936
    40  C   -0.102838
    41  C   -0.090397
    42  C   -0.074570
    43  H    0.092305
    44  H    0.068268
    45  H    0.081197
    46  H    0.061093
    47  H    0.083903
    48  H    0.074550
    49  H    0.128778
    50  H    0.100567
    51  H    0.137123
    52  H    0.105116
    53  H    0.090666
    54  H    0.072728
    55  H    0.121323
    56  H    0.114020
    57  H    0.104348
    58  H    0.108776
    59  H    0.098811
    60  H    0.103490
    61  H    0.085123
    62  H    0.087794
    63  H    0.090689
    64  H    0.109986
    65  H    0.067880
    66  H    0.073892
    67  H    0.113555
    68  H    0.104515
    69  H    0.117947
    70  H    0.114201
    71  H    0.129089
    72  H    0.108261
    73  H    0.295536
    74  H    0.299183
    75  H    0.098761
    76  H    0.086145
    77  H    0.089562
    78  H    0.117459
    79  H    0.095061
    80  H    0.136397
    81  H    0.115664
    82  H    0.111881
    83  H    0.071077
    84  H    0.045828
    85  H    0.072262
    86  H    0.067582
    87  H    0.069268
    88  H    0.068591
    89  H    0.101601
    90  H    0.090873
    91  H    0.124282
    92  H    0.123477
    93  H    0.128895
    94  H    0.098632
    95  H    0.084188
    96  H    0.082922
    97  H    0.093793
    98  H    0.090081
 Sum of Mulliken charges =  -0.00000

 Dipole moment (field-independent basis, Debye):
    X=             -0.4797    Y=             -2.6426    Z=              0.3151  Tot=              2.7042
 Quadrupole moment (field-independent basis, Debye-Ang):
   XX=           -274.1490   YY=           -243.3327   ZZ=           -260.8248
   XY=              0.9300   XZ=             -7.5412   YZ=              0.3230

 Normal termination of Gaussian 16 at Sun Jul 14 13:20:48 2019.
