 Gaussian 16, Revision A.03,
 Gaussian 16:  ES64L-G16RevA.03 25-Dec-2016

 -------------------------------------
 # td=(NStates=1) CAM-B3LYP/6-31G(d,p)
 -------------------------------------

 --
 TD
 --
 Symbolic Z-matrix:
 Charge =  0 Multiplicity = 1

                         Standard orientation:
 ---------------------------------------------------------------------
 Center     Atomic      Atomic             Coordinates (Angstroms)
 Number     Number       Type             X           Y           Z
 ---------------------------------------------------------------------
      1          8           0       14.641188   -2.383695   -0.073275
      2          8           0      -14.752710    1.618251    1.441292
      3          6           0       11.164089   -1.462450    1.144691
      4          6           0      -12.310479   -1.212267    0.639385
      5          6           0       12.659529   -1.889758    1.266535
      6          6           0      -13.596358   -0.416045    0.936331
      7          6           0       13.377153   -1.911371   -0.059340
      8          6           0      -13.444864    1.058129    1.269262
      9          6           0       10.941391   -0.282240    0.108973
     10          6           0      -11.266753   -0.179146   -0.019732
     11          6           0       13.163135   -0.576867   -0.850182
     12          6           0      -12.723681    1.809073    0.280921
     13          6           0       11.920274    0.137693   -0.748703
     14          6           0      -11.505313    1.090974   -0.275310
     15          6           0       10.786655   -1.212751    2.568715
     16          6           0       10.348995   -2.677256    0.680422
     17          6           0      -11.691737   -1.806238    1.964951
     18          6           0      -12.650832   -2.443182   -0.376416
     19          6           0        9.624457    0.292446    0.255568
     20          6           0      -10.029562   -0.739830   -0.560930
     21          6           0       11.753280    1.156420   -1.805306
     22          6           0      -10.625019    1.863351   -1.190241
     23          6           0        9.376051    1.632254    0.057227
     24          6           0       -8.801388   -0.370590   -0.414783
     25          6           0        8.034661    2.295325    0.281888
     26          6           0       -7.602686   -1.061959   -0.754504
     27          6           0        7.999443    3.801401    0.494846
     28          6           0       -7.567586   -2.545500   -1.323041
     29          6           0        6.937832    1.516877   -0.008369
     30          6           0       -6.403773   -0.463002   -0.484248
     31          6           0        5.520740    2.010843   -0.023482
     32          6           0       -5.069392   -0.996470   -0.799156
     33          6           0        4.403442    1.264802   -0.219717
     34          6           0       -3.939938   -0.207010   -0.494567
     35          6           0        3.099272    1.715473   -0.101543
     36          6           0       -2.597439   -0.602961   -0.794360
     37          6           0        2.875254    3.069244    0.362247
     38          6           0       -2.322093   -1.997597   -1.423727
     39          6           0        1.989510    0.805749   -0.496367
     40          6           0       -1.586927    0.370430   -0.565148
     41          6           0        0.639813    1.083591   -0.197221
     42          6           0       -0.237984    0.157737   -0.694252
     43          1           0       13.225959   -1.294034    2.063230
     44          1           0       12.687946   -2.976659    1.771136
     45          1           0      -14.300357   -1.028256    1.503214
     46          1           0      -14.272836   -0.192564    0.124691
     47          1           0       12.648359   -2.652652   -0.517884
     48          1           0      -13.080186    1.261618    2.279481
     49          1           0       13.908121    0.173945   -0.412499
     50          1           0       13.338350   -0.704450   -1.925812
     51          1           0      -13.417426    1.903258   -0.591044
     52          1           0      -12.485156    2.954975    0.710043
     53          1           0       10.850082   -2.094253    3.204228
     54          1           0        9.706956   -1.037696    2.617914
     55          1           0       11.388468   -0.181186    2.789641
     56          1           0       10.853076   -3.049995   -0.214369
     57          1           0       10.378980   -3.400945    1.633951
     58          1           0        9.360353   -2.477965    0.367129
     59          1           0      -11.551742   -0.910756    2.712141
     60          1           0      -10.847239   -2.287406    1.926457
     61          1           0      -12.450433   -2.256782    2.539931
     62          1           0      -13.613674   -2.900208   -0.001056
     63          1           0      -11.980663   -3.267024   -0.442533
     64          1           0      -13.023492   -2.021708   -1.427850
     65          1           0        8.765630   -0.459645    0.539559
     66          1           0      -10.290411   -2.015386   -0.851554
     67          1           0       10.621011    1.456470   -2.096778
     68          1           0       12.168068    2.139876   -1.708494
     69          1           0       12.225745    0.869656   -2.755152
     70          1           0      -11.271052    2.811416   -1.591205
     71          1           0      -10.041115    1.385864   -1.987586
     72          1           0       -9.877930    2.443932   -0.391059
     73          1           0       14.773324   -3.164377    0.390941
     74          1           0      -15.165323    1.455690    2.512801
     75          1           0       10.094899    2.281302   -0.197845
     76          1           0       -8.519387    0.597598    0.103161
     77          1           0        9.100856    4.337839    0.515141
     78          1           0        7.402519    4.343172   -0.257447
     79          1           0        7.634214    3.991480    1.429470
     80          1           0       -7.798937   -3.375126   -0.617932
     81          1           0       -8.233127   -2.753101   -2.222958
     82          1           0       -6.617485   -2.811565   -1.510436
     83          1           0        7.108961    0.544964   -0.292477
     84          1           0       -6.317959    0.398150   -0.044357
     85          1           0        5.704261    3.073490    0.486792
     86          1           0       -4.847530   -2.016860   -1.338609
     87          1           0        4.596808    0.317214   -0.803474
     88          1           0       -4.258812    0.698877   -0.017906
     89          1           0        2.984741    3.472498    1.386781
     90          1           0        1.900660    3.470379    0.416873
     91          1           0        3.491198    3.679453   -0.348191
     92          1           0       -2.972984   -2.737369   -1.058244
     93          1           0       -2.499424   -2.105238   -2.479129
     94          1           0       -1.395209   -2.359009   -1.304518
     95          1           0        2.424940   -0.250715   -1.069587
     96          1           0       -1.790368    1.347281    0.075001
     97          1           0        0.402989    1.836874    0.793646
     98          1           0        0.217917   -0.804717   -1.147410
 ---------------------------------------------------------------------

 SCF Done:  E(RCAM-B3LYP) =  -1706.89743632     A.U. after   15 cycles

 Excitation energies and oscillator strengths:

 Excited State   1:      Singlet-A      2.1371 eV  580.14 nm  f=3.5678  <S**2>=0.000
     155 ->158        -0.13918
     156 ->157         0.69433
 This state for optimization and/or second-order correction.
 Total Energy, E(TD-HF/TD-DFT) =  -1706.81889841
 Copying the excited state density for this state as the 1-particle RhoCI density.

 The electronic state is 1-A.
 Alpha  occ. eigenvalues --  -19.21697 -19.21154 -10.30463 -10.29795 -10.29205
 Alpha  occ. eigenvalues --  -10.28614 -10.28457 -10.27893 -10.27455 -10.27333
 Alpha  occ. eigenvalues --  -10.27293 -10.27232 -10.27021 -10.26949 -10.26919
 Alpha  occ. eigenvalues --  -10.26792 -10.26672 -10.26572 -10.26561 -10.26438
 Alpha  occ. eigenvalues --  -10.26436 -10.26363 -10.26360 -10.26172 -10.26104
 Alpha  occ. eigenvalues --  -10.25945 -10.25944 -10.25713 -10.25555 -10.25491
 Alpha  occ. eigenvalues --  -10.25459 -10.25360 -10.25275 -10.25235 -10.25110
 Alpha  occ. eigenvalues --  -10.24991 -10.24886 -10.24880 -10.24878 -10.24692
 Alpha  occ. eigenvalues --  -10.24513 -10.23876  -1.12347  -1.06675  -0.93530
 Alpha  occ. eigenvalues --   -0.93085  -0.91761  -0.90977  -0.90136  -0.89187
 Alpha  occ. eigenvalues --   -0.88120  -0.87434  -0.86336  -0.85142  -0.84525
 Alpha  occ. eigenvalues --   -0.82498  -0.81523  -0.80164  -0.79612  -0.78919
 Alpha  occ. eigenvalues --   -0.76862  -0.76637  -0.76475  -0.76044  -0.75488
 Alpha  occ. eigenvalues --   -0.75321  -0.75218  -0.74760  -0.72938  -0.70462
 Alpha  occ. eigenvalues --   -0.69044  -0.67019  -0.65531  -0.64666  -0.64022
 Alpha  occ. eigenvalues --   -0.63250  -0.62073  -0.61420  -0.60238  -0.60032
 Alpha  occ. eigenvalues --   -0.59440  -0.59308  -0.57878  -0.57531  -0.56202
 Alpha  occ. eigenvalues --   -0.55678  -0.55005  -0.54284  -0.53918  -0.53596
 Alpha  occ. eigenvalues --   -0.53134  -0.52744  -0.51903  -0.51568  -0.51244
 Alpha  occ. eigenvalues --   -0.49845  -0.49637  -0.49269  -0.48774  -0.48541
 Alpha  occ. eigenvalues --   -0.48513  -0.48479  -0.48134  -0.48074  -0.47841
 Alpha  occ. eigenvalues --   -0.47416  -0.47150  -0.46593  -0.46266  -0.46037
 Alpha  occ. eigenvalues --   -0.45589  -0.45432  -0.45157  -0.44596  -0.44301
 Alpha  occ. eigenvalues --   -0.44015  -0.43868  -0.43679  -0.43458  -0.43224
 Alpha  occ. eigenvalues --   -0.42932  -0.42399  -0.42259  -0.42139  -0.42074
 Alpha  occ. eigenvalues --   -0.41722  -0.41612  -0.41226  -0.40979  -0.40537
 Alpha  occ. eigenvalues --   -0.40265  -0.40190  -0.40167  -0.39414  -0.39261
 Alpha  occ. eigenvalues --   -0.38697  -0.38211  -0.37967  -0.37867  -0.37282
 Alpha  occ. eigenvalues --   -0.37187  -0.36897  -0.36443  -0.35949  -0.35665
 Alpha  occ. eigenvalues --   -0.35389  -0.35336  -0.34049  -0.31962  -0.31548
 Alpha  occ. eigenvalues --   -0.30624  -0.29925  -0.27951  -0.25498  -0.23366
 Alpha  occ. eigenvalues --   -0.18905
 Alpha virt. eigenvalues --   -0.05798  -0.00302   0.02591   0.05544   0.07254
 Alpha virt. eigenvalues --    0.07848   0.09018   0.10152   0.11125   0.11340
 Alpha virt. eigenvalues --    0.12225   0.12644   0.13073   0.13534   0.13977

 Mulliken charges:
               1
     1  O   -0.538446
     2  O   -0.583076
     3  C   -0.029028
     4  C    0.010904
     5  C   -0.194567
     6  C   -0.200929
     7  C    0.210169
     8  C    0.174057
     9  C    0.053058
    10  C    0.066176
    11  C   -0.232829
    12  C   -0.211665
    13  C    0.090410
    14  C    0.074750
    15  C   -0.279995
    16  C   -0.286486
    17  C   -0.298064
    18  C   -0.316298
    19  C   -0.107254
    20  C   -0.166797
    21  C   -0.391189
    22  C   -0.347246
    23  C   -0.103722
    24  C   -0.066610
    25  C    0.056582
    26  C    0.117288
    27  C   -0.386716
    28  C   -0.361368
    29  C   -0.097870
    30  C   -0.118943
    31  C   -0.098263
    32  C   -0.093804
    33  C   -0.118831
    34  C   -0.108082
    35  C    0.108131
    36  C    0.079624
    37  C   -0.376831
    38  C   -0.376127
    39  C   -0.123774
    40  C   -0.130668
    41  C   -0.098635
    42  C   -0.057418
    43  H    0.082545
    44  H    0.054286
    45  H    0.087386
    46  H    0.109556
    47  H    0.047524
    48  H    0.072410
    49  H    0.107096
    50  H    0.112361
    51  H    0.121282
    52  H    0.090020
    53  H    0.104423
    54  H    0.093818
    55  H    0.089974
    56  H    0.105958
    57  H    0.076460
    58  H    0.106702
    59  H    0.080258
    60  H    0.120629
    61  H    0.104145
    62  H    0.094794
    63  H    0.115314
    64  H    0.098293
    65  H    0.090340
    66  H    0.042253
    67  H    0.108001
    68  H    0.125007
    69  H    0.105637
    70  H    0.084489
    71  H    0.138683
    72  H    0.086926
    73  H    0.304743
    74  H    0.303130
    75  H    0.085959
    76  H    0.084361
    77  H    0.089862
    78  H    0.131839
    79  H    0.144295
    80  H    0.110470
    81  H    0.109557
    82  H    0.112324
    83  H    0.072695
    84  H    0.066746
    85  H    0.073724
    86  H    0.081901
    87  H    0.083348
    88  H    0.084914
    89  H    0.112417
    90  H    0.106094
    91  H    0.122471
    92  H    0.123823
    93  H    0.128558
    94  H    0.119564
    95  H    0.072922
    96  H    0.081261
    97  H    0.102530
    98  H    0.094307
 Sum of Mulliken charges =  -0.00000

 Dipole moment (field-independent basis, Debye):
    X=             -0.7289    Y=             -1.3840    Z=              2.0292  Tot=              2.5622
 Quadrupole moment (field-independent basis, Debye-Ang):
   XX=           -278.1007   YY=           -241.2308   ZZ=           -257.3153
   XY=              9.0944   XZ=            -15.7864   YZ=              4.4184

 Normal termination of Gaussian 16 at Tue Jul  9 09:25:52 2019.
