 Gaussian 16, Revision A.03,
 Gaussian 16:  ES64L-G16RevA.03 25-Dec-2016

 -------------------------------------
 # td=(NStates=1) CAM-B3LYP/6-31G(d,p)
 -------------------------------------

 --
 TD
 --
 Symbolic Z-matrix:
 Charge =  0 Multiplicity = 1

                         Standard orientation:
 ---------------------------------------------------------------------
 Center     Atomic      Atomic             Coordinates (Angstroms)
 Number     Number       Type             X           Y           Z
 ---------------------------------------------------------------------
      1          8           0       14.666539   -2.288708   -0.442448
      2          8           0      -14.738634    2.020096    0.943630
      3          6           0       11.345251   -1.341009    1.102297
      4          6           0      -12.429550   -1.031932    0.466896
      5          6           0       12.762250   -1.820854    0.964437
      6          6           0      -13.744700   -0.310073    0.555271
      7          6           0       13.277605   -1.899928   -0.408174
      8          6           0      -13.608785    1.241052    0.857483
      9          6           0       10.972613   -0.259839    0.075702
     10          6           0      -11.231008   -0.203605   -0.135019
     11          6           0       13.174395   -0.534211   -1.096913
     12          6           0      -12.660257    1.857804   -0.221290
     13          6           0       11.801484    0.138906   -0.898503
     14          6           0      -11.405017    1.077495   -0.517259
     15          6           0       10.967093   -0.897796    2.580279
     16          6           0       10.418262   -2.495996    0.666157
     17          6           0      -11.904141   -1.502785    1.960183
     18          6           0      -12.667628   -2.331451   -0.269829
     19          6           0        9.670407    0.409168    0.195946
     20          6           0      -10.044240   -0.971448   -0.398286
     21          6           0       11.476529    1.167525   -2.095307
     22          6           0      -10.470257    2.068278   -1.291000
     23          6           0        9.364290    1.668081   -0.008241
     24          6           0       -8.767667   -0.487699   -0.340683
     25          6           0        8.007275    2.289892    0.082693
     26          6           0       -7.539950   -1.256386   -0.489225
     27          6           0        7.942832    3.723040    0.253186
     28          6           0       -7.736951   -2.629833   -1.111324
     29          6           0        6.853644    1.495764    0.027503
     30          6           0       -6.305051   -0.677184   -0.394221
     31          6           0        5.528366    2.029996    0.152065
     32          6           0       -4.999350   -1.197605   -0.606624
     33          6           0        4.373956    1.177692   -0.024410
     34          6           0       -3.883183   -0.407193   -0.259603
     35          6           0        3.101171    1.640505    0.187416
     36          6           0       -2.510050   -0.851009   -0.291332
     37          6           0        2.800999    3.102848    0.438284
     38          6           0       -2.220098   -2.167159   -0.904068
     39          6           0        2.126924    0.650126    0.072755
     40          6           0       -1.547474    0.143041    0.068243
     41          6           0        0.757071    0.840883    0.209818
     42          6           0       -0.160756   -0.159017    0.047346
     43          1           0       13.443682   -1.016373    1.337104
     44          1           0       13.014113   -2.696223    1.465900
     45          1           0      -14.449505   -0.823437    1.129865
     46          1           0      -14.282951   -0.322734   -0.450135
     47          1           0       12.467293   -2.472142   -1.086326
     48          1           0      -13.130840    1.391055    1.900018
     49          1           0       13.912466    0.016634   -0.508042
     50          1           0       13.364927   -0.623770   -2.181997
     51          1           0      -13.060233    1.807355   -1.294166
     52          1           0      -12.532172    3.087213   -0.147123
     53          1           0       11.284657   -1.835398    3.146740
     54          1           0       10.059975   -0.474528    2.805543
     55          1           0       11.556832   -0.131700    2.774197
     56          1           0       10.449416   -2.759416   -0.487051
     57          1           0       10.341784   -3.263503    1.475766
     58          1           0        9.248418   -2.313174    0.677571
     59          1           0      -11.548202   -0.669914    2.540424
     60          1           0      -11.211175   -2.362436    1.857544
     61          1           0      -12.733685   -2.012169    2.466715
     62          1           0      -13.448926   -2.910215    0.142662
     63          1           0      -11.906867   -2.948231   -0.562947
     64          1           0      -13.166836   -1.956505   -1.241526
     65          1           0        8.754279   -0.202483    0.524054
     66          1           0      -10.329479   -1.911014   -0.827618
     67          1           0       10.434622    1.213483   -2.318320
     68          1           0       11.643205    2.191526   -1.617578
     69          1           0       12.192747    0.930978   -2.902419
     70          1           0      -11.112361    2.510841   -2.081363
     71          1           0       -9.977089    1.430381   -2.020623
     72          1           0       -9.846227    2.567494   -0.489105
     73          1           0       14.815213   -3.129533    0.219940
     74          1           0      -15.150888    1.521291    1.712125
     75          1           0       10.116804    2.400180   -0.053452
     76          1           0       -8.339763    0.515121    0.054007
     77          1           0        8.959289    4.061449    0.419700
     78          1           0        7.428507    4.290165   -0.591910
     79          1           0        7.406847    3.871680    1.249913
     80          1           0       -8.604425   -3.106972   -0.579910
     81          1           0       -8.177966   -2.471462   -2.208574
     82          1           0       -6.763091   -3.278295   -1.233544
     83          1           0        7.124661    0.333710   -0.158596
     84          1           0       -6.338875    0.310733   -0.012024
     85          1           0        5.560464    3.092648    0.402173
     86          1           0       -4.921270   -2.130433   -1.179225
     87          1           0        4.323291    0.046521   -0.196363
     88          1           0       -3.993283    0.602074    0.220116
     89          1           0        3.668547    3.632857    1.245721
     90          1           0        1.698369    2.961108    0.654637
     91          1           0        2.985959    3.646321   -0.689392
     92          1           0       -2.518530   -2.967606   -0.071581
     93          1           0       -3.029101   -2.426408   -1.789739
     94          1           0       -1.119826   -2.451961   -1.394364
     95          1           0        2.631487   -0.209321   -0.201976
     96          1           0       -2.141200    1.047303    0.402611
     97          1           0        0.251099    1.898765    0.619444
     98          1           0       -0.045265   -1.081136   -0.092862
 ---------------------------------------------------------------------

 SCF Done:  E(RCAM-B3LYP) =  -1706.93788249     A.U. after   15 cycles

 Excitation energies and oscillator strengths:

 Excited State   1:      Singlet-A      2.1123 eV  586.96 nm  f=3.6827  <S**2>=0.000
     155 ->158         0.14929
     156 ->157         0.69167
 This state for optimization and/or second-order correction.
 Total Energy, E(TD-HF/TD-DFT) =  -1706.86025699
 Copying the excited state density for this state as the 1-particle RhoCI density.

 The electronic state is 1-A.
 Alpha  occ. eigenvalues --  -19.22921 -19.22026 -10.31408 -10.30850 -10.29078
 Alpha  occ. eigenvalues --  -10.29074 -10.28235 -10.28061 -10.28044 -10.27603
 Alpha  occ. eigenvalues --  -10.27363 -10.27212 -10.26994 -10.26843 -10.26830
 Alpha  occ. eigenvalues --  -10.26792 -10.26726 -10.26653 -10.26529 -10.26527
 Alpha  occ. eigenvalues --  -10.26521 -10.26399 -10.26301 -10.26278 -10.26205
 Alpha  occ. eigenvalues --  -10.26100 -10.25873 -10.25781 -10.25778 -10.25662
 Alpha  occ. eigenvalues --  -10.25619 -10.25516 -10.25428 -10.25247 -10.25220
 Alpha  occ. eigenvalues --  -10.25208 -10.25135 -10.25107 -10.24926 -10.24460
 Alpha  occ. eigenvalues --  -10.24132 -10.24000  -1.11245  -1.07712  -0.93917
 Alpha  occ. eigenvalues --   -0.92865  -0.92749  -0.91442  -0.90683  -0.89868
 Alpha  occ. eigenvalues --   -0.87321  -0.86682  -0.86437  -0.85427  -0.84504
 Alpha  occ. eigenvalues --   -0.82593  -0.81333  -0.80398  -0.78982  -0.77655
 Alpha  occ. eigenvalues --   -0.77302  -0.76139  -0.75930  -0.75904  -0.75329
 Alpha  occ. eigenvalues --   -0.75182  -0.75088  -0.74515  -0.73141  -0.70644
 Alpha  occ. eigenvalues --   -0.68474  -0.67208  -0.65486  -0.64603  -0.64347
 Alpha  occ. eigenvalues --   -0.63972  -0.63325  -0.62439  -0.59637  -0.58700
 Alpha  occ. eigenvalues --   -0.58327  -0.58013  -0.57784  -0.56890  -0.56510
 Alpha  occ. eigenvalues --   -0.55676  -0.55399  -0.55072  -0.54256  -0.53715
 Alpha  occ. eigenvalues --   -0.52839  -0.52636  -0.51372  -0.51252  -0.50993
 Alpha  occ. eigenvalues --   -0.50894  -0.50454  -0.49642  -0.49449  -0.49226
 Alpha  occ. eigenvalues --   -0.49103  -0.48710  -0.48386  -0.47574  -0.47374
 Alpha  occ. eigenvalues --   -0.47233  -0.47028  -0.46627  -0.46385  -0.46231
 Alpha  occ. eigenvalues --   -0.46048  -0.45867  -0.45455  -0.45272  -0.45108
 Alpha  occ. eigenvalues --   -0.44859  -0.44450  -0.43894  -0.43667  -0.43486
 Alpha  occ. eigenvalues --   -0.42917  -0.42787  -0.42438  -0.42277  -0.42154
 Alpha  occ. eigenvalues --   -0.41761  -0.41576  -0.41226  -0.40854  -0.40648
 Alpha  occ. eigenvalues --   -0.40268  -0.39906  -0.39610  -0.39526  -0.39413
 Alpha  occ. eigenvalues --   -0.39155  -0.38746  -0.38645  -0.38266  -0.37900
 Alpha  occ. eigenvalues --   -0.37536  -0.37121  -0.36408  -0.36149  -0.35808
 Alpha  occ. eigenvalues --   -0.34882  -0.34321  -0.34116  -0.32321  -0.32096
 Alpha  occ. eigenvalues --   -0.31513  -0.29696  -0.27985  -0.26051  -0.22983
 Alpha  occ. eigenvalues --   -0.18950
 Alpha virt. eigenvalues --   -0.05976  -0.00894   0.02785   0.05707   0.08299
 Alpha virt. eigenvalues --    0.09899   0.10016   0.10888   0.11325   0.11791
 Alpha virt. eigenvalues --    0.12362   0.12592   0.12672   0.12782   0.13177

 Mulliken charges:
               1
     1  O   -0.566714
     2  O   -0.529884
     3  C   -0.014479
     4  C   -0.007224
     5  C   -0.173529
     6  C   -0.214364
     7  C    0.171826
     8  C    0.167970
     9  C    0.066283
    10  C    0.066956
    11  C   -0.218260
    12  C   -0.220299
    13  C    0.000858
    14  C    0.014171
    15  C   -0.300032
    16  C   -0.304939
    17  C   -0.308778
    18  C   -0.316751
    19  C   -0.106767
    20  C   -0.139909
    21  C   -0.347393
    22  C   -0.346807
    23  C   -0.101446
    24  C   -0.080879
    25  C    0.077844
    26  C    0.104348
    27  C   -0.387715
    28  C   -0.364681
    29  C   -0.098466
    30  C   -0.119883
    31  C   -0.133356
    32  C   -0.091798
    33  C   -0.121781
    34  C   -0.126880
    35  C    0.141693
    36  C    0.124603
    37  C   -0.327800
    38  C   -0.374469
    39  C   -0.102554
    40  C   -0.123967
    41  C   -0.114480
    42  C   -0.036703
    43  H    0.096957
    44  H    0.084426
    45  H    0.090620
    46  H    0.094557
    47  H    0.057608
    48  H    0.058931
    49  H    0.116492
    50  H    0.107863
    51  H    0.108156
    52  H    0.095589
    53  H    0.090943
    54  H    0.120274
    55  H    0.117465
    56  H    0.108195
    57  H    0.093809
    58  H    0.083183
    59  H    0.112605
    60  H    0.104472
    61  H    0.086916
    62  H    0.108237
    63  H    0.112666
    64  H    0.087465
    65  H    0.080537
    66  H    0.093170
    67  H    0.135778
    68  H    0.111853
    69  H    0.104813
    70  H    0.109191
    71  H    0.117980
    72  H    0.134824
    73  H    0.309356
    74  H    0.308113
    75  H    0.073150
    76  H    0.074067
    77  H    0.109820
    78  H    0.126567
    79  H    0.121013
    80  H    0.111796
    81  H    0.105053
    82  H    0.093010
    83  H    0.070364
    84  H    0.066396
    85  H    0.094583
    86  H    0.086827
    87  H    0.084423
    88  H    0.085403
    89  H    0.094749
    90  H    0.105452
    91  H    0.103286
    92  H    0.116058
    93  H    0.104294
    94  H    0.103256
    95  H    0.076636
    96  H    0.079715
    97  H    0.092173
    98  H    0.065297
 Sum of Mulliken charges =  -0.00000

 Dipole moment (field-independent basis, Debye):
    X=              0.3175    Y=             -1.6190    Z=              1.5919  Tot=              2.2927
 Quadrupole moment (field-independent basis, Debye-Ang):
   XX=           -270.0124   YY=           -248.5868   ZZ=           -261.1289
   XY=             17.2334   XZ=              8.2723   YZ=              0.2820

 Normal termination of Gaussian 16 at Thu Jul 11 22:13:12 2019.
