 Gaussian 16, Revision A.03,
 Gaussian 16:  ES64L-G16RevA.03 25-Dec-2016

 -------------------------------------
 # td=(NStates=1) CAM-B3LYP/6-31G(d,p)
 -------------------------------------

 --
 TD
 --
 Symbolic Z-matrix:
 Charge =  0 Multiplicity = 1

                         Standard orientation:
 ---------------------------------------------------------------------
 Center     Atomic      Atomic             Coordinates (Angstroms)
 Number     Number       Type             X           Y           Z
 ---------------------------------------------------------------------
      1          8           0       14.719981   -2.180975   -0.258446
      2          8           0      -14.741520    1.949521    0.961229
      3          6           0       11.222172   -1.428311    1.043194
      4          6           0      -12.447108   -0.969368    0.399477
      5          6           0       12.667049   -1.893080    1.096092
      6          6           0      -13.671660   -0.240751    0.583102
      7          6           0       13.350277   -1.899461   -0.335731
      8          6           0      -13.490566    1.285118    0.963430
      9          6           0       11.016243   -0.224756    0.086622
     10          6           0      -11.226768   -0.168364   -0.219919
     11          6           0       13.273096   -0.436690   -0.910097
     12          6           0      -12.707947    1.922090   -0.201234
     13          6           0       11.933579    0.235199   -0.826286
     14          6           0      -11.436648    1.168182   -0.487121
     15          6           0       10.879059   -0.956493    2.428620
     16          6           0       10.331474   -2.577112    0.527674
     17          6           0      -12.083662   -1.389047    1.955857
     18          6           0      -12.735688   -2.268648   -0.332014
     19          6           0        9.711454    0.392614    0.189557
     20          6           0      -10.040190   -0.916910   -0.488270
     21          6           0       11.717086    1.237952   -1.892133
     22          6           0      -10.357711    1.954002   -1.123835
     23          6           0        9.451844    1.798509    0.085391
     24          6           0       -8.742234   -0.558737   -0.207182
     25          6           0        8.064107    2.258152    0.076558
     26          6           0       -7.602178   -1.306122   -0.429428
     27          6           0        7.875757    3.765443    0.343780
     28          6           0       -7.743888   -2.716927   -0.929126
     29          6           0        6.885291    1.508567   -0.024758
     30          6           0       -6.353476   -0.666837   -0.403214
     31          6           0        5.537095    2.003225    0.113275
     32          6           0       -5.063738   -1.253788   -0.496230
     33          6           0        4.398087    1.146926   -0.074704
     34          6           0       -3.938300   -0.424522   -0.382842
     35          6           0        3.150447    1.577920    0.135624
     36          6           0       -2.632458   -0.858483   -0.475841
     37          6           0        2.817849    2.973066    0.587122
     38          6           0       -2.241388   -2.245942   -0.797312
     39          6           0        2.124890    0.690835   -0.223925
     40          6           0       -1.613091    0.016843   -0.249943
     41          6           0        0.727612    0.827242   -0.085737
     42          6           0       -0.211169   -0.196666   -0.273068
     43          1           0       13.292251   -1.062076    1.367160
     44          1           0       12.574723   -2.826412    1.604072
     45          1           0      -14.380684   -0.703536    1.306870
     46          1           0      -14.333218   -0.037662   -0.336013
     47          1           0       12.611904   -2.719699   -0.824115
     48          1           0      -13.093055    1.138021    1.950936
     49          1           0       14.086259    0.186085   -0.491599
     50          1           0       13.562772   -0.404765   -1.899542
     51          1           0      -13.215446    1.959800   -1.145422
     52          1           0      -12.300503    3.009995    0.071037
     53          1           0       10.944546   -1.858667    3.281479
     54          1           0        9.821203   -0.842494    2.579244
     55          1           0       11.380306   -0.139149    2.716608
     56          1           0       10.502265   -2.716315   -0.483997
     57          1           0       10.231141   -3.585932    1.095005
     58          1           0        9.373990   -2.322475    0.649573
     59          1           0      -11.961301   -0.447275    2.496496
     60          1           0      -11.043208   -1.778802    2.105652
     61          1           0      -13.022561   -1.858187    2.398099
     62          1           0      -13.416868   -2.812966    0.161316
     63          1           0      -11.798047   -2.949097   -0.419251
     64          1           0      -13.054120   -2.090745   -1.370213
     65          1           0        9.059744   -0.206561    0.736133
     66          1           0      -10.310078   -1.899706   -1.224480
     67          1           0       10.597547    1.573278   -1.768803
     68          1           0       12.540808    2.041959   -1.608491
     69          1           0       12.134825    0.808302   -2.994140
     70          1           0      -10.771085    2.663192   -2.064113
     71          1           0       -9.639274    1.450414   -1.595409
     72          1           0       -9.839941    2.511137   -0.353859
     73          1           0       14.739591   -3.269408   -0.131396
     74          1           0      -15.246468    1.534775    1.688205
     75          1           0       10.171366    2.582243   -0.153725
     76          1           0       -8.714917    0.463667    0.257629
     77          1           0        8.778008    4.297088    0.520821
     78          1           0        7.275168    4.038240   -0.542860
     79          1           0        7.305192    4.110529    1.312807
     80          1           0       -8.196326   -3.484080   -0.252794
     81          1           0       -8.519178   -2.604201   -1.733781
     82          1           0       -6.901122   -3.066951   -1.337044
     83          1           0        6.917062    0.521313   -0.514503
     84          1           0       -6.289087    0.418567   -0.230303
     85          1           0        5.265819    3.043455    0.536549
     86          1           0       -4.954177   -2.227530   -0.737543
     87          1           0        4.523415    0.163252   -0.553867
     88          1           0       -4.071526    0.625490   -0.366056
     89          1           0        3.754114    3.244293    1.226243
     90          1           0        1.850397    3.136259    1.252880
     91          1           0        2.837861    3.731996   -0.460970
     92          1           0       -2.942565   -2.941350   -0.006703
     93          1           0       -2.328460   -2.507651   -1.980184
     94          1           0       -1.139580   -2.564568   -0.512103
     95          1           0        2.405643   -0.406843   -0.465404
     96          1           0       -1.883234    1.114531   -0.137830
     97          1           0        0.405507    1.920724    0.026660
     98          1           0       -0.172689   -1.091102   -0.739780
 ---------------------------------------------------------------------

 SCF Done:  E(RCAM-B3LYP) =  -1706.94121862     A.U. after   16 cycles

 Excitation energies and oscillator strengths:

 Excited State   1:      Singlet-A      1.8874 eV  656.89 nm  f=3.8005  <S**2>=0.000
     155 ->158        -0.15335
     156 ->157         0.69151
 This state for optimization and/or second-order correction.
 Total Energy, E(TD-HF/TD-DFT) =  -1706.87185619
 Copying the excited state density for this state as the 1-particle RhoCI density.

 The electronic state is 1-A.
 Alpha  occ. eigenvalues --  -19.23320 -19.21401 -10.31914 -10.30420 -10.29016
 Alpha  occ. eigenvalues --  -10.28791 -10.28015 -10.27603 -10.27474 -10.27425
 Alpha  occ. eigenvalues --  -10.27267 -10.27239 -10.27180 -10.27085 -10.27070
 Alpha  occ. eigenvalues --  -10.27067 -10.26934 -10.26518 -10.26495 -10.26426
 Alpha  occ. eigenvalues --  -10.26421 -10.26307 -10.26108 -10.26103 -10.26059
 Alpha  occ. eigenvalues --  -10.25983 -10.25881 -10.25865 -10.25821 -10.25785
 Alpha  occ. eigenvalues --  -10.25677 -10.25612 -10.25585 -10.25224 -10.25022
 Alpha  occ. eigenvalues --  -10.24771 -10.24625 -10.24582 -10.24478 -10.24044
 Alpha  occ. eigenvalues --  -10.23762 -10.23719  -1.09613  -1.09128  -0.93967
 Alpha  occ. eigenvalues --   -0.93299  -0.92722  -0.92099  -0.90786  -0.89437
 Alpha  occ. eigenvalues --   -0.87910  -0.87492  -0.86964  -0.85044  -0.84336
 Alpha  occ. eigenvalues --   -0.82938  -0.81227  -0.79617  -0.79231  -0.77836
 Alpha  occ. eigenvalues --   -0.77601  -0.76567  -0.76084  -0.75649  -0.75574
 Alpha  occ. eigenvalues --   -0.75531  -0.75400  -0.74425  -0.72764  -0.70753
 Alpha  occ. eigenvalues --   -0.68818  -0.67867  -0.65819  -0.65507  -0.63760
 Alpha  occ. eigenvalues --   -0.63156  -0.62711  -0.62240  -0.60414  -0.59441
 Alpha  occ. eigenvalues --   -0.59058  -0.58884  -0.58713  -0.57523  -0.56114
 Alpha  occ. eigenvalues --   -0.55705  -0.55394  -0.54853  -0.54493  -0.53879
 Alpha  occ. eigenvalues --   -0.53127  -0.52792  -0.51940  -0.51740  -0.50623
 Alpha  occ. eigenvalues --   -0.50363  -0.50341  -0.49768  -0.49460  -0.49088
 Alpha  occ. eigenvalues --   -0.48913  -0.48504  -0.48080  -0.47858  -0.47431
 Alpha  occ. eigenvalues --   -0.47167  -0.47099  -0.47053  -0.46937  -0.46741
 Alpha  occ. eigenvalues --   -0.46314  -0.45792  -0.45473  -0.45221  -0.44652
 Alpha  occ. eigenvalues --   -0.44554  -0.44289  -0.44102  -0.43944  -0.43744
 Alpha  occ. eigenvalues --   -0.43450  -0.42828  -0.42723  -0.42253  -0.42025
 Alpha  occ. eigenvalues --   -0.41961  -0.41672  -0.41035  -0.40776  -0.40645
 Alpha  occ. eigenvalues --   -0.40611  -0.40126  -0.40037  -0.39618  -0.39249
 Alpha  occ. eigenvalues --   -0.39192  -0.38916  -0.38391  -0.38301  -0.38046
 Alpha  occ. eigenvalues --   -0.37948  -0.37135  -0.36974  -0.36676  -0.36127
 Alpha  occ. eigenvalues --   -0.35110  -0.34919  -0.34081  -0.32330  -0.30828
 Alpha  occ. eigenvalues --   -0.30364  -0.29737  -0.27774  -0.25944  -0.22601
 Alpha  occ. eigenvalues --   -0.18560
 Alpha virt. eigenvalues --   -0.06786  -0.01930   0.01507   0.05326   0.07549
 Alpha virt. eigenvalues --    0.08990   0.09435   0.10700   0.11933   0.12076
 Alpha virt. eigenvalues --    0.12428   0.12709   0.13163   0.13281   0.13339

 Mulliken charges:
               1
     1  O   -0.541675
     2  O   -0.549061
     3  C   -0.030218
     4  C    0.013104
     5  C   -0.160464
     6  C   -0.213574
     7  C    0.144804
     8  C    0.160306
     9  C    0.059068
    10  C    0.052862
    11  C   -0.241745
    12  C   -0.201146
    13  C    0.071338
    14  C    0.039289
    15  C   -0.283181
    16  C   -0.314964
    17  C   -0.322732
    18  C   -0.287253
    19  C   -0.115761
    20  C   -0.140941
    21  C   -0.352247
    22  C   -0.360941
    23  C   -0.138607
    24  C   -0.097835
    25  C    0.075291
    26  C    0.097231
    27  C   -0.364385
    28  C   -0.359338
    29  C   -0.128100
    30  C   -0.129043
    31  C   -0.116550
    32  C   -0.075960
    33  C   -0.101079
    34  C   -0.112109
    35  C    0.148300
    36  C    0.151090
    37  C   -0.355975
    38  C   -0.378116
    39  C   -0.137428
    40  C   -0.141219
    41  C   -0.100814
    42  C   -0.065214
    43  H    0.101762
    44  H    0.088297
    45  H    0.071180
    46  H    0.088055
    47  H    0.055390
    48  H    0.088650
    49  H    0.122107
    50  H    0.112569
    51  H    0.137075
    52  H    0.097710
    53  H    0.059350
    54  H    0.102029
    55  H    0.122711
    56  H    0.119013
    57  H    0.086427
    58  H    0.112466
    59  H    0.097505
    60  H    0.108863
    61  H    0.095309
    62  H    0.104678
    63  H    0.083219
    64  H    0.099412
    65  H    0.098038
    66  H    0.077746
    67  H    0.121507
    68  H    0.104218
    69  H    0.094017
    70  H    0.070315
    71  H    0.133165
    72  H    0.118068
    73  H    0.312116
    74  H    0.301682
    75  H    0.107431
    76  H    0.088507
    77  H    0.105916
    78  H    0.128333
    79  H    0.103259
    80  H    0.116829
    81  H    0.115203
    82  H    0.114501
    83  H    0.082552
    84  H    0.076268
    85  H    0.088718
    86  H    0.082266
    87  H    0.090035
    88  H    0.085861
    89  H    0.107096
    90  H    0.115373
    91  H    0.098214
    92  H    0.089325
    93  H    0.112367
    94  H    0.112060
    95  H    0.071917
    96  H    0.062843
    97  H    0.086492
    98  H    0.078974
 Sum of Mulliken charges =  -0.00000

 Dipole moment (field-independent basis, Debye):
    X=              1.2496    Y=             -1.7507    Z=              0.3457  Tot=              2.1785
 Quadrupole moment (field-independent basis, Debye-Ang):
   XX=           -271.0242   YY=           -245.2718   ZZ=           -261.8930
   XY=              4.1250   XZ=            -13.3013   YZ=              3.4498

 Normal termination of Gaussian 16 at Tue Jul 16 19:41:32 2019.
