 Gaussian 16, Revision A.03,
 Gaussian 16:  ES64L-G16RevA.03 25-Dec-2016

 -------------------------------------
 # td=(NStates=1) CAM-B3LYP/6-31G(d,p)
 -------------------------------------

 --
 TD
 --
 Symbolic Z-matrix:
 Charge =  0 Multiplicity = 1

                         Standard orientation:
 ---------------------------------------------------------------------
 Center     Atomic      Atomic             Coordinates (Angstroms)
 Number     Number       Type             X           Y           Z
 ---------------------------------------------------------------------
      1          8           0       14.554858   -2.369234   -0.271148
      2          8           0      -14.754442    1.671131    1.218065
      3          6           0       11.157287   -1.525495    1.029592
      4          6           0      -12.262311   -1.110359    0.768695
      5          6           0       12.622549   -1.898371    1.032569
      6          6           0      -13.666904   -0.428297    0.944324
      7          6           0       13.277547   -1.908320   -0.326544
      8          6           0      -13.453754    1.033026    1.284266
      9          6           0       10.954400   -0.396512    0.143535
     10          6           0      -11.238595   -0.215824   -0.130433
     11          6           0       13.172535   -0.483435   -0.926369
     12          6           0      -12.735763    1.765132    0.054198
     13          6           0       11.764229    0.003168   -0.770952
     14          6           0      -11.616934    1.004019   -0.574866
     15          6           0       10.774863   -1.275417    2.487835
     16          6           0       10.228929   -2.652698    0.467724
     17          6           0      -11.612966   -1.464717    2.035120
     18          6           0      -12.597815   -2.443039   -0.087404
     19          6           0        9.699197    0.301478    0.367374
     20          6           0      -10.016490   -0.918466   -0.489422
     21          6           0       11.555940    1.218172   -1.746794
     22          6           0      -10.820043    1.842347   -1.543810
     23          6           0        9.350124    1.689492    0.267988
     24          6           0       -8.755106   -0.393389   -0.385575
     25          6           0        8.064858    2.243467    0.366285
     26          6           0       -7.534183   -1.143397   -0.776322
     27          6           0        8.032021    3.750842    0.653234
     28          6           0       -7.581128   -2.594023   -1.112070
     29          6           0        6.924604    1.596773    0.062888
     30          6           0       -6.335497   -0.436729   -0.561244
     31          6           0        5.641570    2.147885    0.205742
     32          6           0       -4.972098   -0.949175   -0.693509
     33          6           0        4.503018    1.223182   -0.010250
     34          6           0       -3.873443   -0.105810   -0.491370
     35          6           0        3.185501    1.725187   -0.004828
     36          6           0       -2.566991   -0.546348   -0.729567
     37          6           0        2.832673    3.176186    0.171553
     38          6           0       -2.331334   -2.003360   -1.154149
     39          6           0        2.081420    0.796306   -0.213511
     40          6           0       -1.509556    0.303321   -0.462400
     41          6           0        0.764882    0.981229   -0.251362
     42          6           0       -0.174395    0.078690   -0.512719
     43          1           0       13.421001   -1.403177    1.730295
     44          1           0       12.717164   -3.013270    1.361999
     45          1           0      -14.143676   -1.102832    1.863148
     46          1           0      -14.422643   -0.604955   -0.072784
     47          1           0       12.549597   -2.605968   -0.886194
     48          1           0      -12.909169    1.335883    2.185398
     49          1           0       13.901497    0.071604   -0.254333
     50          1           0       13.532997   -0.536127   -1.925733
     51          1           0      -13.479614    1.851790   -0.727935
     52          1           0      -12.397872    2.835996    0.403114
     53          1           0       11.113535   -2.284080    3.087808
     54          1           0        9.630787   -0.879152    2.547647
     55          1           0       11.173890   -0.210100    2.760168
     56          1           0       10.318797   -2.761461   -0.636285
     57          1           0       10.351943   -3.506425    1.139540
     58          1           0        9.157109   -2.152891    0.430213
     59          1           0      -11.301919   -0.613389    2.714448
     60          1           0      -10.697233   -2.038204    2.014811
     61          1           0      -12.360360   -2.167758    2.366049
     62          1           0      -13.373380   -2.823015    0.628788
     63          1           0      -11.941576   -3.359091   -0.156163
     64          1           0      -12.850653   -2.304495   -1.170312
     65          1           0        8.893522   -0.315167    0.729180
     66          1           0      -10.139663   -1.941191   -0.846439
     67          1           0       10.434812    1.130890   -2.111493
     68          1           0       11.788132    2.298584   -1.018981
     69          1           0       12.291330    1.092697   -2.578256
     70          1           0      -11.394119    2.320994   -2.267859
     71          1           0      -10.137860    1.099515   -2.089789
     72          1           0      -10.409624    2.620690   -1.013066
     73          1           0       14.779486   -3.145475    0.149305
     74          1           0      -15.417683    1.331793    1.972863
     75          1           0       10.262958    2.382701    0.165206
     76          1           0       -8.549081    0.527132    0.211401
     77          1           0        8.875514    4.206897    0.659123
     78          1           0        7.380207    4.349894   -0.067305
     79          1           0        7.337893    3.924796    1.467138
     80          1           0       -7.872661   -3.273994   -0.346265
     81          1           0       -8.390341   -2.730210   -1.841144
     82          1           0       -6.460527   -2.962756   -1.715980
     83          1           0        7.141723    0.685272   -0.368467
     84          1           0       -6.759079    0.561364   -0.384443
     85          1           0        5.403308    3.085516    0.404584
     86          1           0       -4.722777   -2.001369   -0.874978
     87          1           0        4.844745    0.195962   -0.516887
     88          1           0       -4.110994    0.978057   -0.466059
     89          1           0        3.261111    3.650178    1.334437
     90          1           0        1.841664    3.253260    0.108564
     91          1           0        3.291672    3.695350   -0.657759
     92          1           0       -2.411510   -2.890160   -0.402783
     93          1           0       -2.709313   -2.211586   -2.218644
     94          1           0       -1.337937   -2.082476   -1.384873
     95          1           0        2.464781   -0.229660   -0.486773
     96          1           0       -1.770050    1.334330   -0.247388
     97          1           0        0.267170    1.970071   -0.012076
     98          1           0        0.042592   -0.976289   -0.587823
 ---------------------------------------------------------------------

 SCF Done:  E(RCAM-B3LYP) =  -1706.91939355     A.U. after   15 cycles

 Excitation energies and oscillator strengths:

 Excited State   1:      Singlet-A      1.9153 eV  647.34 nm  f=3.7069  <S**2>=0.000
     155 ->158        -0.14008
     156 ->157         0.69697
     156 <-157        -0.10915
 This state for optimization and/or second-order correction.
 Total Energy, E(TD-HF/TD-DFT) =  -1706.84900850
 Copying the excited state density for this state as the 1-particle RhoCI density.

 The electronic state is 1-A.
 Alpha  occ. eigenvalues --  -19.20940 -19.20720 -10.31030 -10.30169 -10.28448
 Alpha  occ. eigenvalues --  -10.28188 -10.28113 -10.28040 -10.27767 -10.27348
 Alpha  occ. eigenvalues --  -10.27298 -10.27147 -10.26932 -10.26904 -10.26825
 Alpha  occ. eigenvalues --  -10.26790 -10.26657 -10.26538 -10.26395 -10.26356
 Alpha  occ. eigenvalues --  -10.26343 -10.26269 -10.26205 -10.26074 -10.25945
 Alpha  occ. eigenvalues --  -10.25930 -10.25926 -10.25840 -10.25773 -10.25734
 Alpha  occ. eigenvalues --  -10.25589 -10.25547 -10.25444 -10.25338 -10.25207
 Alpha  occ. eigenvalues --  -10.25054 -10.24990 -10.24721 -10.24605 -10.24386
 Alpha  occ. eigenvalues --  -10.24167 -10.23347  -1.11723  -1.06453  -0.95247
 Alpha  occ. eigenvalues --   -0.92755  -0.92365  -0.91657  -0.90527  -0.89576
 Alpha  occ. eigenvalues --   -0.87625  -0.86975  -0.86917  -0.85316  -0.84130
 Alpha  occ. eigenvalues --   -0.82821  -0.81521  -0.79632  -0.79329  -0.78685
 Alpha  occ. eigenvalues --   -0.76698  -0.76568  -0.76000  -0.75854  -0.75401
 Alpha  occ. eigenvalues --   -0.75337  -0.74343  -0.74209  -0.73371  -0.71474
 Alpha  occ. eigenvalues --   -0.69250  -0.67579  -0.66184  -0.65294  -0.63975
 Alpha  occ. eigenvalues --   -0.63537  -0.62435  -0.61520  -0.61060  -0.60124
 Alpha  occ. eigenvalues --   -0.59120  -0.58837  -0.57651  -0.57199  -0.56457
 Alpha  occ. eigenvalues --   -0.55641  -0.55408  -0.54981  -0.54725  -0.53725
 Alpha  occ. eigenvalues --   -0.53346  -0.52727  -0.51361  -0.50968  -0.50791
 Alpha  occ. eigenvalues --   -0.50447  -0.50101  -0.49632  -0.49255  -0.48802
 Alpha  occ. eigenvalues --   -0.48519  -0.48418  -0.48336  -0.47859  -0.47737
 Alpha  occ. eigenvalues --   -0.47494  -0.46760  -0.46695  -0.46681  -0.46226
 Alpha  occ. eigenvalues --   -0.45818  -0.45663  -0.45138  -0.45064  -0.44689
 Alpha  occ. eigenvalues --   -0.44474  -0.44170  -0.44078  -0.43400  -0.43275
 Alpha  occ. eigenvalues --   -0.42747  -0.42671  -0.42350  -0.42018  -0.41933
 Alpha  occ. eigenvalues --   -0.41732  -0.41444  -0.41180  -0.40913  -0.40118
 Alpha  occ. eigenvalues --   -0.39947  -0.39856  -0.39526  -0.39367  -0.39309
 Alpha  occ. eigenvalues --   -0.39022  -0.38747  -0.38686  -0.38328  -0.37914
 Alpha  occ. eigenvalues --   -0.37376  -0.36994  -0.36399  -0.36179  -0.35444
 Alpha  occ. eigenvalues --   -0.34601  -0.33772  -0.33140  -0.32077  -0.31842
 Alpha  occ. eigenvalues --   -0.31319  -0.29945  -0.28055  -0.26023  -0.23117
 Alpha  occ. eigenvalues --   -0.18432
 Alpha virt. eigenvalues --   -0.06753  -0.01131   0.02233   0.05641   0.07792
 Alpha virt. eigenvalues --    0.09475   0.10717   0.11340   0.11554   0.11662
 Alpha virt. eigenvalues --    0.12155   0.12426   0.12984   0.13525   0.13733

 Mulliken charges:
               1
     1  O   -0.551506
     2  O   -0.574359
     3  C   -0.018921
     4  C   -0.027351
     5  C   -0.191259
     6  C   -0.166879
     7  C    0.187426
     8  C    0.167508
     9  C    0.140542
    10  C    0.047926
    11  C   -0.207464
    12  C   -0.216494
    13  C    0.004449
    14  C    0.035143
    15  C   -0.281687
    16  C   -0.290222
    17  C   -0.281808
    18  C   -0.316936
    19  C   -0.158886
    20  C   -0.150887
    21  C   -0.319852
    22  C   -0.352340
    23  C   -0.129486
    24  C   -0.100464
    25  C    0.107688
    26  C    0.101266
    27  C   -0.366691
    28  C   -0.360476
    29  C   -0.102329
    30  C   -0.115514
    31  C   -0.079872
    32  C   -0.110108
    33  C   -0.129734
    34  C   -0.104186
    35  C    0.087749
    36  C    0.098548
    37  C   -0.335993
    38  C   -0.386652
    39  C   -0.131629
    40  C   -0.119723
    41  C   -0.073706
    42  C   -0.058336
    43  H    0.089337
    44  H    0.050336
    45  H    0.059942
    46  H    0.097822
    47  H    0.053216
    48  H    0.096388
    49  H    0.113575
    50  H    0.109272
    51  H    0.128362
    52  H    0.095546
    53  H    0.092648
    54  H    0.085722
    55  H    0.104419
    56  H    0.112630
    57  H    0.104982
    58  H    0.089962
    59  H    0.101077
    60  H    0.116181
    61  H    0.088594
    62  H    0.092597
    63  H    0.091249
    64  H    0.113927
    65  H    0.085709
    66  H    0.085895
    67  H    0.118432
    68  H    0.078016
    69  H    0.104135
    70  H    0.110154
    71  H    0.111146
    72  H    0.118098
    73  H    0.300223
    74  H    0.298472
    75  H    0.078482
    76  H    0.098228
    77  H    0.110698
    78  H    0.103114
    79  H    0.122977
    80  H    0.133463
    81  H    0.116363
    82  H    0.071638
    83  H    0.078534
    84  H    0.079150
    85  H    0.083379
    86  H    0.103097
    87  H    0.089218
    88  H    0.088043
    89  H    0.074095
    90  H    0.118452
    91  H    0.130439
    92  H    0.118395
    93  H    0.117035
    94  H    0.116607
    95  H    0.076185
    96  H    0.069481
    97  H    0.080285
    98  H    0.078078
 Sum of Mulliken charges =  -0.00000

 Dipole moment (field-independent basis, Debye):
    X=              0.0539    Y=             -1.6270    Z=              1.0228  Tot=              1.9226
 Quadrupole moment (field-independent basis, Debye-Ang):
   XX=           -262.1501   YY=           -243.0234   ZZ=           -262.1606
   XY=              6.4139   XZ=             -9.4438   YZ=              1.3244

 Normal termination of Gaussian 16 at Tue Jul 16 02:55:13 2019.
