 Gaussian 16, Revision A.03,
 Gaussian 16:  ES64L-G16RevA.03 25-Dec-2016

 -------------------------------------
 # td=(NStates=1) CAM-B3LYP/6-31G(d,p)
 -------------------------------------

 --
 TD
 --
 Symbolic Z-matrix:
 Charge =  0 Multiplicity = 1

                         Standard orientation:
 ---------------------------------------------------------------------
 Center     Atomic      Atomic             Coordinates (Angstroms)
 Number     Number       Type             X           Y           Z
 ---------------------------------------------------------------------
      1          8           0       14.813808   -2.263106   -0.448341
      2          8           0      -14.882653    1.861112    0.929253
      3          6           0       11.299705   -1.394007    0.992781
      4          6           0      -12.384771   -1.108431    0.523418
      5          6           0       12.837392   -1.758119    1.018726
      6          6           0      -13.744915   -0.350296    0.568579
      7          6           0       13.392559   -1.842859   -0.370376
      8          6           0      -13.624587    1.134574    0.891215
      9          6           0       10.956364   -0.192208    0.049984
     10          6           0      -11.356476   -0.225442   -0.215921
     11          6           0       13.345649   -0.538751   -1.000167
     12          6           0      -12.856152    1.815660   -0.242146
     13          6           0       11.901947    0.113694   -0.889250
     14          6           0      -11.560995    0.998028   -0.622801
     15          6           0       10.934898   -1.089969    2.420970
     16          6           0       10.625840   -2.748828    0.477488
     17          6           0      -11.923808   -1.370336    1.960005
     18          6           0      -12.592573   -2.336540   -0.270157
     19          6           0        9.715745    0.330193    0.184819
     20          6           0      -10.026630   -1.029806   -0.245619
     21          6           0       11.673246    1.222731   -1.910248
     22          6           0      -10.661780    1.688407   -1.536471
     23          6           0        9.343481    1.646146    0.058763
     24          6           0       -8.824562   -0.366482   -0.215810
     25          6           0        8.049255    2.233212    0.246750
     26          6           0       -7.661099   -1.134053   -0.466387
     27          6           0        8.019160    3.747537    0.453605
     28          6           0       -7.731004   -2.538052   -0.955127
     29          6           0        6.880434    1.530273    0.024168
     30          6           0       -6.385965   -0.559932   -0.472163
     31          6           0        5.593103    2.075898    0.146876
     32          6           0       -5.075511   -1.038053   -0.539463
     33          6           0        4.463723    1.259210   -0.115109
     34          6           0       -3.921811   -0.334784   -0.232429
     35          6           0        3.061629    1.673825    0.042771
     36          6           0       -2.637754   -0.762807   -0.370999
     37          6           0        2.840733    3.123706    0.630118
     38          6           0       -2.341024   -2.162853   -0.848872
     39          6           0        2.066251    0.785367   -0.150817
     40          6           0       -1.595131    0.109897   -0.027486
     41          6           0        0.687746    0.992379    0.117301
     42          6           0       -0.280331   -0.007188   -0.163693
     43          1           0       13.453205   -1.022110    1.465986
     44          1           0       12.882199   -2.873706    1.481062
     45          1           0      -14.333322   -0.751714    1.413168
     46          1           0      -14.270755   -0.255805   -0.460001
     47          1           0       12.828124   -2.457342   -0.965093
     48          1           0      -13.085414    1.419742    1.848776
     49          1           0       14.191080    0.110546   -0.535122
     50          1           0       13.628776   -0.432569   -1.963993
     51          1           0      -13.598529    2.000597   -1.187734
     52          1           0      -12.690154    2.748801    0.000227
     53          1           0       11.322589   -1.890600    3.112238
     54          1           0        9.837893   -0.862718    2.479571
     55          1           0       11.575175   -0.352937    2.795721
     56          1           0       11.031951   -3.248543   -0.440894
     57          1           0       10.847208   -3.572835    1.142528
     58          1           0        9.600121   -2.553283    0.655581
     59          1           0      -12.005220   -0.444167    2.400144
     60          1           0      -10.895355   -1.935500    2.277691
     61          1           0      -12.685217   -1.948699    2.437370
     62          1           0      -13.352521   -3.187641   -0.001558
     63          1           0      -11.805469   -3.079622   -0.153730
     64          1           0      -12.716552   -2.318461   -1.307681
     65          1           0        9.023490   -0.331563    0.663282
     66          1           0       -9.962911   -2.043739   -0.341981
     67          1           0       10.575484    1.492886   -2.117030
     68          1           0       12.185643    2.244389   -1.686827
     69          1           0       12.154309    0.929468   -2.923941
     70          1           0      -11.136812    2.359085   -2.301670
     71          1           0      -10.162774    0.795583   -2.029803
     72          1           0       -9.957069    2.422211   -1.061755
     73          1           0       15.016635   -3.330549   -0.311326
     74          1           0      -15.400381    1.417204    1.635055
     75          1           0       10.022943    2.429366    0.139798
     76          1           0       -8.548892    0.753009   -0.185573
     77          1           0        9.133088    4.148380    0.237919
     78          1           0        7.390120    4.288741   -0.115973
     79          1           0        7.672240    3.819934    1.511120
     80          1           0       -8.115820   -3.215441   -0.011202
     81          1           0       -8.499399   -2.427920   -1.738781
     82          1           0       -6.734978   -3.010646   -1.455066
     83          1           0        6.922092    0.467684   -0.370758
     84          1           0       -6.406249    0.652324   -0.277611
     85          1           0        5.512945    3.131532    0.705115
     86          1           0       -5.114667   -2.013107   -0.742194
     87          1           0        4.553335    0.295999   -0.422266
     88          1           0       -4.156910    0.647118    0.140525
     89          1           0        3.457824    3.283452    1.464099
     90          1           0        1.859887    3.109610    1.142288
     91          1           0        2.857980    3.792238   -0.108328
     92          1           0       -3.213508   -2.800685   -0.269426
     93          1           0       -2.511351   -2.299028   -1.913348
     94          1           0       -1.361121   -2.559790   -0.632616
     95          1           0        2.534639   -0.152429   -0.383711
     96          1           0       -1.956306    1.158374    0.111301
     97          1           0        0.051113    1.958886    0.070050
     98          1           0        0.094438   -0.833694   -0.441876
 ---------------------------------------------------------------------

 SCF Done:  E(RCAM-B3LYP) =  -1706.96423503     A.U. after   16 cycles

 Excitation energies and oscillator strengths:

 Excited State   1:      Singlet-A      1.9571 eV  633.51 nm  f=3.9697  <S**2>=0.000
     155 ->158        -0.15815
     156 ->157         0.69002
 This state for optimization and/or second-order correction.
 Total Energy, E(TD-HF/TD-DFT) =  -1706.89231346
 Copying the excited state density for this state as the 1-particle RhoCI density.

 The electronic state is 1-A.
 Alpha  occ. eigenvalues --  -19.21133 -19.21066 -10.30313 -10.28862 -10.27889
 Alpha  occ. eigenvalues --  -10.27766 -10.27610 -10.27595 -10.27442 -10.27350
 Alpha  occ. eigenvalues --  -10.27325 -10.27154 -10.27114 -10.26839 -10.26828
 Alpha  occ. eigenvalues --  -10.26705 -10.26601 -10.26351 -10.26327 -10.26215
 Alpha  occ. eigenvalues --  -10.26165 -10.26092 -10.26023 -10.25921 -10.25920
 Alpha  occ. eigenvalues --  -10.25916 -10.25896 -10.25613 -10.25527 -10.25479
 Alpha  occ. eigenvalues --  -10.25427 -10.25329 -10.25305 -10.25076 -10.24967
 Alpha  occ. eigenvalues --  -10.24875 -10.24836 -10.24653 -10.24436 -10.24380
 Alpha  occ. eigenvalues --  -10.24356 -10.23995  -1.08249  -1.04878  -0.93908
 Alpha  occ. eigenvalues --   -0.93716  -0.92836  -0.91545  -0.91101  -0.90157
 Alpha  occ. eigenvalues --   -0.87883  -0.87346  -0.86553  -0.86168  -0.84825
 Alpha  occ. eigenvalues --   -0.83454  -0.82447  -0.80085  -0.79577  -0.78578
 Alpha  occ. eigenvalues --   -0.77494  -0.76759  -0.76549  -0.76178  -0.75949
 Alpha  occ. eigenvalues --   -0.75653  -0.75484  -0.74956  -0.73559  -0.71366
 Alpha  occ. eigenvalues --   -0.69646  -0.67093  -0.65792  -0.65414  -0.64882
 Alpha  occ. eigenvalues --   -0.63843  -0.62916  -0.62515  -0.61475  -0.59857
 Alpha  occ. eigenvalues --   -0.59187  -0.58668  -0.57822  -0.57086  -0.56292
 Alpha  occ. eigenvalues --   -0.55791  -0.55592  -0.55475  -0.54186  -0.53746
 Alpha  occ. eigenvalues --   -0.53262  -0.52513  -0.52111  -0.51738  -0.51096
 Alpha  occ. eigenvalues --   -0.50602  -0.50452  -0.50305  -0.49600  -0.49437
 Alpha  occ. eigenvalues --   -0.49237  -0.48933  -0.48815  -0.48779  -0.48352
 Alpha  occ. eigenvalues --   -0.48031  -0.47768  -0.47040  -0.46969  -0.46387
 Alpha  occ. eigenvalues --   -0.45978  -0.45389  -0.45151  -0.44849  -0.44776
 Alpha  occ. eigenvalues --   -0.44265  -0.43947  -0.43800  -0.43473  -0.43186
 Alpha  occ. eigenvalues --   -0.42918  -0.42665  -0.42446  -0.42086  -0.41816
 Alpha  occ. eigenvalues --   -0.41663  -0.41128  -0.41008  -0.40695  -0.40398
 Alpha  occ. eigenvalues --   -0.40197  -0.40047  -0.39906  -0.39516  -0.39403
 Alpha  occ. eigenvalues --   -0.39118  -0.38970  -0.38930  -0.38290  -0.38023
 Alpha  occ. eigenvalues --   -0.37719  -0.37147  -0.36805  -0.36322  -0.36103
 Alpha  occ. eigenvalues --   -0.35868  -0.34940  -0.34014  -0.33055  -0.32431
 Alpha  occ. eigenvalues --   -0.31878  -0.30298  -0.28705  -0.26357  -0.22805
 Alpha  occ. eigenvalues --   -0.18815
 Alpha virt. eigenvalues --   -0.06756  -0.02133   0.01987   0.05426   0.08157
 Alpha virt. eigenvalues --    0.09926   0.10598   0.11759   0.12156   0.12355
 Alpha virt. eigenvalues --    0.12660   0.12913   0.13321   0.13572   0.13684

 Mulliken charges:
               1
     1  O   -0.599008
     2  O   -0.563009
     3  C   -0.051545
     4  C    0.003362
     5  C   -0.170500
     6  C   -0.191173
     7  C    0.181815
     8  C    0.141919
     9  C    0.139066
    10  C    0.067742
    11  C   -0.194346
    12  C   -0.201905
    13  C    0.019902
    14  C    0.049043
    15  C   -0.297422
    16  C   -0.309326
    17  C   -0.303518
    18  C   -0.318226
    19  C   -0.130198
    20  C   -0.151284
    21  C   -0.369536
    22  C   -0.377509
    23  C   -0.100105
    24  C   -0.062442
    25  C    0.045471
    26  C    0.117080
    27  C   -0.364073
    28  C   -0.371385
    29  C   -0.097830
    30  C   -0.152045
    31  C   -0.091878
    32  C   -0.053259
    33  C   -0.118511
    34  C   -0.110575
    35  C    0.084529
    36  C    0.129864
    37  C   -0.366904
    38  C   -0.368482
    39  C   -0.119257
    40  C   -0.125647
    41  C   -0.110131
    42  C   -0.042945
    43  H    0.100437
    44  H    0.066641
    45  H    0.076811
    46  H    0.111113
    47  H    0.085829
    48  H    0.078307
    49  H    0.104070
    50  H    0.110900
    51  H    0.089352
    52  H    0.118335
    53  H    0.093892
    54  H    0.096193
    55  H    0.117593
    56  H    0.108350
    57  H    0.099790
    58  H    0.101862
    59  H    0.113525
    60  H    0.096073
    61  H    0.101467
    62  H    0.082446
    63  H    0.097970
    64  H    0.118858
    65  H    0.088853
    66  H    0.097177
    67  H    0.118546
    68  H    0.106157
    69  H    0.089810
    70  H    0.103950
    71  H    0.119806
    72  H    0.108035
    73  H    0.300683
    74  H    0.300136
    75  H    0.084002
    76  H    0.102157
    77  H    0.091702
    78  H    0.138065
    79  H    0.124853
    80  H    0.098851
    81  H    0.129124
    82  H    0.104319
    83  H    0.085118
    84  H    0.035202
    85  H    0.086971
    86  H    0.056251
    87  H    0.075405
    88  H    0.086261
    89  H    0.121722
    90  H    0.107136
    91  H    0.134708
    92  H    0.093681
    93  H    0.131476
    94  H    0.120097
    95  H    0.081891
    96  H    0.066304
    97  H    0.090647
    98  H    0.055270
 Sum of Mulliken charges =  -0.00000

 Dipole moment (field-independent basis, Debye):
    X=             -0.3285    Y=             -2.1478    Z=              0.8318  Tot=              2.3265
 Quadrupole moment (field-independent basis, Debye-Ang):
   XX=           -284.7643   YY=           -241.0499   ZZ=           -260.8726
   XY=              9.4374   XZ=             -6.1210   YZ=              2.6550

 Normal termination of Gaussian 16 at Wed Jul 10 08:58:56 2019.
