 Gaussian 16, Revision A.03,
 Gaussian 16:  ES64L-G16RevA.03 25-Dec-2016

 -------------------------------------
 # td=(NStates=1) CAM-B3LYP/6-31G(d,p)
 -------------------------------------

 --
 TD
 --
 Symbolic Z-matrix:
 Charge =  0 Multiplicity = 1

                         Standard orientation:
 ---------------------------------------------------------------------
 Center     Atomic      Atomic             Coordinates (Angstroms)
 Number     Number       Type             X           Y           Z
 ---------------------------------------------------------------------
      1          8           0       14.632901   -2.343115   -0.336050
      2          8           0      -14.791429    1.810138    0.983470
      3          6           0       11.179715   -1.398242    0.948752
      4          6           0      -12.346195   -0.995456    0.521070
      5          6           0       12.760210   -1.846383    1.133964
      6          6           0      -13.740758   -0.259644    0.476272
      7          6           0       13.284783   -1.854970   -0.298105
      8          6           0      -13.533353    1.214525    0.868155
      9          6           0       11.036172   -0.160223    0.003086
     10          6           0      -11.347874   -0.215371   -0.267790
     11          6           0       13.329837   -0.534859   -0.932550
     12          6           0      -12.703342    1.925346   -0.144987
     13          6           0       12.015900    0.220075   -0.821942
     14          6           0      -11.561582    1.058519   -0.605399
     15          6           0       10.630800   -1.252238    2.318447
     16          6           0       10.371449   -2.651132    0.297816
     17          6           0      -11.922315   -1.341962    1.944830
     18          6           0      -12.550095   -2.387692   -0.269283
     19          6           0        9.643097    0.372558    0.125074
     20          6           0      -10.087034   -0.943833   -0.531195
     21          6           0       11.777424    1.240899   -1.893286
     22          6           0      -10.560526    1.849279   -1.458923
     23          6           0        9.445409    1.721563    0.027311
     24          6           0       -8.842892   -0.438098   -0.444710
     25          6           0        8.043685    2.301652    0.193350
     26          6           0       -7.650058   -1.213435   -0.490811
     27          6           0        8.006000    3.750461    0.496451
     28          6           0       -7.649604   -2.672445   -0.968426
     29          6           0        6.908787    1.583542    0.016293
     30          6           0       -6.397044   -0.619273   -0.260651
     31          6           0        5.564656    2.126292    0.152338
     32          6           0       -5.054374   -1.209543   -0.348544
     33          6           0        4.460990    1.304077   -0.108115
     34          6           0       -4.010106   -0.382672   -0.223070
     35          6           0        3.123375    1.671605    0.138334
     36          6           0       -2.576984   -0.833566   -0.291501
     37          6           0        2.817383    3.150937    0.492548
     38          6           0       -2.336616   -2.205967   -0.765093
     39          6           0        2.130824    0.770413   -0.133638
     40          6           0       -1.546111    0.095765   -0.020825
     41          6           0        0.808200    0.915541    0.059241
     42          6           0       -0.166343   -0.054491   -0.211579
     43          1           0       13.384954   -1.092659    1.641348
     44          1           0       12.711159   -2.854626    1.570184
     45          1           0      -14.283113   -0.674231    1.254970
     46          1           0      -14.318439   -0.297598   -0.408831
     47          1           0       12.606208   -2.596865   -0.903336
     48          1           0      -12.986712    1.207084    1.874257
     49          1           0       14.235234   -0.067469   -0.520183
     50          1           0       13.455729   -0.800413   -2.024626
     51          1           0      -13.282373    1.903601   -1.172761
     52          1           0      -12.310016    2.887150    0.142622
     53          1           0       10.922882   -1.983750    3.106384
     54          1           0        9.529946   -0.986718    2.270397
     55          1           0       11.059427   -0.458382    2.864713
     56          1           0       10.586573   -2.651985   -0.916515
     57          1           0       10.606554   -3.545665    0.862169
     58          1           0        9.319370   -2.347184    0.495345
     59          1           0      -12.116332   -0.334891    2.365826
     60          1           0      -10.755331   -1.678740    1.943313
     61          1           0      -12.374674   -2.126896    2.628414
     62          1           0      -13.461823   -2.879868    0.211182
     63          1           0      -11.719431   -3.187482   -0.033111
     64          1           0      -12.725043   -2.111440   -1.212864
     65          1           0        8.911154   -0.552571    0.421281
     66          1           0      -10.103411   -1.939536   -0.723820
     67          1           0       10.785121    1.404461   -2.200469
     68          1           0       11.979620    2.192822   -1.291455
     69          1           0       12.444004    1.191138   -2.833719
     70          1           0      -11.076107    2.748182   -2.000978
     71          1           0       -9.972825    1.316333   -2.035198
     72          1           0       -9.709348    2.425296   -0.676558
     73          1           0       14.813330   -3.174109    0.425106
     74          1           0      -15.359031    1.386175    1.719237
     75          1           0       10.249687    2.364950   -0.329486
     76          1           0       -8.743749    0.497883   -0.128504
     77          1           0        8.965423    4.042241    0.687409
     78          1           0        7.461701    4.271156   -0.195835
     79          1           0        7.346030    3.984974    1.404194
     80          1           0       -8.148959   -3.261143   -0.267637
     81          1           0       -8.458995   -2.531224   -1.857565
     82          1           0       -6.621975   -3.031285   -1.442770
     83          1           0        6.969464    0.712295   -0.380190
     84          1           0       -6.532735    0.395168    0.064845
     85          1           0        5.552212    3.213087    0.480499
     86          1           0       -5.060621   -2.168493   -1.086132
     87          1           0        4.522787    0.167536   -0.480465
     88          1           0       -4.168452    0.780476    0.030336
     89          1           0        2.943477    3.183211    1.680615
     90          1           0        1.801534    3.322106    0.459739
     91          1           0        3.520720    3.721314   -0.063952
     92          1           0       -2.855530   -3.083023   -0.302094
     93          1           0       -2.712704   -2.372828   -1.724316
     94          1           0       -1.266192   -2.638828   -0.627258
     95          1           0        2.471132   -0.359815   -0.276775
     96          1           0       -1.757792    1.027651    0.279764
     97          1           0        0.444208    1.872604    0.368282
     98          1           0        0.017349   -0.974688   -0.651855
 ---------------------------------------------------------------------

 SCF Done:  E(RCAM-B3LYP) =  -1706.96945932     A.U. after   15 cycles

 Excitation energies and oscillator strengths:

 Excited State   1:      Singlet-A      2.3150 eV  535.57 nm  f=3.6553  <S**2>=0.000
     155 ->158         0.15057
     156 ->157         0.68911
 This state for optimization and/or second-order correction.
 Total Energy, E(TD-HF/TD-DFT) =  -1706.88438558
 Copying the excited state density for this state as the 1-particle RhoCI density.

 The electronic state is 1-A.
 Alpha  occ. eigenvalues --  -19.21303 -19.21271 -10.30536 -10.29771 -10.28290
 Alpha  occ. eigenvalues --  -10.27956 -10.27883 -10.27806 -10.27398 -10.27343
 Alpha  occ. eigenvalues --  -10.27302 -10.27241 -10.27081 -10.27064 -10.26867
 Alpha  occ. eigenvalues --  -10.26809 -10.26722 -10.26661 -10.26592 -10.26416
 Alpha  occ. eigenvalues --  -10.26259 -10.26045 -10.26030 -10.26000 -10.25961
 Alpha  occ. eigenvalues --  -10.25955 -10.25876 -10.25785 -10.25767 -10.25628
 Alpha  occ. eigenvalues --  -10.25587 -10.25571 -10.25383 -10.25313 -10.25181
 Alpha  occ. eigenvalues --  -10.24716 -10.24603 -10.24425 -10.24221 -10.24155
 Alpha  occ. eigenvalues --  -10.23974 -10.23783  -1.09109  -1.06019  -0.93847
 Alpha  occ. eigenvalues --   -0.93056  -0.92222  -0.91131  -0.90460  -0.89779
 Alpha  occ. eigenvalues --   -0.87245  -0.86875  -0.86606  -0.85414  -0.84672
 Alpha  occ. eigenvalues --   -0.83162  -0.81832  -0.80267  -0.79523  -0.78940
 Alpha  occ. eigenvalues --   -0.76830  -0.76195  -0.76119  -0.75884  -0.75588
 Alpha  occ. eigenvalues --   -0.75444  -0.75263  -0.75039  -0.73580  -0.70749
 Alpha  occ. eigenvalues --   -0.68433  -0.67288  -0.65821  -0.64031  -0.63581
 Alpha  occ. eigenvalues --   -0.63504  -0.62732  -0.62685  -0.60478  -0.60165
 Alpha  occ. eigenvalues --   -0.59133  -0.58739  -0.57961  -0.57630  -0.56596
 Alpha  occ. eigenvalues --   -0.55913  -0.54898  -0.54843  -0.54165  -0.53687
 Alpha  occ. eigenvalues --   -0.53231  -0.53194  -0.52301  -0.52153  -0.50839
 Alpha  occ. eigenvalues --   -0.50563  -0.49826  -0.49661  -0.49581  -0.49091
 Alpha  occ. eigenvalues --   -0.48935  -0.48624  -0.48397  -0.48249  -0.47975
 Alpha  occ. eigenvalues --   -0.47768  -0.47504  -0.46964  -0.46698  -0.46173
 Alpha  occ. eigenvalues --   -0.46065  -0.45865  -0.45754  -0.45132  -0.44773
 Alpha  occ. eigenvalues --   -0.44649  -0.44454  -0.44174  -0.43997  -0.43572
 Alpha  occ. eigenvalues --   -0.43345  -0.43138  -0.42581  -0.42494  -0.42241
 Alpha  occ. eigenvalues --   -0.41719  -0.41435  -0.41328  -0.41066  -0.40954
 Alpha  occ. eigenvalues --   -0.40846  -0.40541  -0.40430  -0.39853  -0.39667
 Alpha  occ. eigenvalues --   -0.39140  -0.38835  -0.38395  -0.37653  -0.37288
 Alpha  occ. eigenvalues --   -0.36981  -0.36753  -0.36467  -0.36101  -0.35914
 Alpha  occ. eigenvalues --   -0.34999  -0.34403  -0.34182  -0.32514  -0.31098
 Alpha  occ. eigenvalues --   -0.30713  -0.29510  -0.28307  -0.26076  -0.23599
 Alpha  occ. eigenvalues --   -0.19612
 Alpha virt. eigenvalues --   -0.05526  -0.00534   0.02246   0.05557   0.07908
 Alpha virt. eigenvalues --    0.09067   0.09507   0.10359   0.11182   0.11345
 Alpha virt. eigenvalues --    0.12059   0.12596   0.12994   0.13095   0.13448

 Mulliken charges:
               1
     1  O   -0.591285
     2  O   -0.571716
     3  C   -0.054532
     4  C   -0.041175
     5  C   -0.195508
     6  C   -0.193874
     7  C    0.193602
     8  C    0.175837
     9  C    0.087264
    10  C    0.096007
    11  C   -0.214484
    12  C   -0.199242
    13  C    0.036596
    14  C    0.022704
    15  C   -0.300710
    16  C   -0.286346
    17  C   -0.292425
    18  C   -0.297452
    19  C   -0.088103
    20  C   -0.126044
    21  C   -0.376151
    22  C   -0.334771
    23  C   -0.132369
    24  C   -0.058051
    25  C    0.063305
    26  C    0.083216
    27  C   -0.378301
    28  C   -0.361035
    29  C   -0.069979
    30  C   -0.133535
    31  C   -0.114826
    32  C   -0.088317
    33  C   -0.119552
    34  C   -0.099685
    35  C    0.106880
    36  C    0.107677
    37  C   -0.348865
    38  C   -0.400040
    39  C   -0.115690
    40  C   -0.106048
    41  C   -0.089846
    42  C   -0.070431
    43  H    0.099560
    44  H    0.082646
    45  H    0.084164
    46  H    0.109396
    47  H    0.062807
    48  H    0.068651
    49  H    0.123115
    50  H    0.115834
    51  H    0.112500
    52  H    0.121827
    53  H    0.095854
    54  H    0.088433
    55  H    0.110082
    56  H    0.094642
    57  H    0.111033
    58  H    0.092032
    59  H    0.090385
    60  H    0.090388
    61  H    0.102178
    62  H    0.084130
    63  H    0.086971
    64  H    0.113933
    65  H    0.096715
    66  H    0.071580
    67  H    0.135145
    68  H    0.112225
    69  H    0.103741
    70  H    0.093915
    71  H    0.134913
    72  H    0.065675
    73  H    0.297014
    74  H    0.309372
    75  H    0.095015
    76  H    0.070297
    77  H    0.111826
    78  H    0.135514
    79  H    0.109972
    80  H    0.134279
    81  H    0.094450
    82  H    0.100849
    83  H    0.060939
    84  H    0.069351
    85  H    0.088111
    86  H    0.081477
    87  H    0.084176
    88  H    0.088842
    89  H    0.106102
    90  H    0.118245
    91  H    0.128320
    92  H    0.118632
    93  H    0.134591
    94  H    0.105061
    95  H    0.070049
    96  H    0.063212
    97  H    0.077879
    98  H    0.069254
 Sum of Mulliken charges =  -0.00000

 Dipole moment (field-independent basis, Debye):
    X=             -0.0386    Y=             -0.7474    Z=              1.6449  Tot=              1.8072
 Quadrupole moment (field-independent basis, Debye-Ang):
   XX=           -269.5248   YY=           -245.8673   ZZ=           -260.6367
   XY=             13.1367   XZ=              1.9556   YZ=             -1.4256

 Normal termination of Gaussian 16 at Sun Jul 14 19:16:56 2019.
