 Gaussian 16, Revision A.03,
 Gaussian 16:  ES64L-G16RevA.03 25-Dec-2016

 --------------------------
 # td=(NStates=1) B3LYP/SVP
 --------------------------

 --
 TD
 --
 Symbolic Z-matrix:
 Charge =  0 Multiplicity = 1

                         Standard orientation:
 ---------------------------------------------------------------------
 Center     Atomic      Atomic             Coordinates (Angstroms)
 Number     Number       Type             X           Y           Z
 ---------------------------------------------------------------------
      1          8           0       -4.298686   -4.890869    1.966389
      2          8           0        3.385240   -4.827095    1.262471
      3          8           0        7.122445   -1.047111    1.915682
      4          8           0        4.011357   -2.997576    0.044674
      5          8           0        7.604065   -0.457272   -0.244771
      6          8           0       -3.202384    2.288406   -0.234798
      7          7           0       -0.299456   -0.523717   -0.604260
      8          7           0        1.513954    1.844693   -0.352796
      9          7           0       -3.259964   -3.316740    0.645521
     10          7           0       -0.913305    2.896802   -0.146972
     11          6           0        0.816892   -2.468301   -1.276440
     12          6           0        0.953510   -1.061767   -0.872896
     13          6           0       -0.560635   -2.654227   -1.206955
     14          6           0       -1.252113   -1.394334   -0.813596
     15          6           0        3.730353    1.576395   -0.302607
     16          6           0        2.475476    0.901123   -0.497924
     17          6           0        2.109493   -0.413596   -0.889415
     18          6           0        3.373608    2.940285    0.047786
     19          6           0        1.887730   -3.262956   -1.773817
     20          6           0       -5.470236   -2.728073    1.324463
     21          6           0       -3.549487   -1.980201    0.086084
     22          6           0        1.980008    3.076259   -0.087940
     23          6           0       -5.053552   -1.777996    0.313003
     24          6           0        5.047254    1.000593   -0.439393
     25          6           0       -2.661772   -1.142322   -0.469764
     26          6           0       -1.203177   -3.949158   -1.710539
     27          6           0       -4.280924   -3.815145    1.379864
     28          6           0        2.402610   -4.519110   -0.884586
     29          6           0        5.460080    0.189426    0.749193
     30          6           0        4.290070    4.035926    0.244840
     31          6           0        1.061041    4.137064    0.277891
     32          6           0       -6.878019   -3.440178    1.146932
     33          6           0       -5.766425   -0.827009   -0.366380
     34          6           0       -0.331781    4.043565    0.227821
     35          6           0       -1.273618    5.069469    0.580218
     36          6           0       -2.522819    4.562656    0.334304
     37          6           0        3.331996   -3.996637    0.148940
     38          6           0       -5.384372    0.137564   -1.392942
     39          6           0        6.753589   -0.523162    0.753613
     40          6           0       -3.904091    5.222274    0.398749
     41          6           0       -2.232246    3.126114   -0.049227
     42          6           0       -0.924399    6.474203    1.087569
     43          6           0       -4.416512    5.482724   -0.957641
     44          1           0       -0.483650    0.476646   -0.194836
     45          1           0        2.993692   -0.909991   -0.994942
     46          1           0        2.548399   -2.687206   -2.253209
     47          1           0        1.716926   -3.791403   -2.794595
     48          1           0       -5.372092   -2.377048    2.301931
     49          1           0        5.015934    0.307287   -1.149163
     50          1           0        5.828070    1.794481   -0.674177
     51          1           0       -3.042718   -0.056216   -0.630938
     52          1           0        0.484965    2.025959   -0.590962
     53          1           0       -1.100547   -4.995845   -1.175525
     54          1           0       -2.322489   -4.005909   -1.754024
     55          1           0       -0.910936   -4.542402   -2.705690
     56          1           0       -2.195207   -3.688293    0.971656
     57          1           0        1.395734   -4.870129   -0.358612
     58          1           0        2.812262   -5.303999   -1.522330
     59          1           0        4.453167   -0.379501    0.868047
     60          1           0        5.643535    0.788421    1.710265
     61          1           0        4.155655    4.856000   -0.377065
     62          1           0        5.202399    3.318530    0.121310
     63          1           0        4.358441    4.503378    1.359042
     64          1           0        1.517720    5.075173    0.571263
     65          1           0       -7.510062   -2.633550    1.310697
     66          1           0       -7.091594   -4.219584    2.059362
     67          1           0       -6.923705   -4.042136    0.345756
     68          1           0       -6.888866   -0.665195   -0.057442
     69          1           0       -4.762103    0.950006   -0.900553
     70          1           0       -6.261403    0.792047   -1.547593
     71          1           0       -5.151694   -0.324519   -2.443882
     72          1           0       -3.928968    6.265986    0.880776
     73          1           0       -4.500931    4.632173    0.895475
     74          1           0       -0.304643    6.394579    2.115675
     75          1           0       -1.853363    6.995695    1.275161
     76          1           0       -0.365508    6.920194    0.488206
     77          1           0       -3.732674    6.085933   -1.618453
     78          1           0       -5.335656    6.045454   -0.790928
     79          1           0       -4.688923    4.399094   -1.361263
     80          1           0        4.197124   -4.775648    1.780434
     81          1           0        8.093605   -1.342400    1.718261
 ---------------------------------------------------------------------

 SCF Done:  E(RB3LYP) =  -1949.04907653     A.U. after   23 cycles

 Excitation energies and oscillator strengths:

 Excited State   1:      Singlet-A      1.8817 eV  658.90 nm  f=0.3797  <S**2>=0.000
     156 ->157         0.70996
     156 <-157        -0.12723
 This state for optimization and/or second-order correction.
 Total Energy, E(TD-HF/TD-DFT) =  -1948.97992629
 Copying the excited state density for this state as the 1-particle RhoCI density.

 The electronic state is 1-A.
 Alpha  occ. eigenvalues --  -19.20141 -19.18859 -19.15118 -19.11898 -19.10876
 Alpha  occ. eigenvalues --  -19.08564 -14.40529 -14.38298 -14.35057 -14.28745
 Alpha  occ. eigenvalues --  -10.34309 -10.32783 -10.28902 -10.26578 -10.25767
 Alpha  occ. eigenvalues --  -10.25646 -10.24123 -10.24002 -10.23289 -10.22483
 Alpha  occ. eigenvalues --  -10.22203 -10.21720 -10.21689 -10.21669 -10.21613
 Alpha  occ. eigenvalues --  -10.21404 -10.21057 -10.20859 -10.20742 -10.20495
 Alpha  occ. eigenvalues --  -10.20399 -10.20294 -10.19588 -10.19470 -10.19247
 Alpha  occ. eigenvalues --  -10.18725 -10.18686 -10.18468 -10.18450 -10.18280
 Alpha  occ. eigenvalues --  -10.18171 -10.17675 -10.17633  -1.09829  -1.09743
 Alpha  occ. eigenvalues --   -1.02599  -1.02040  -1.01150  -0.98714  -0.97505
 Alpha  occ. eigenvalues --   -0.96029  -0.93596  -0.91608  -0.84625  -0.83570
 Alpha  occ. eigenvalues --   -0.82204  -0.81549  -0.79616  -0.79079  -0.78522
 Alpha  occ. eigenvalues --   -0.78015  -0.76789  -0.75780  -0.75061  -0.72860
 Alpha  occ. eigenvalues --   -0.71978  -0.70377  -0.69460  -0.68972  -0.68762
 Alpha  occ. eigenvalues --   -0.67785  -0.66369  -0.63933  -0.62538  -0.62062
 Alpha  occ. eigenvalues --   -0.60703  -0.59896  -0.59298  -0.58544  -0.57375
 Alpha  occ. eigenvalues --   -0.56744  -0.56205  -0.55632  -0.53344  -0.52728
 Alpha  occ. eigenvalues --   -0.52306  -0.52113  -0.51998  -0.50840  -0.50404
 Alpha  occ. eigenvalues --   -0.49919  -0.49896  -0.48806  -0.48562  -0.47794
 Alpha  occ. eigenvalues --   -0.47563  -0.47018  -0.46615  -0.46259  -0.46075
 Alpha  occ. eigenvalues --   -0.45494  -0.44806  -0.44587  -0.44432  -0.44053
 Alpha  occ. eigenvalues --   -0.43910  -0.43245  -0.42922  -0.42504  -0.42360
 Alpha  occ. eigenvalues --   -0.42137  -0.41792  -0.41374  -0.41140  -0.40809
 Alpha  occ. eigenvalues --   -0.40368  -0.40199  -0.39985  -0.39866  -0.39820
 Alpha  occ. eigenvalues --   -0.39294  -0.38958  -0.38530  -0.38330  -0.38088
 Alpha  occ. eigenvalues --   -0.37893  -0.37703  -0.37395  -0.36897  -0.36675
 Alpha  occ. eigenvalues --   -0.36326  -0.35927  -0.35209  -0.34737  -0.34158
 Alpha  occ. eigenvalues --   -0.34146  -0.33778  -0.33689  -0.33263  -0.32495
 Alpha  occ. eigenvalues --   -0.32048  -0.31241  -0.30622  -0.30412  -0.30236
 Alpha  occ. eigenvalues --   -0.28040  -0.27053  -0.26938  -0.26759  -0.25774
 Alpha  occ. eigenvalues --   -0.24573  -0.24233  -0.23206  -0.23104  -0.22293
 Alpha  occ. eigenvalues --   -0.18224
 Alpha virt. eigenvalues --   -0.10944  -0.05830  -0.04261  -0.03078  -0.01938
 Alpha virt. eigenvalues --   -0.00054   0.01094   0.01570   0.02705   0.03442
 Alpha virt. eigenvalues --    0.04342   0.04423   0.04753   0.05011   0.05640

 Mulliken charges:
               1
     1  O   -0.224468
     2  O   -0.223331
     3  O   -0.181783
     4  O   -0.208406
     5  O   -0.336360
     6  O   -0.316419
     7  N   -0.046663
     8  N   -0.086004
     9  N   -0.197002
    10  N   -0.275411
    11  C   -0.013721
    12  C    0.125023
    13  C   -0.100803
    14  C    0.063977
    15  C   -0.109957
    16  C   -0.009667
    17  C   -0.014757
    18  C   -0.114990
    19  C    0.086431
    20  C   -0.055635
    21  C    0.110560
    22  C    0.023518
    23  C    0.043764
    24  C    0.208571
    25  C   -0.123336
    26  C   -0.051451
    27  C    0.090927
    28  C   -0.005893
    29  C   -0.062394
    30  C    0.046113
    31  C   -0.092495
    32  C    0.099119
    33  C   -0.207583
    34  C    0.095060
    35  C   -0.147055
    36  C   -0.170414
    37  C    0.167257
    38  C    0.039828
    39  C    0.197830
    40  C    0.161857
    41  C    0.146456
    42  C    0.208384
    43  C   -0.039602
    44  H    0.193543
    45  H   -0.050646
    46  H   -0.027436
    47  H    0.004210
    48  H    0.021531
    49  H   -0.033643
    50  H    0.027736
    51  H    0.064898
    52  H    0.160887
    53  H    0.015117
    54  H    0.031989
    55  H    0.026802
    56  H    0.196212
    57  H    0.072474
    58  H    0.058853
    59  H    0.068040
    60  H    0.042065
    61  H    0.019101
    62  H    0.017290
    63  H    0.029130
    64  H   -0.042893
    65  H    0.009132
    66  H    0.032662
    67  H   -0.005275
    68  H    0.019203
    69  H    0.095083
    70  H   -0.009984
    71  H    0.058219
    72  H   -0.005893
    73  H   -0.041223
    74  H    0.024528
    75  H    0.003839
    76  H   -0.046259
    77  H    0.022347
    78  H    0.001615
    79  H    0.043213
    80  H    0.189604
    81  H    0.214852
 Sum of Mulliken charges =  -0.00000

 Dipole moment (field-independent basis, Debye):
    X=              2.7285    Y=             -1.2623    Z=              0.1430  Tot=              3.0097
 Quadrupole moment (field-independent basis, Debye-Ang):
   XX=           -256.2814   YY=           -240.9139   ZZ=           -255.3023
   XY=            -23.2104   XZ=             17.1678   YZ=             14.3973

 Normal termination of Gaussian 16 at Sat Jul  6 18:55:12 2019.
