 Gaussian 16, Revision A.03,
 Gaussian 16:  ES64L-G16RevA.03 25-Dec-2016

 --------------------------
 # td=(NStates=1) B3LYP/SVP
 --------------------------

 --
 TD
 --
 Symbolic Z-matrix:
 Charge =  0 Multiplicity = 1

                         Standard orientation:
 ---------------------------------------------------------------------
 Center     Atomic      Atomic             Coordinates (Angstroms)
 Number     Number       Type             X           Y           Z
 ---------------------------------------------------------------------
      1          8           0        5.041157   -4.412937   -1.863037
      2          8           0       -2.441676   -5.163804   -1.247430
      3          8           0       -6.991538   -1.777169   -1.983663
      4          8           0       -3.316066   -3.423462   -0.146935
      5          8           0       -7.583730   -1.114832    0.097223
      6          8           0        2.711969    2.638235    0.105997
      7          7           0        0.320076   -0.467592    0.663929
      8          7           0       -1.711823    1.723704    0.340460
      9          7           0        3.687172   -2.905348   -0.641563
     10          7           0        0.431122    2.989391    0.098843
     11          6           0       -0.441900   -2.446589    1.428976
     12          6           0       -0.766917   -1.219450    0.962897
     13          6           0        0.993660   -2.540824    1.289253
     14          6           0        1.447952   -1.357233    0.732629
     15          6           0       -3.930131    1.194920    0.385842
     16          6           0       -2.557315    0.588543    0.633443
     17          6           0       -2.182654   -0.717822    0.942519
     18          6           0       -3.822442    2.562215    0.140229
     19          6           0       -1.298398   -3.448963    1.996629
     20          6           0        5.773305   -2.179081   -1.340649
     21          6           0        3.792214   -1.628446   -0.079081
     22          6           0       -2.357103    2.815169    0.065414
     23          6           0        5.114359   -1.183178   -0.368477
     24          6           0       -5.187412    0.324903    0.413611
     25          6           0        2.722030   -0.860824    0.296974
     26          6           0        1.815881   -3.757527    1.667524
     27          6           0        4.767323   -3.308429   -1.382045
     28          6           0       -1.536585   -4.643546    0.946745
     29          6           0       -5.296631   -0.562986   -0.804437
     30          6           0       -4.960514    3.451677   -0.287598
     31          6           0       -1.732469    4.073580   -0.169484
     32          6           0        7.113707   -2.634136   -1.019947
     33          6           0        5.875502   -0.134575    0.123926
     34          6           0       -0.359129    4.067635   -0.070814
     35          6           0        0.573619    5.294488   -0.445593
     36          6           0        1.772295    4.776083   -0.410676
     37          6           0       -2.521587   -4.332706   -0.222595
     38          6           0        5.259139    0.758169    1.230229
     39          6           0       -6.735293   -1.199422   -0.859582
     40          6           0        3.117808    5.526564   -0.506695
     41          6           0        1.721786    3.363489    0.017035
     42          6           0       -0.064193    6.562587   -0.829818
     43          6           0        3.808067    5.753814    0.843350
     44          1           0        0.325903    0.379764    0.178565
     45          1           0       -2.867129   -1.455741    0.956409
     46          1           0       -2.191813   -3.052869    2.297576
     47          1           0       -0.919605   -3.940488    2.909349
     48          1           0        5.738819   -1.759723   -2.359542
     49          1           0       -5.077542   -0.156046    1.489879
     50          1           0       -6.097430    0.909572    0.416410
     51          1           0        2.856305    0.339319    0.167296
     52          1           0       -0.889421    1.637097    0.285331
     53          1           0        1.556091   -4.595116    1.016359
     54          1           0        2.959033   -3.670444    1.604119
     55          1           0        1.538515   -3.811637    2.910741
     56          1           0        2.898903   -3.520321   -0.512776
     57          1           0       -0.623644   -4.894169    0.468453
     58          1           0       -1.902383   -5.505634    1.531661
     59          1           0       -4.591504   -1.508062   -0.979956
     60          1           0       -5.005839    0.064997   -1.616372
     61          1           0       -4.911236    4.421819    0.351643
     62          1           0       -5.847153    2.896165   -0.261423
     63          1           0       -4.762908    3.720427   -1.422370
     64          1           0       -2.290016    4.738177   -0.861299
     65          1           0        7.904580   -1.715141   -0.734139
     66          1           0        7.472046   -3.355416   -1.774550
     67          1           0        7.208998   -3.356071   -0.183655
     68          1           0        6.961382   -0.008412   -0.035998
     69          1           0        4.431132    1.301498    0.900601
     70          1           0        6.020132    1.420808    1.457646
     71          1           0        4.912123    0.099220    2.107808
     72          1           0        2.942092    6.622136   -0.856855
     73          1           0        3.868801    5.100771   -1.093727
     74          1           0       -0.672290    6.262054   -1.615360
     75          1           0        0.645182    7.364057   -1.397376
     76          1           0       -0.424048    7.281672    0.212267
     77          1           0        3.360319    6.315201    1.471381
     78          1           0        4.716369    6.357378    0.570159
     79          1           0        3.935663    4.837335    1.311366
     80          1           0       -3.152243   -4.720134   -1.898281
     81          1           0       -7.980781   -2.141981   -1.858667
 ---------------------------------------------------------------------

 SCF Done:  E(RB3LYP) =  -1949.06629076     A.U. after   16 cycles

 Excitation energies and oscillator strengths:

 Excited State   1:      Singlet-A      1.8949 eV  654.31 nm  f=0.3430  <S**2>=0.000
     156 ->157         0.70608
 This state for optimization and/or second-order correction.
 Total Energy, E(TD-HF/TD-DFT) =  -1948.99665512
 Copying the excited state density for this state as the 1-particle RhoCI density.

 The electronic state is 1-A.
 Alpha  occ. eigenvalues --  -19.21658 -19.21240 -19.14845 -19.12511 -19.10209
 Alpha  occ. eigenvalues --  -19.09943 -14.37199 -14.36885 -14.36393 -14.28325
 Alpha  occ. eigenvalues --  -10.34132 -10.33131 -10.28408 -10.25687 -10.25312
 Alpha  occ. eigenvalues --  -10.24855 -10.23824 -10.23111 -10.23067 -10.22997
 Alpha  occ. eigenvalues --  -10.22159 -10.22129 -10.21943 -10.21832 -10.21762
 Alpha  occ. eigenvalues --  -10.21471 -10.21392 -10.21087 -10.21045 -10.20538
 Alpha  occ. eigenvalues --  -10.19754 -10.19609 -10.19554 -10.19208 -10.19110
 Alpha  occ. eigenvalues --  -10.19017 -10.19005 -10.18825 -10.18651 -10.18037
 Alpha  occ. eigenvalues --  -10.17541 -10.16216 -10.15055  -1.12495  -1.11618
 Alpha  occ. eigenvalues --   -1.02787  -1.02133  -1.01138  -1.00580  -0.97988
 Alpha  occ. eigenvalues --   -0.97906  -0.95363  -0.91875  -0.83369  -0.82921
 Alpha  occ. eigenvalues --   -0.81266  -0.81254  -0.79435  -0.79217  -0.77870
 Alpha  occ. eigenvalues --   -0.77319  -0.76658  -0.75084  -0.74189  -0.72878
 Alpha  occ. eigenvalues --   -0.71918  -0.69934  -0.69590  -0.69313  -0.68407
 Alpha  occ. eigenvalues --   -0.67467  -0.65344  -0.63815  -0.61975  -0.61613
 Alpha  occ. eigenvalues --   -0.60779  -0.60358  -0.59495  -0.59004  -0.57753
 Alpha  occ. eigenvalues --   -0.57080  -0.55834  -0.55264  -0.54401  -0.53477
 Alpha  occ. eigenvalues --   -0.52617  -0.51806  -0.51448  -0.50931  -0.50327
 Alpha  occ. eigenvalues --   -0.50020  -0.49556  -0.49364  -0.48936  -0.47789
 Alpha  occ. eigenvalues --   -0.47395  -0.46603  -0.46415  -0.45948  -0.45721
 Alpha  occ. eigenvalues --   -0.45027  -0.44658  -0.44481  -0.44363  -0.44066
 Alpha  occ. eigenvalues --   -0.43495  -0.43342  -0.42901  -0.42519  -0.42331
 Alpha  occ. eigenvalues --   -0.42266  -0.42013  -0.41732  -0.41632  -0.41343
 Alpha  occ. eigenvalues --   -0.40903  -0.40677  -0.40384  -0.39967  -0.39848
 Alpha  occ. eigenvalues --   -0.39656  -0.39548  -0.39211  -0.38695  -0.38246
 Alpha  occ. eigenvalues --   -0.38148  -0.37513  -0.36836  -0.36801  -0.36300
 Alpha  occ. eigenvalues --   -0.35870  -0.35601  -0.35522  -0.35199  -0.34847
 Alpha  occ. eigenvalues --   -0.34537  -0.34154  -0.33550  -0.32680  -0.32538
 Alpha  occ. eigenvalues --   -0.32142  -0.31770  -0.31247  -0.30232  -0.29967
 Alpha  occ. eigenvalues --   -0.28141  -0.26645  -0.26377  -0.25940  -0.25537
 Alpha  occ. eigenvalues --   -0.25108  -0.24578  -0.24129  -0.23818  -0.21529
 Alpha  occ. eigenvalues --   -0.18098
 Alpha virt. eigenvalues --   -0.10295  -0.05984  -0.04391  -0.01476  -0.00772
 Alpha virt. eigenvalues --    0.00751   0.00984   0.01535   0.02218   0.02521
 Alpha virt. eigenvalues --    0.03013   0.04405   0.04506   0.04911   0.06318

 Mulliken charges:
               1
     1  O   -0.241200
     2  O   -0.182878
     3  O   -0.159052
     4  O   -0.231768
     5  O   -0.309738
     6  O   -0.225566
     7  N   -0.067677
     8  N    0.148597
     9  N   -0.112765
    10  N   -0.271102
    11  C   -0.109590
    12  C    0.021018
    13  C   -0.171212
    14  C    0.099540
    15  C   -0.125062
    16  C    0.090217
    17  C    0.017694
    18  C   -0.148054
    19  C    0.177454
    20  C   -0.007993
    21  C    0.102253
    22  C    0.033458
    23  C   -0.039504
    24  C    0.108925
    25  C   -0.141350
    26  C   -0.017974
    27  C    0.104831
    28  C    0.007137
    29  C   -0.043193
    30  C    0.088563
    31  C   -0.118582
    32  C    0.014903
    33  C   -0.152386
    34  C    0.073709
    35  C   -0.058049
    36  C   -0.167132
    37  C    0.127588
    38  C    0.076855
    39  C    0.152408
    40  C    0.074375
    41  C    0.144657
    42  C    0.023755
    43  C    0.082817
    44  H    0.118840
    45  H   -0.038071
    46  H   -0.023831
    47  H   -0.001621
    48  H    0.037432
    49  H    0.048201
    50  H    0.009028
    51  H    0.092769
    52  H   -0.069056
    53  H    0.041808
    54  H    0.048744
    55  H    0.062219
    56  H    0.115416
    57  H    0.015286
    58  H    0.046114
    59  H    0.077563
    60  H    0.024545
    61  H    0.052898
    62  H    0.000597
    63  H    0.040843
    64  H    0.012889
    65  H    0.034935
    66  H    0.021800
    67  H    0.001328
    68  H    0.010732
    69  H    0.042068
    70  H   -0.018761
    71  H    0.035410
    72  H   -0.009735
    73  H   -0.008645
    74  H    0.018629
    75  H    0.021846
    76  H    0.067834
    77  H   -0.054702
    78  H    0.002278
    79  H    0.008132
    80  H    0.220636
    81  H    0.224673
 Sum of Mulliken charges =  -0.00000

 Dipole moment (field-independent basis, Debye):
    X=             -5.1809    Y=             -0.2366    Z=             -1.3087  Tot=              5.3489
 Quadrupole moment (field-independent basis, Debye-Ang):
   XX=           -260.5505   YY=           -242.2440   ZZ=           -252.6866
   XY=             17.8715   XZ=             25.6547   YZ=            -12.0859

 Normal termination of Gaussian 16 at Sat Jun 29 15:47:09 2019.
