 Gaussian 16, Revision A.03,
 Gaussian 16:  ES64L-G16RevA.03 25-Dec-2016

 --------------------------
 # td=(NStates=1) B3LYP/SVP
 --------------------------

 --
 TD
 --
 Symbolic Z-matrix:
 Charge =  0 Multiplicity = 1

                         Standard orientation:
 ---------------------------------------------------------------------
 Center     Atomic      Atomic             Coordinates (Angstroms)
 Number     Number       Type             X           Y           Z
 ---------------------------------------------------------------------
      1          8           0        4.606355   -4.771442   -1.916258
      2          8           0       -2.954798   -4.834742   -1.351735
      3          8           0       -7.122580   -1.395969   -1.797533
      4          8           0       -3.728023   -2.984661   -0.284949
      5          8           0       -7.501800   -0.324392    0.159643
      6          8           0        3.127708    2.464441    0.229032
      7          7           0        0.170721   -0.713096    0.548969
      8          7           0       -1.564373    1.814036    0.449631
      9          7           0        3.424948   -3.346882   -0.594699
     10          7           0        0.805229    2.971986    0.220946
     11          6           0       -0.777964   -2.558021    1.405694
     12          6           0       -1.041077   -1.237024    0.929661
     13          6           0        0.619777   -2.737062    1.296172
     14          6           0        1.167609   -1.557025    0.808051
     15          6           0       -3.773115    1.422424    0.350200
     16          6           0       -2.526772    0.853839    0.563183
     17          6           0       -2.272428   -0.476359    0.714271
     18          6           0       -3.557901    2.793273    0.015196
     19          6           0       -1.859915   -3.497464    1.878879
     20          6           0        5.613728   -2.591992   -1.380037
     21          6           0        3.500135   -2.024008   -0.131160
     22          6           0       -2.101681    3.003743    0.156701
     23          6           0        4.982362   -1.526117   -0.399942
     24          6           0       -5.107433    0.716912    0.413796
     25          6           0        2.625659   -1.167087    0.445052
     26          6           0        1.391676   -3.916336    1.807636
     27          6           0        4.534096   -3.735199   -1.331425
     28          6           0       -2.249179   -4.554368    0.954425
     29          6           0       -5.296147   -0.019265   -0.919440
     30          6           0       -4.581991    3.789285   -0.355513
     31          6           0       -1.218744    4.113049   -0.228153
     32          6           0        6.991437   -3.089743   -1.016120
     33          6           0        5.679834   -0.591899    0.245105
     34          6           0        0.170599    4.099020   -0.074056
     35          6           0        1.097922    5.192102   -0.435881
     36          6           0        2.357013    4.678677   -0.385152
     37          6           0       -3.068994   -4.090003   -0.291085
     38          6           0        5.306819    0.325154    1.226947
     39          6           0       -6.685068   -0.522862   -0.772064
     40          6           0        3.687962    5.322555   -0.416666
     41          6           0        2.176733    3.217466    0.056490
     42          6           0        0.646868    6.642587   -0.867037
     43          6           0        4.382181    5.583973    0.819800
     44          1           0        0.447936    0.156661    0.110421
     45          1           0       -3.127973   -1.008672    1.016638
     46          1           0       -2.648298   -2.985800    2.360342
     47          1           0       -1.173046   -4.016493    2.688201
     48          1           0        5.543358   -2.066434   -2.311670
     49          1           0       -4.789112    0.039123    1.355906
     50          1           0       -5.871738    1.551134    0.753348
     51          1           0        2.835472    0.017533    0.476885
     52          1           0       -0.581488    1.672130    0.451923
     53          1           0        1.580193   -4.775684    1.093414
     54          1           0        2.333595   -3.586211    2.030728
     55          1           0        1.142850   -4.321332    2.796751
     56          1           0        2.638283   -3.880044   -0.668885
     57          1           0       -1.436568   -5.116348    0.466750
     58          1           0       -2.848031   -5.433104    1.297830
     59          1           0       -4.811701   -1.052815   -1.171561
     60          1           0       -5.076129    0.511734   -1.696088
     61          1           0       -4.335312    4.735030    0.057211
     62          1           0       -5.662204    3.343286   -0.145043
     63          1           0       -4.475336    3.933854   -1.369828
     64          1           0       -1.688640    5.153147   -0.639490
     65          1           0        7.676929   -2.033370   -1.179692
     66          1           0        7.131349   -3.917415   -1.758829
     67          1           0        7.169236   -3.413325   -0.022473
     68          1           0        6.800582   -0.404669    0.067344
     69          1           0        4.873120    1.467329    0.951437
     70          1           0        6.141264    0.796859    1.954760
     71          1           0        4.500741   -0.221255    1.879378
     72          1           0        3.634664    6.283992   -1.097615
     73          1           0        4.304121    4.621607   -1.127452
     74          1           0        0.228465    6.515905   -1.910058
     75          1           0        1.346568    7.376183   -1.257765
     76          1           0        0.045009    7.240075   -0.129706
     77          1           0        3.899173    6.483209    1.487418
     78          1           0        5.466719    5.994858    0.450561
     79          1           0        4.417421    4.625458    1.262629
     80          1           0       -3.556320   -4.332372   -2.038486
     81          1           0       -8.229725   -1.435301   -1.665925
 ---------------------------------------------------------------------

 SCF Done:  E(RB3LYP) =  -1949.07725864     A.U. after   16 cycles

 Excitation energies and oscillator strengths:

 Excited State   1:      Singlet-A      2.0577 eV  602.55 nm  f=0.3738  <S**2>=0.000
     156 ->157         0.70337
     156 <-157        -0.11047
 This state for optimization and/or second-order correction.
 Total Energy, E(TD-HF/TD-DFT) =  -1949.00164130
 Copying the excited state density for this state as the 1-particle RhoCI density.

 The electronic state is 1-A.
 Alpha  occ. eigenvalues --  -19.22244 -19.17576 -19.13764 -19.12578 -19.11615
 Alpha  occ. eigenvalues --  -19.10369 -14.38200 -14.37460 -14.36184 -14.28204
 Alpha  occ. eigenvalues --  -10.34186 -10.32290 -10.29407 -10.26180 -10.25234
 Alpha  occ. eigenvalues --  -10.24986 -10.23457 -10.23407 -10.22697 -10.22663
 Alpha  occ. eigenvalues --  -10.22358 -10.22238 -10.21582 -10.21285 -10.21212
 Alpha  occ. eigenvalues --  -10.20540 -10.20474 -10.20453 -10.20408 -10.20152
 Alpha  occ. eigenvalues --  -10.19945 -10.19855 -10.19821 -10.19818 -10.19800
 Alpha  occ. eigenvalues --  -10.19699 -10.19454 -10.19289 -10.19088 -10.18896
 Alpha  occ. eigenvalues --  -10.18812 -10.18579 -10.18074  -1.12535  -1.05740
 Alpha  occ. eigenvalues --   -1.05177  -1.00940  -1.00144  -0.99301  -0.99101
 Alpha  occ. eigenvalues --   -0.96725  -0.95352  -0.91565  -0.83505  -0.83200
 Alpha  occ. eigenvalues --   -0.81382  -0.81043  -0.79446  -0.79122  -0.78708
 Alpha  occ. eigenvalues --   -0.77645  -0.76161  -0.74853  -0.74287  -0.73022
 Alpha  occ. eigenvalues --   -0.72378  -0.69666  -0.69462  -0.68538  -0.67785
 Alpha  occ. eigenvalues --   -0.67617  -0.65253  -0.63729  -0.62044  -0.61509
 Alpha  occ. eigenvalues --   -0.60174  -0.58344  -0.58268  -0.57995  -0.57367
 Alpha  occ. eigenvalues --   -0.56838  -0.55887  -0.55386  -0.54090  -0.52420
 Alpha  occ. eigenvalues --   -0.51998  -0.51530  -0.51066  -0.50646  -0.50202
 Alpha  occ. eigenvalues --   -0.49705  -0.49143  -0.48851  -0.47855  -0.47320
 Alpha  occ. eigenvalues --   -0.46363  -0.46146  -0.46131  -0.45544  -0.45392
 Alpha  occ. eigenvalues --   -0.45057  -0.44926  -0.44629  -0.44529  -0.44021
 Alpha  occ. eigenvalues --   -0.43559  -0.43491  -0.43230  -0.42663  -0.42347
 Alpha  occ. eigenvalues --   -0.41886  -0.41686  -0.41323  -0.41233  -0.41173
 Alpha  occ. eigenvalues --   -0.40784  -0.40546  -0.40377  -0.40199  -0.39988
 Alpha  occ. eigenvalues --   -0.39455  -0.39278  -0.38866  -0.38559  -0.38431
 Alpha  occ. eigenvalues --   -0.38093  -0.37893  -0.37439  -0.36846  -0.35974
 Alpha  occ. eigenvalues --   -0.35581  -0.35169  -0.34824  -0.34814  -0.34618
 Alpha  occ. eigenvalues --   -0.34271  -0.33637  -0.33032  -0.32638  -0.32574
 Alpha  occ. eigenvalues --   -0.30945  -0.30893  -0.30150  -0.29592  -0.28930
 Alpha  occ. eigenvalues --   -0.27705  -0.27608  -0.26643  -0.25908  -0.25715
 Alpha  occ. eigenvalues --   -0.24911  -0.24455  -0.23544  -0.23236  -0.21553
 Alpha  occ. eigenvalues --   -0.18375
 Alpha virt. eigenvalues --   -0.10268  -0.05206  -0.02777  -0.02070  -0.01125
 Alpha virt. eigenvalues --    0.00346   0.01430   0.02110   0.02821   0.03444
 Alpha virt. eigenvalues --    0.03899   0.04167   0.04815   0.05118   0.05587

 Mulliken charges:
               1
     1  O   -0.185425
     2  O   -0.149613
     3  O   -0.308955
     4  O   -0.310575
     5  O   -0.270405
     6  O   -0.223463
     7  N   -0.029295
     8  N    0.000009
     9  N   -0.071309
    10  N   -0.299658
    11  C   -0.117569
    12  C    0.015651
    13  C   -0.173716
    14  C   -0.008107
    15  C   -0.118666
    16  C    0.075701
    17  C   -0.010043
    18  C   -0.184708
    19  C    0.160013
    20  C   -0.050100
    21  C    0.143868
    22  C    0.084997
    23  C   -0.026032
    24  C    0.030526
    25  C   -0.165006
    26  C    0.094144
    27  C    0.091865
    28  C    0.047831
    29  C    0.093984
    30  C    0.167622
    31  C   -0.149991
    32  C    0.030608
    33  C   -0.120560
    34  C    0.068902
    35  C   -0.064324
    36  C   -0.177076
    37  C    0.118569
    38  C   -0.095668
    39  C    0.175529
    40  C    0.016019
    41  C    0.154311
    42  C    0.058904
    43  C    0.004157
    44  H    0.133008
    45  H   -0.028352
    46  H    0.012953
    47  H    0.020384
    48  H    0.038848
    49  H    0.052816
    50  H    0.071582
    51  H    0.098662
    52  H    0.089742
    53  H    0.020237
    54  H   -0.013991
    55  H    0.016287
    56  H    0.096859
    57  H    0.021474
    58  H    0.042620
    59  H    0.086573
    60  H   -0.016104
    61  H    0.010879
    62  H    0.031284
    63  H   -0.004034
    64  H    0.011834
    65  H    0.039855
    66  H    0.046845
    67  H    0.013674
    68  H    0.007868
    69  H    0.108222
    70  H    0.012825
    71  H    0.038731
    72  H   -0.005926
    73  H    0.016783
    74  H    0.022948
    75  H   -0.006520
    76  H    0.041639
    77  H    0.032561
    78  H    0.026648
    79  H    0.023904
    80  H    0.223529
    81  H    0.239910
 Sum of Mulliken charges =  -0.00000

 Dipole moment (field-independent basis, Debye):
    X=             -3.6247    Y=             -0.5484    Z=             -1.2581  Tot=              3.8758
 Quadrupole moment (field-independent basis, Debye-Ang):
   XX=           -261.4052   YY=           -238.8015   ZZ=           -253.9444
   XY=             12.9945   XZ=             17.0366   YZ=            -14.5738

 Normal termination of Gaussian 16 at Mon Jul  1 21:14:55 2019.
