 Gaussian 16, Revision A.03,
 Gaussian 16:  ES64L-G16RevA.03 25-Dec-2016

 --------------------------
 # td=(NStates=1) B3LYP/SVP
 --------------------------

 --
 TD
 --
 Symbolic Z-matrix:
 Charge =  0 Multiplicity = 1

                         Standard orientation:
 ---------------------------------------------------------------------
 Center     Atomic      Atomic             Coordinates (Angstroms)
 Number     Number       Type             X           Y           Z
 ---------------------------------------------------------------------
      1          8           0       -4.395402   -4.860773    1.768059
      2          8           0        3.001544   -4.708804    1.337772
      3          8           0        6.916742   -1.503298    1.915989
      4          8           0        3.858152   -3.161685    0.002035
      5          8           0        7.531361   -0.705203   -0.121862
      6          8           0       -2.993256    2.418430   -0.178344
      7          7           0       -0.328948   -0.588461   -0.667730
      8          7           0        1.567715    1.798675   -0.319945
      9          7           0       -3.455905   -3.108852    0.557544
     10          7           0       -0.754132    2.911714   -0.110665
     11          6           0        0.670877   -2.405909   -1.354359
     12          6           0        0.892816   -1.086093   -0.968163
     13          6           0       -0.749080   -2.650438   -1.304414
     14          6           0       -1.372307   -1.501822   -0.807568
     15          6           0        3.784937    1.491349   -0.334823
     16          6           0        2.469055    0.838221   -0.550202
     17          6           0        2.125520   -0.523581   -0.803816
     18          6           0        3.522512    2.782859   -0.052148
     19          6           0        1.671455   -3.396389   -1.942944
     20          6           0       -5.500768   -2.594246    1.376745
     21          6           0       -3.610718   -1.834018    0.040631
     22          6           0        2.119020    3.000047   -0.054365
     23          6           0       -5.107800   -1.508874    0.392347
     24          6           0        5.172337    0.813065   -0.362502
     25          6           0       -2.659217   -1.094799   -0.457988
     26          6           0       -1.371071   -4.000745   -1.720108
     27          6           0       -4.452154   -3.747664    1.259248
     28          6           0        2.072733   -4.496808   -0.883917
     29          6           0        5.315827   -0.123919    0.805428
     30          6           0        4.561121    3.872533    0.302138
     31          6           0        1.287089    4.111536    0.176682
     32          6           0       -6.877596   -3.171009    1.116503
     33          6           0       -5.893228   -0.492612   -0.106485
     34          6           0       -0.073733    4.083605    0.078104
     35          6           0       -0.978462    5.223738    0.505620
     36          6           0       -2.169890    4.684614    0.341519
     37          6           0        3.019806   -4.031872    0.221357
     38          6           0       -5.489220    0.467034   -1.037623
     39          6           0        6.729496   -0.826423    0.843939
     40          6           0       -3.612967    5.253304    0.465912
     41          6           0       -2.078442    3.241153   -0.003877
     42          6           0       -0.481969    6.575001    0.839223
     43          6           0       -4.191486    5.673306   -0.823758
     44          1           0       -0.453067    0.147017   -0.139158
     45          1           0        2.988394   -1.342532   -0.867854
     46          1           0        2.529081   -3.028783   -2.258158
     47          1           0        1.256777   -3.896082   -2.770868
     48          1           0       -5.622304   -2.238203    2.397744
     49          1           0        5.093128   -0.047701   -1.187905
     50          1           0        5.893559    1.530512   -0.546362
     51          1           0       -2.770830    0.009832   -0.648798
     52          1           0        0.586915    1.819706   -0.764815
     53          1           0       -1.172867   -4.861560   -1.030041
     54          1           0       -2.460024   -3.972094   -1.823732
     55          1           0       -1.067935   -4.252996   -2.814773
     56          1           0       -2.702007   -3.791626    0.284065
     57          1           0        1.188087   -4.844288   -0.430703
     58          1           0        2.619433   -5.294506   -1.389499
     59          1           0        4.619006   -1.014734    0.713159
     60          1           0        5.078612    0.295569    1.860387
     61          1           0        4.920838    4.749918   -0.504142
     62          1           0        5.516371    3.266014    0.583736
     63          1           0        4.086530    4.714871    1.123600
     64          1           0        1.623357    5.131049    0.148787
     65          1           0       -7.601674   -2.443902    1.312792
     66          1           0       -6.925858   -4.097324    1.844196
     67          1           0       -7.057083   -3.369512   -0.060946
     68          1           0       -6.907147   -0.496758    0.349959
     69          1           0       -4.759894    1.264965   -0.542231
     70          1           0       -6.350672    0.918179   -1.470044
     71          1           0       -4.883251   -0.083927   -1.843981
     72          1           0       -3.616229    6.172920    1.211628
     73          1           0       -4.360593    4.480780    0.999956
     74          1           0        0.292817    6.385001    1.575999
     75          1           0       -1.169563    7.390806    1.215072
     76          1           0        0.079320    7.064657    0.054721
     77          1           0       -3.737402    6.588390   -1.386555
     78          1           0       -5.257491    5.802418   -0.573284
     79          1           0       -4.272995    4.953116   -1.687034
     80          1           0        3.812187   -4.407185    1.859065
     81          1           0        7.943281   -1.867750    2.024372
 ---------------------------------------------------------------------

 SCF Done:  E(RB3LYP) =  -1949.15436768     A.U. after   16 cycles

 Excitation energies and oscillator strengths:

 Excited State   1:      Singlet-A      1.9620 eV  631.91 nm  f=0.4035  <S**2>=0.000
     156 ->157         0.70701
     156 <-157        -0.12243
 This state for optimization and/or second-order correction.
 Total Energy, E(TD-HF/TD-DFT) =  -1949.08226397
 Copying the excited state density for this state as the 1-particle RhoCI density.

 The electronic state is 1-A.
 Alpha  occ. eigenvalues --  -19.21394 -19.20717 -19.14121 -19.11705 -19.11424
 Alpha  occ. eigenvalues --  -19.09317 -14.37175 -14.36532 -14.35920 -14.27641
 Alpha  occ. eigenvalues --  -10.33964 -10.32089 -10.29345 -10.25150 -10.24455
 Alpha  occ. eigenvalues --  -10.23643 -10.23569 -10.23490 -10.22905 -10.22656
 Alpha  occ. eigenvalues --  -10.22043 -10.21800 -10.21773 -10.21436 -10.21118
 Alpha  occ. eigenvalues --  -10.20683 -10.20523 -10.20242 -10.20148 -10.20067
 Alpha  occ. eigenvalues --  -10.19986 -10.19910 -10.19825 -10.19818 -10.19517
 Alpha  occ. eigenvalues --  -10.19516 -10.19421 -10.19004 -10.18491 -10.17956
 Alpha  occ. eigenvalues --  -10.17901 -10.17853 -10.17462  -1.12986  -1.10461
 Alpha  occ. eigenvalues --   -1.03189  -1.01919  -1.00021  -0.99582  -0.99101
 Alpha  occ. eigenvalues --   -0.98047  -0.95261  -0.90951  -0.82944  -0.82014
 Alpha  occ. eigenvalues --   -0.81723  -0.81143  -0.79746  -0.79030  -0.78323
 Alpha  occ. eigenvalues --   -0.77279  -0.76761  -0.75937  -0.74982  -0.72448
 Alpha  occ. eigenvalues --   -0.70532  -0.70157  -0.69367  -0.68980  -0.67427
 Alpha  occ. eigenvalues --   -0.67166  -0.65855  -0.63729  -0.62638  -0.62069
 Alpha  occ. eigenvalues --   -0.60801  -0.60047  -0.58656  -0.58135  -0.56776
 Alpha  occ. eigenvalues --   -0.56377  -0.55601  -0.55051  -0.53878  -0.52940
 Alpha  occ. eigenvalues --   -0.52276  -0.51831  -0.51518  -0.50919  -0.50023
 Alpha  occ. eigenvalues --   -0.49756  -0.49322  -0.48444  -0.48239  -0.47898
 Alpha  occ. eigenvalues --   -0.47441  -0.46926  -0.46362  -0.46017  -0.45354
 Alpha  occ. eigenvalues --   -0.44980  -0.44646  -0.44032  -0.43897  -0.43546
 Alpha  occ. eigenvalues --   -0.43365  -0.43083  -0.42692  -0.42042  -0.41822
 Alpha  occ. eigenvalues --   -0.41642  -0.41597  -0.41058  -0.40674  -0.40637
 Alpha  occ. eigenvalues --   -0.40345  -0.40152  -0.40014  -0.39877  -0.39652
 Alpha  occ. eigenvalues --   -0.39283  -0.38986  -0.38823  -0.38423  -0.38189
 Alpha  occ. eigenvalues --   -0.37897  -0.37822  -0.37557  -0.37087  -0.36959
 Alpha  occ. eigenvalues --   -0.36290  -0.35723  -0.35491  -0.34883  -0.34736
 Alpha  occ. eigenvalues --   -0.34241  -0.34180  -0.33596  -0.32634  -0.32227
 Alpha  occ. eigenvalues --   -0.31974  -0.31344  -0.30927  -0.30016  -0.29658
 Alpha  occ. eigenvalues --   -0.27070  -0.26625  -0.26515  -0.26393  -0.25637
 Alpha  occ. eigenvalues --   -0.25400  -0.24624  -0.23648  -0.23349  -0.21783
 Alpha  occ. eigenvalues --   -0.18121
 Alpha virt. eigenvalues --   -0.10492  -0.05137  -0.03378  -0.01774  -0.00341
 Alpha virt. eigenvalues --    0.00031   0.01141   0.02306   0.02703   0.03468
 Alpha virt. eigenvalues --    0.03561   0.03892   0.04731   0.05459   0.06234

 Mulliken charges:
               1
     1  O   -0.222950
     2  O   -0.144180
     3  O   -0.182768
     4  O   -0.264215
     5  O   -0.288060
     6  O   -0.237946
     7  N    0.001033
     8  N   -0.053887
     9  N   -0.143448
    10  N   -0.299009
    11  C   -0.136628
    12  C    0.057944
    13  C   -0.153374
    14  C    0.078329
    15  C   -0.094661
    16  C    0.027289
    17  C   -0.120034
    18  C   -0.066062
    19  C    0.231864
    20  C   -0.082114
    21  C    0.152154
    22  C    0.103215
    23  C   -0.038206
    24  C    0.157382
    25  C   -0.153786
    26  C    0.022529
    27  C    0.161990
    28  C    0.030861
    29  C   -0.085191
    30  C   -0.061902
    31  C   -0.093666
    32  C   -0.003976
    33  C   -0.129078
    34  C    0.023174
    35  C   -0.067812
    36  C   -0.162086
    37  C    0.111753
    38  C    0.048776
    39  C    0.147052
    40  C    0.024000
    41  C    0.147321
    42  C    0.105777
    43  C   -0.011659
    44  H    0.072361
    45  H    0.070020
    46  H   -0.041026
    47  H   -0.019434
    48  H    0.036783
    49  H    0.036987
    50  H    0.000408
    51  H    0.044945
    52  H    0.176053
    53  H    0.050172
    54  H    0.017027
    55  H    0.039441
    56  H    0.130006
    57  H    0.008932
    58  H    0.044567
    59  H    0.061231
    60  H    0.034717
    61  H    0.049628
    62  H    0.046033
    63  H    0.045626
    64  H   -0.038474
    65  H   -0.001258
    66  H    0.053660
    67  H    0.020434
    68  H   -0.013517
    69  H    0.117153
    70  H   -0.000295
    71  H    0.033481
    72  H    0.005557
    73  H    0.031770
    74  H    0.012516
    75  H    0.026041
    76  H    0.017990
    77  H    0.018331
    78  H    0.005825
    79  H    0.017967
    80  H    0.208691
    81  H    0.243905
 Sum of Mulliken charges =  -0.00000

 Dipole moment (field-independent basis, Debye):
    X=              3.5799    Y=             -0.6501    Z=              0.6903  Tot=              3.7033
 Quadrupole moment (field-independent basis, Debye-Ang):
   XX=           -251.7871   YY=           -237.3739   ZZ=           -251.8566
   XY=            -21.3924   XZ=             24.1206   YZ=             10.0079

 Normal termination of Gaussian 16 at Sat Jun 29 08:03:09 2019.
