 Gaussian 16, Revision A.03,
 Gaussian 16:  ES64L-G16RevA.03 25-Dec-2016

 --------------------------
 # td=(NStates=1) B3LYP/SVP
 --------------------------

 --
 TD
 --
 Symbolic Z-matrix:
 Charge =  0 Multiplicity = 1

                         Standard orientation:
 ---------------------------------------------------------------------
 Center     Atomic      Atomic             Coordinates (Angstroms)
 Number     Number       Type             X           Y           Z
 ---------------------------------------------------------------------
      1          8           0        4.733677   -4.868080   -1.768918
      2          8           0       -3.454977   -5.009731   -1.203284
      3          8           0       -7.041265   -1.552237   -1.713489
      4          8           0       -3.943771   -3.183587    0.057964
      5          8           0       -7.643604   -0.564538    0.244032
      6          8           0        3.019163    2.464722    0.228185
      7          7           0        0.269791   -0.715134    0.437844
      8          7           0       -1.548199    1.839023    0.230437
      9          7           0        3.554585   -3.190756   -0.668076
     10          7           0        0.840760    2.952307    0.043543
     11          6           0       -0.655388   -2.492157    1.263709
     12          6           0       -0.944388   -1.254438    0.781834
     13          6           0        0.746216   -2.755407    1.215883
     14          6           0        1.341326   -1.544867    0.607096
     15          6           0       -3.750940    1.446671    0.294098
     16          6           0       -2.389951    0.828721    0.398712
     17          6           0       -2.142299   -0.511199    0.725226
     18          6           0       -3.578191    2.804633    0.005999
     19          6           0       -1.639610   -3.439899    1.832640
     20          6           0        5.655381   -2.630705   -1.315551
     21          6           0        3.658059   -1.917813   -0.064928
     22          6           0       -2.160076    3.141186   -0.030137
     23          6           0        5.063828   -1.561354   -0.350919
     24          6           0       -5.014962    0.754132    0.438921
     25          6           0        2.689828   -1.075892    0.334955
     26          6           0        1.428060   -3.883731    1.802778
     27          6           0        4.638508   -3.683713   -1.264475
     28          6           0       -2.105544   -4.535861    0.815023
     29          6           0       -5.469732    0.034126   -0.804419
     30          6           0       -4.536066    3.961370   -0.304409
     31          6           0       -1.354751    4.158009   -0.296198
     32          6           0        7.113003   -3.043051   -1.128649
     33          6           0        5.837709   -0.609707    0.204575
     34          6           0        0.044997    4.140132   -0.156571
     35          6           0        0.997725    5.162795   -0.434873
     36          6           0        2.254183    4.750862   -0.220711
     37          6           0       -3.181772   -4.064918   -0.089849
     38          6           0        5.530922    0.441065    1.265098
     39          6           0       -6.841018   -0.694377   -0.682899
     40          6           0        3.491935    5.383839   -0.306526
     41          6           0        2.090184    3.288488    0.062744
     42          6           0        0.493875    6.523528   -0.917083
     43          6           0        4.341714    5.643285    1.007763
     44          1           0        0.188048    0.199983   -0.059929
     45          1           0       -3.152530   -1.008867    0.823838
     46          1           0       -2.620897   -3.106373    2.446074
     47          1           0       -1.024916   -4.071275    2.740796
     48          1           0        5.343302   -2.362757   -2.151700
     49          1           0       -5.021505   -0.043675    1.321444
     50          1           0       -5.820947    1.449707    0.697911
     51          1           0        2.843833   -0.008394    0.592355
     52          1           0       -0.508540    1.794660    0.115128
     53          1           0        1.393714   -4.742490    1.169694
     54          1           0        2.528108   -3.629364    1.973653
     55          1           0        0.845666   -4.162264    2.835754
     56          1           0        2.613828   -3.646616   -0.827213
     57          1           0       -1.256099   -5.000095    0.395650
     58          1           0       -2.620104   -5.344850    1.318860
     59          1           0       -4.738940   -0.869136   -1.087175
     60          1           0       -5.469403    0.748208   -1.744328
     61          1           0       -4.133054    4.902218    0.131341
     62          1           0       -5.496553    3.694441   -0.047177
     63          1           0       -4.381288    4.151139   -1.397767
     64          1           0       -1.970326    4.981964   -0.847559
     65          1           0        7.751251   -2.092750   -1.300721
     66          1           0        7.228689   -3.854413   -1.972238
     67          1           0        7.362568   -3.443973   -0.163070
     68          1           0        6.760480   -0.409769   -0.180784
     69          1           0        5.334185    1.368977    0.705077
     70          1           0        6.640146    0.663153    1.744794
     71          1           0        4.797800    0.307794    1.965880
     72          1           0        3.362360    6.445384   -0.726521
     73          1           0        4.248520    4.851458   -1.187203
     74          1           0       -0.009734    6.679162   -1.863247
     75          1           0        1.172556    7.302969   -0.738160
     76          1           0       -0.432088    6.799589   -0.203273
     77          1           0        3.821916    6.246231    1.559063
     78          1           0        5.241955    5.925349    0.641685
     79          1           0        4.285247    4.603788    1.554672
     80          1           0       -4.210335   -4.557151   -1.695054
     81          1           0       -7.985839   -1.834962   -1.735850
 ---------------------------------------------------------------------

 SCF Done:  E(RB3LYP) =  -1949.09626773     A.U. after   24 cycles

 Excitation energies and oscillator strengths:

 Excited State   1:      Singlet-A      1.7688 eV  700.96 nm  f=0.3440  <S**2>=0.000
     156 ->157         0.70644
     156 <-157        -0.14210
 This state for optimization and/or second-order correction.
 Total Energy, E(TD-HF/TD-DFT) =  -1949.03126596
 Copying the excited state density for this state as the 1-particle RhoCI density.

 The electronic state is 1-A.
 Alpha  occ. eigenvalues --  -19.19020 -19.16643 -19.15731 -19.13209 -19.09786
 Alpha  occ. eigenvalues --  -19.08926 -14.38363 -14.38361 -14.35791 -14.28321
 Alpha  occ. eigenvalues --  -10.33669 -10.33014 -10.28780 -10.25047 -10.24906
 Alpha  occ. eigenvalues --  -10.24705 -10.24511 -10.24232 -10.23751 -10.23401
 Alpha  occ. eigenvalues --  -10.23069 -10.22779 -10.22196 -10.22135 -10.21539
 Alpha  occ. eigenvalues --  -10.21431 -10.21178 -10.20927 -10.20613 -10.20596
 Alpha  occ. eigenvalues --  -10.20562 -10.19987 -10.19974 -10.19924 -10.19909
 Alpha  occ. eigenvalues --  -10.19804 -10.19478 -10.19434 -10.19334 -10.19058
 Alpha  occ. eigenvalues --  -10.18544 -10.18115 -10.16907  -1.10126  -1.09320
 Alpha  occ. eigenvalues --   -1.01628  -1.00100  -0.99596  -0.99365  -0.99063
 Alpha  occ. eigenvalues --   -0.97246  -0.94104  -0.91273  -0.83096  -0.82718
 Alpha  occ. eigenvalues --   -0.82491  -0.82175  -0.80801  -0.80056  -0.78777
 Alpha  occ. eigenvalues --   -0.77884  -0.77551  -0.75684  -0.75006  -0.73275
 Alpha  occ. eigenvalues --   -0.72115  -0.70278  -0.69721  -0.68520  -0.68243
 Alpha  occ. eigenvalues --   -0.67598  -0.66887  -0.65835  -0.63618  -0.62241
 Alpha  occ. eigenvalues --   -0.60339  -0.59925  -0.59530  -0.57978  -0.57548
 Alpha  occ. eigenvalues --   -0.56120  -0.55388  -0.54292  -0.54140  -0.53817
 Alpha  occ. eigenvalues --   -0.52926  -0.51933  -0.51459  -0.50546  -0.49755
 Alpha  occ. eigenvalues --   -0.49583  -0.49399  -0.48582  -0.48468  -0.48310
 Alpha  occ. eigenvalues --   -0.48208  -0.47203  -0.46585  -0.46162  -0.45633
 Alpha  occ. eigenvalues --   -0.45471  -0.45060  -0.44710  -0.44369  -0.43720
 Alpha  occ. eigenvalues --   -0.43572  -0.43445  -0.42942  -0.42820  -0.42354
 Alpha  occ. eigenvalues --   -0.41875  -0.41765  -0.41637  -0.41227  -0.41108
 Alpha  occ. eigenvalues --   -0.40877  -0.40687  -0.40421  -0.40027  -0.39833
 Alpha  occ. eigenvalues --   -0.39367  -0.39273  -0.39126  -0.38750  -0.38447
 Alpha  occ. eigenvalues --   -0.38203  -0.38010  -0.37823  -0.37428  -0.36783
 Alpha  occ. eigenvalues --   -0.36583  -0.36238  -0.36182  -0.35772  -0.35657
 Alpha  occ. eigenvalues --   -0.34589  -0.34229  -0.34175  -0.32814  -0.32680
 Alpha  occ. eigenvalues --   -0.32321  -0.32223  -0.31975  -0.30175  -0.29672
 Alpha  occ. eigenvalues --   -0.28424  -0.27006  -0.26281  -0.25990  -0.25503
 Alpha  occ. eigenvalues --   -0.25306  -0.24574  -0.23492  -0.23006  -0.21991
 Alpha  occ. eigenvalues --   -0.18498
 Alpha virt. eigenvalues --   -0.11751  -0.06422  -0.04289  -0.01836  -0.00887
 Alpha virt. eigenvalues --    0.00957   0.01876   0.02444   0.02914   0.03484
 Alpha virt. eigenvalues --    0.03806   0.04038   0.05165   0.05468   0.05569

 Mulliken charges:
               1
     1  O   -0.296705
     2  O   -0.306125
     3  O   -0.197342
     4  O   -0.171221
     5  O   -0.242278
     6  O   -0.254358
     7  N   -0.060119
     8  N   -0.129248
     9  N   -0.103773
    10  N   -0.259842
    11  C   -0.021648
    12  C    0.059888
    13  C   -0.161701
    14  C    0.046476
    15  C   -0.078476
    16  C    0.025391
    17  C   -0.042477
    18  C   -0.130022
    19  C   -0.064325
    20  C    0.141771
    21  C    0.143866
    22  C    0.099302
    23  C   -0.056080
    24  C    0.057510
    25  C   -0.104805
    26  C    0.048675
    27  C    0.046902
    28  C    0.095070
    29  C   -0.090109
    30  C    0.149556
    31  C   -0.150716
    32  C    0.057214
    33  C   -0.144192
    34  C    0.141270
    35  C   -0.078588
    36  C   -0.090928
    37  C    0.149559
    38  C    0.076081
    39  C    0.166265
    40  C   -0.092622
    41  C    0.095499
    42  C    0.092197
    43  C    0.109874
    44  H    0.139710
    45  H    0.020270
    46  H    0.048800
    47  H    0.017866
    48  H   -0.056885
    49  H    0.046110
    50  H    0.014241
    51  H    0.055665
    52  H    0.124633
    53  H    0.021077
    54  H    0.043735
    55  H    0.046461
    56  H    0.148125
    57  H    0.016998
    58  H    0.043680
    59  H    0.066769
    60  H    0.054879
    61  H    0.026458
    62  H    0.000781
    63  H    0.027213
    64  H    0.012068
    65  H    0.031171
    66  H    0.054749
    67  H    0.019977
    68  H   -0.037377
    69  H    0.059576
    70  H    0.014395
    71  H    0.013619
    72  H   -0.006796
    73  H    0.037227
    74  H    0.020965
    75  H   -0.001984
    76  H    0.007353
    77  H   -0.030517
    78  H    0.002264
    79  H    0.035876
    80  H    0.192747
    81  H    0.193437
 Sum of Mulliken charges =  -0.00000

 Dipole moment (field-independent basis, Debye):
    X=             -3.7055    Y=              2.4859    Z=             -0.7219  Tot=              4.5201
 Quadrupole moment (field-independent basis, Debye-Ang):
   XX=           -251.8609   YY=           -251.6769   ZZ=           -255.1344
   XY=             15.1199   XZ=             19.8194   YZ=            -17.9576

 Normal termination of Gaussian 16 at Sat Jun 29 11:54:39 2019.
