 Gaussian 16, Revision A.03,
 Gaussian 16:  ES64L-G16RevA.03 25-Dec-2016

 --------------------------
 # td=(NStates=1) B3LYP/SVP
 --------------------------

 --
 TD
 --
 Symbolic Z-matrix:
 Charge =  0 Multiplicity = 1

                         Standard orientation:
 ---------------------------------------------------------------------
 Center     Atomic      Atomic             Coordinates (Angstroms)
 Number     Number       Type             X           Y           Z
 ---------------------------------------------------------------------
      1          8           0        4.521675   -4.774861   -1.830898
      2          8           0       -3.023652   -5.093530   -1.091669
      3          8           0       -7.103097   -1.522843   -1.902636
      4          8           0       -3.678199   -3.223518   -0.011910
      5          8           0       -7.697804   -0.520850   -0.040437
      6          8           0        2.923947    2.378216    0.216602
      7          7           0        0.298427   -0.632096    0.489176
      8          7           0       -1.572621    1.768606    0.239481
      9          7           0        3.455077   -3.135299   -0.627819
     10          7           0        0.674151    3.041825    0.018930
     11          6           0       -0.644581   -2.437022    1.353546
     12          6           0       -0.915805   -1.191955    0.806335
     13          6           0        0.816887   -2.641615    1.313698
     14          6           0        1.354378   -1.446052    0.768095
     15          6           0       -3.786717    1.407327    0.391247
     16          6           0       -2.507377    0.831874    0.506660
     17          6           0       -2.227790   -0.519997    0.827639
     18          6           0       -3.657437    2.706067    0.078154
     19          6           0       -1.703914   -3.493522    1.858685
     20          6           0        5.676246   -2.568533   -1.448819
     21          6           0        3.735215   -1.883387   -0.111358
     22          6           0       -2.202715    3.020739   -0.033956
     23          6           0        5.170605   -1.505694   -0.425785
     24          6           0       -5.164502    0.687363    0.369296
     25          6           0        2.754212   -1.088329    0.537731
     26          6           0        1.568334   -3.738370    1.963195
     27          6           0        4.460358   -3.621083   -1.341239
     28          6           0       -2.076655   -4.607542    1.069550
     29          6           0       -5.400908   -0.175146   -0.916622
     30          6           0       -4.737845    3.870626   -0.191828
     31          6           0       -1.427444    4.177911   -0.135259
     32          6           0        7.017572   -3.045364   -1.252248
     33          6           0        5.999616   -0.546571    0.121591
     34          6           0        0.003822    4.116647   -0.315819
     35          6           0        1.022569    5.280193   -0.451003
     36          6           0        2.230473    4.647566   -0.381280
     37          6           0       -2.966535   -4.272764   -0.076118
     38          6           0        5.553781    0.433984    1.161180
     39          6           0       -6.823154   -0.722501   -0.911831
     40          6           0        3.507549    5.447259   -0.447326
     41          6           0        2.085601    3.199369    0.025546
     42          6           0        0.644162    6.642259   -0.793695
     43          6           0        4.010730    5.681593    0.985489
     44          1           0        0.523260    0.345811    0.268112
     45          1           0       -3.011881   -1.255648    0.954391
     46          1           0       -2.470497   -2.948599    2.188589
     47          1           0       -1.282671   -3.890349    2.760649
     48          1           0        5.473021   -2.305694   -2.463476
     49          1           0       -5.261645   -0.056606    1.235366
     50          1           0       -5.954432    1.384991    0.582879
     51          1           0        2.808283    0.048390    0.634015
     52          1           0       -0.565616    1.899903    0.471467
     53          1           0        1.950494   -4.647998    1.165553
     54          1           0        2.503855   -3.360453    2.146128
     55          1           0        0.850513   -4.213423    2.763737
     56          1           0        2.658239   -3.647790   -0.449662
     57          1           0       -1.122012   -5.200207    0.643645
     58          1           0       -2.488519   -5.328486    1.721226
     59          1           0       -4.614284   -0.885694   -0.841396
     60          1           0       -5.316048    0.279787   -1.953540
     61          1           0       -4.267117    4.672414    0.314172
     62          1           0       -5.732553    3.516158   -0.118134
     63          1           0       -4.609935    4.132302   -1.344406
     64          1           0       -1.822739    5.104501   -0.468379
     65          1           0        7.821281   -2.279336   -1.281404
     66          1           0        7.479439   -3.804406   -2.037232
     67          1           0        7.203226   -3.535176   -0.346105
     68          1           0        6.882601   -0.691021   -0.210693
     69          1           0        5.135770    1.347790    0.678622
     70          1           0        6.537115    0.739044    1.665270
     71          1           0        4.643770    0.277192    1.705177
     72          1           0        3.547901    6.395917   -0.961339
     73          1           0        4.535678    4.852927   -0.696237
     74          1           0        0.064792    6.662235   -1.699861
     75          1           0        1.648161    7.439993   -0.993416
     76          1           0       -0.007211    6.821251    0.055645
     77          1           0        3.272354    6.363764    1.534742
     78          1           0        5.016509    6.434433    1.056420
     79          1           0        4.336870    4.906136    1.763955
     80          1           0       -3.982571   -5.005964   -1.606973
     81          1           0       -8.123974   -1.682225   -1.808999
 ---------------------------------------------------------------------

 SCF Done:  E(RB3LYP) =  -1949.08724810     A.U. after   16 cycles

 Excitation energies and oscillator strengths:

 Excited State   1:      Singlet-A      1.8717 eV  662.43 nm  f=0.3262  <S**2>=0.000
     156 ->157         0.70383
     156 <-157        -0.10902
 This state for optimization and/or second-order correction.
 Total Energy, E(TD-HF/TD-DFT) =  -1949.01846593
 Copying the excited state density for this state as the 1-particle RhoCI density.

 The electronic state is 1-A.
 Alpha  occ. eigenvalues --  -19.21246 -19.19271 -19.13187 -19.12606 -19.11765
 Alpha  occ. eigenvalues --  -19.09765 -14.37845 -14.37374 -14.35423 -14.29127
 Alpha  occ. eigenvalues --  -10.33596 -10.32014 -10.28695 -10.28184 -10.25659
 Alpha  occ. eigenvalues --  -10.24645 -10.23781 -10.23290 -10.22873 -10.22805
 Alpha  occ. eigenvalues --  -10.21767 -10.21505 -10.21150 -10.20991 -10.20982
 Alpha  occ. eigenvalues --  -10.20718 -10.20660 -10.20593 -10.20506 -10.20396
 Alpha  occ. eigenvalues --  -10.20321 -10.20173 -10.19969 -10.19934 -10.19710
 Alpha  occ. eigenvalues --  -10.19599 -10.19300 -10.19139 -10.19090 -10.19076
 Alpha  occ. eigenvalues --  -10.18981 -10.18439 -10.18351  -1.10726  -1.10661
 Alpha  occ. eigenvalues --   -1.04565  -1.02406  -0.99335  -0.98229  -0.98176
 Alpha  occ. eigenvalues --   -0.97254  -0.95287  -0.92534  -0.83072  -0.82001
 Alpha  occ. eigenvalues --   -0.81640  -0.80376  -0.79908  -0.78650  -0.77892
 Alpha  occ. eigenvalues --   -0.76995  -0.76444  -0.75548  -0.74296  -0.72291
 Alpha  occ. eigenvalues --   -0.70757  -0.69854  -0.68948  -0.68551  -0.67851
 Alpha  occ. eigenvalues --   -0.67250  -0.65799  -0.65123  -0.62524  -0.61518
 Alpha  occ. eigenvalues --   -0.60290  -0.59659  -0.59391  -0.59379  -0.56481
 Alpha  occ. eigenvalues --   -0.56279  -0.55597  -0.55406  -0.55384  -0.53449
 Alpha  occ. eigenvalues --   -0.52644  -0.52121  -0.51178  -0.50324  -0.49994
 Alpha  occ. eigenvalues --   -0.49465  -0.48956  -0.48419  -0.48337  -0.47796
 Alpha  occ. eigenvalues --   -0.47472  -0.46899  -0.46528  -0.46155  -0.45821
 Alpha  occ. eigenvalues --   -0.45391  -0.44905  -0.44686  -0.44137  -0.43997
 Alpha  occ. eigenvalues --   -0.43635  -0.43406  -0.43161  -0.42718  -0.42307
 Alpha  occ. eigenvalues --   -0.41755  -0.41627  -0.41520  -0.41217  -0.41054
 Alpha  occ. eigenvalues --   -0.40594  -0.40158  -0.39954  -0.39860  -0.39527
 Alpha  occ. eigenvalues --   -0.39025  -0.38899  -0.38551  -0.38458  -0.38015
 Alpha  occ. eigenvalues --   -0.37967  -0.37748  -0.37463  -0.37121  -0.36564
 Alpha  occ. eigenvalues --   -0.36232  -0.36157  -0.35342  -0.35240  -0.34750
 Alpha  occ. eigenvalues --   -0.34221  -0.33966  -0.33473  -0.32880  -0.32735
 Alpha  occ. eigenvalues --   -0.32149  -0.31399  -0.30597  -0.29448  -0.28694
 Alpha  occ. eigenvalues --   -0.28566  -0.27581  -0.26209  -0.25916  -0.25714
 Alpha  occ. eigenvalues --   -0.24586  -0.24097  -0.23805  -0.23268  -0.21594
 Alpha  occ. eigenvalues --   -0.17966
 Alpha virt. eigenvalues --   -0.10480  -0.06055  -0.04319  -0.02961  -0.00002
 Alpha virt. eigenvalues --    0.00550   0.00777   0.02501   0.02900   0.03333
 Alpha virt. eigenvalues --    0.03539   0.04224   0.05166   0.05407   0.05881

 Mulliken charges:
               1
     1  O   -0.258508
     2  O   -0.193657
     3  O   -0.171359
     4  O   -0.293270
     5  O   -0.288961
     6  O   -0.156299
     7  N   -0.056863
     8  N   -0.118794
     9  N    0.015375
    10  N   -0.334071
    11  C   -0.166351
    12  C    0.043503
    13  C   -0.165497
    14  C   -0.008764
    15  C   -0.082393
    16  C    0.105174
    17  C   -0.058447
    18  C   -0.140393
    19  C    0.204702
    20  C    0.009407
    21  C    0.085240
    22  C    0.079119
    23  C   -0.066872
    24  C    0.081173
    25  C   -0.118349
    26  C    0.058833
    27  C    0.057801
    28  C    0.057144
    29  C    0.016876
    30  C    0.130525
    31  C   -0.054492
    32  C    0.040184
    33  C    0.007084
    34  C    0.038995
    35  C   -0.101580
    36  C   -0.150537
    37  C    0.149360
    38  C    0.085911
    39  C    0.134588
    40  C    0.065340
    41  C    0.190279
    42  C    0.051246
    43  C   -0.112993
    44  H    0.134260
    45  H    0.016508
    46  H   -0.041100
    47  H   -0.029526
    48  H    0.028750
    49  H    0.025087
    50  H    0.006840
    51  H    0.044248
    52  H    0.146207
    53  H    0.014557
    54  H    0.002742
    55  H    0.045671
    56  H    0.102361
    57  H    0.043167
    58  H    0.027241
    59  H    0.041950
    60  H    0.040066
    61  H    0.029015
    62  H    0.017311
    63  H    0.027402
    64  H   -0.034122
    65  H    0.017399
    66  H    0.028198
    67  H   -0.003898
    68  H   -0.115569
    69  H    0.049246
    70  H    0.022810
    71  H    0.020726
    72  H    0.006576
    73  H    0.031487
    74  H    0.035333
    75  H    0.050809
    76  H    0.037168
    77  H   -0.000015
    78  H    0.005583
    79  H    0.048379
    80  H    0.257561
    81  H    0.210164
 Sum of Mulliken charges =  -0.00000

 Dipole moment (field-independent basis, Debye):
    X=             -3.3543    Y=              0.7318    Z=             -0.5083  Tot=              3.4706
 Quadrupole moment (field-independent basis, Debye-Ang):
   XX=           -248.8038   YY=           -237.0551   ZZ=           -255.0935
   XY=             25.5884   XZ=             19.7932   YZ=            -14.7629

 Normal termination of Gaussian 16 at Tue Jul  2 14:19:05 2019.
