 Gaussian 16, Revision A.03,
 Gaussian 16:  ES64L-G16RevA.03 25-Dec-2016

 --------------------------
 # td=(NStates=1) B3LYP/SVP
 --------------------------

 --
 TD
 --
 Symbolic Z-matrix:
 Charge =  0 Multiplicity = 1

                         Standard orientation:
 ---------------------------------------------------------------------
 Center     Atomic      Atomic             Coordinates (Angstroms)
 Number     Number       Type             X           Y           Z
 ---------------------------------------------------------------------
      1          8           0       -4.716961   -4.577760    1.828582
      2          8           0        2.520911   -4.793979    1.415115
      3          8           0        7.101466   -1.565626    1.850606
      4          8           0        3.619212   -3.368315    0.134951
      5          8           0        7.829986   -0.553060   -0.007876
      6          8           0       -2.987772    2.655612   -0.257427
      7          7           0       -0.369948   -0.559174   -0.615675
      8          7           0        1.523718    1.720206   -0.362712
      9          7           0       -3.563948   -2.908004    0.800865
     10          7           0       -0.621272    2.948806   -0.202099
     11          6           0        0.560429   -2.566835   -1.386761
     12          6           0        0.866714   -1.135898   -1.085170
     13          6           0       -0.832911   -2.700475   -1.276003
     14          6           0       -1.375695   -1.501644   -0.781618
     15          6           0        3.762984    1.366595   -0.281033
     16          6           0        2.464498    0.692983   -0.604040
     17          6           0        2.135750   -0.633688   -0.894480
     18          6           0        3.691432    2.586157   -0.027815
     19          6           0        1.681318   -3.599026   -1.940909
     20          6           0       -5.715657   -2.399033    1.335592
     21          6           0       -3.753901   -1.685628    0.178046
     22          6           0        2.270438    2.884877   -0.018846
     23          6           0       -5.143138   -1.380577    0.363057
     24          6           0        5.038879    0.516505   -0.472118
     25          6           0       -2.759241   -1.066051   -0.486556
     26          6           0       -1.610080   -3.903312   -1.643166
     27          6           0       -4.565255   -3.452742    1.411325
     28          6           0        1.963396   -4.639437   -0.891823
     29          6           0        5.420315   -0.336087    0.742624
     30          6           0        4.771544    3.585800    0.269325
     31          6           0        1.497086    4.028836    0.228363
     32          6           0       -7.087453   -2.976572    1.023910
     33          6           0       -5.811087   -0.394395   -0.307784
     34          6           0        0.104778    4.013704    0.230222
     35          6           0       -0.759158    5.224520    0.546272
     36          6           0       -1.992308    4.753802    0.320257
     37          6           0        2.766169   -4.212139    0.240456
     38          6           0       -5.317962    0.781338   -1.242490
     39          6           0        6.856801   -0.855983    0.728621
     40          6           0       -3.377836    5.448891    0.519430
     41          6           0       -1.966303    3.282170   -0.100308
     42          6           0       -0.211706    6.579135    0.953367
     43          6           0       -4.004335    5.754001   -0.830578
     44          1           0       -0.399666    0.328457   -0.298057
     45          1           0        2.856420   -1.397169   -1.239590
     46          1           0        2.381789   -2.932631   -2.393014
     47          1           0        0.997285   -3.987883   -2.564873
     48          1           0       -5.627956   -1.995750    2.438972
     49          1           0        5.034205   -0.074546   -1.381104
     50          1           0        5.795177    1.406805   -0.671333
     51          1           0       -3.036132    0.007757   -0.820060
     52          1           0        0.529195    1.761076   -0.616604
     53          1           0       -1.734384   -4.746157   -0.835628
     54          1           0       -2.651464   -3.727939   -1.808370
     55          1           0       -1.221727   -4.438602   -2.632094
     56          1           0       -2.777040   -3.440908    0.665230
     57          1           0        1.066990   -5.055644   -0.381056
     58          1           0        2.622741   -5.430447   -1.418494
     59          1           0        4.664578   -1.334044    0.719620
     60          1           0        5.596838    0.248171    1.625130
     61          1           0        4.675883    4.409612   -0.294737
     62          1           0        5.681456    3.116403    0.193181
     63          1           0        4.773095    3.837303    1.350214
     64          1           0        1.940851    4.996859    0.326314
     65          1           0       -8.089973   -2.382026    1.255597
     66          1           0       -7.277956   -3.931937    1.781703
     67          1           0       -7.078024   -3.542911    0.087291
     68          1           0       -6.821249   -0.253946   -0.084852
     69          1           0       -4.884294    1.664113   -0.679449
     70          1           0       -6.262242    0.927853   -1.852065
     71          1           0       -4.559316    0.443680   -2.094751
     72          1           0       -3.443629    6.296081    1.264468
     73          1           0       -4.225657    4.926967    1.033755
     74          1           0        0.474450    6.391642    1.672899
     75          1           0       -0.958165    7.190607    1.362347
     76          1           0        0.193573    7.066878    0.060790
     77          1           0       -3.382979    6.239383   -1.457859
     78          1           0       -5.136193    6.267831   -0.539810
     79          1           0       -4.255789    4.851741   -1.353540
     80          1           0        3.397922   -4.693558    1.892737
     81          1           0        8.015775   -2.159681    1.716619
 ---------------------------------------------------------------------

 SCF Done:  E(RB3LYP) =  -1949.09942527     A.U. after   16 cycles

 Excitation energies and oscillator strengths:

 Excited State   1:      Singlet-A      1.9836 eV  625.05 nm  f=0.4035  <S**2>=0.000
     156 ->157         0.70766
     156 <-157        -0.11828
 This state for optimization and/or second-order correction.
 Total Energy, E(TD-HF/TD-DFT) =  -1949.02653015
 Copying the excited state density for this state as the 1-particle RhoCI density.

 The electronic state is 1-A.
 Alpha  occ. eigenvalues --  -19.20152 -19.18216 -19.13839 -19.11769 -19.10809
 Alpha  occ. eigenvalues --  -19.10078 -14.37824 -14.36856 -14.35727 -14.28977
 Alpha  occ. eigenvalues --  -10.33093 -10.31856 -10.28114 -10.26587 -10.24797
 Alpha  occ. eigenvalues --  -10.24757 -10.24040 -10.23403 -10.23328 -10.23000
 Alpha  occ. eigenvalues --  -10.22931 -10.21948 -10.21532 -10.21484 -10.21348
 Alpha  occ. eigenvalues --  -10.21322 -10.20864 -10.20639 -10.20380 -10.20003
 Alpha  occ. eigenvalues --  -10.19975 -10.19899 -10.19764 -10.19599 -10.19551
 Alpha  occ. eigenvalues --  -10.19525 -10.19406 -10.19063 -10.18589 -10.18582
 Alpha  occ. eigenvalues --  -10.18482 -10.18341 -10.17328  -1.12229  -1.07299
 Alpha  occ. eigenvalues --   -1.04397  -1.02258  -1.02116  -0.97645  -0.97197
 Alpha  occ. eigenvalues --   -0.97024  -0.96365  -0.91496  -0.83610  -0.83399
 Alpha  occ. eigenvalues --   -0.81710  -0.81319  -0.79908  -0.78880  -0.78548
 Alpha  occ. eigenvalues --   -0.77553  -0.76790  -0.74890  -0.73628  -0.72844
 Alpha  occ. eigenvalues --   -0.72458  -0.70443  -0.69918  -0.69398  -0.68591
 Alpha  occ. eigenvalues --   -0.67362  -0.65387  -0.64423  -0.62766  -0.61323
 Alpha  occ. eigenvalues --   -0.60451  -0.59714  -0.58954  -0.57966  -0.57809
 Alpha  occ. eigenvalues --   -0.56570  -0.55320  -0.54853  -0.54173  -0.53783
 Alpha  occ. eigenvalues --   -0.52670  -0.52216  -0.51305  -0.51059  -0.50202
 Alpha  occ. eigenvalues --   -0.49160  -0.48960  -0.48292  -0.47935  -0.47263
 Alpha  occ. eigenvalues --   -0.47106  -0.46584  -0.46352  -0.46115  -0.45196
 Alpha  occ. eigenvalues --   -0.45085  -0.44695  -0.44442  -0.44320  -0.44106
 Alpha  occ. eigenvalues --   -0.43665  -0.43289  -0.42983  -0.42731  -0.42388
 Alpha  occ. eigenvalues --   -0.42133  -0.42108  -0.41731  -0.41292  -0.41243
 Alpha  occ. eigenvalues --   -0.40992  -0.40546  -0.40518  -0.39989  -0.39636
 Alpha  occ. eigenvalues --   -0.39423  -0.39275  -0.38986  -0.38905  -0.38867
 Alpha  occ. eigenvalues --   -0.38519  -0.38062  -0.37326  -0.37052  -0.36665
 Alpha  occ. eigenvalues --   -0.36019  -0.35752  -0.35324  -0.35257  -0.34788
 Alpha  occ. eigenvalues --   -0.33868  -0.33697  -0.33141  -0.33062  -0.32349
 Alpha  occ. eigenvalues --   -0.31743  -0.30863  -0.30838  -0.30320  -0.29440
 Alpha  occ. eigenvalues --   -0.28200  -0.27596  -0.26717  -0.26629  -0.26055
 Alpha  occ. eigenvalues --   -0.25684  -0.24767  -0.23699  -0.23331  -0.22156
 Alpha  occ. eigenvalues --   -0.18039
 Alpha virt. eigenvalues --   -0.10292  -0.05563  -0.03694  -0.01887  -0.00498
 Alpha virt. eigenvalues --    0.00889   0.01633   0.02043   0.02721   0.03632
 Alpha virt. eigenvalues --    0.04021   0.04501   0.05142   0.05913   0.06227

 Mulliken charges:
               1
     1  O   -0.214430
     2  O   -0.177192
     3  O   -0.259300
     4  O   -0.233423
     5  O   -0.270607
     6  O   -0.196721
     7  N   -0.058678
     8  N   -0.163618
     9  N    0.014334
    10  N   -0.324685
    11  C   -0.213556
    12  C    0.021920
    13  C   -0.090464
    14  C    0.077946
    15  C   -0.063394
    16  C    0.107715
    17  C   -0.021491
    18  C   -0.139577
    19  C    0.243219
    20  C   -0.061514
    21  C    0.080075
    22  C    0.127907
    23  C    0.027527
    24  C    0.034186
    25  C   -0.139146
    26  C   -0.005299
    27  C    0.035732
    28  C    0.032611
    29  C   -0.012930
    30  C    0.249442
    31  C   -0.142765
    32  C   -0.008360
    33  C   -0.146174
    34  C    0.075439
    35  C   -0.129023
    36  C   -0.177753
    37  C    0.087006
    38  C   -0.012125
    39  C    0.140480
    40  C    0.049568
    41  C    0.181944
    42  C    0.221053
    43  C    0.001904
    44  H    0.069887
    45  H    0.007699
    46  H    0.024623
    47  H   -0.037875
    48  H    0.055402
    49  H    0.017802
    50  H    0.027644
    51  H    0.049374
    52  H    0.151851
    53  H    0.042236
    54  H    0.012191
    55  H    0.042185
    56  H    0.083339
    57  H    0.044277
    58  H    0.065601
    59  H    0.113787
    60  H    0.029633
    61  H    0.000721
    62  H   -0.029887
    63  H    0.017115
    64  H   -0.044085
    65  H    0.044059
    66  H    0.034333
    67  H    0.017204
    68  H   -0.020801
    69  H    0.109582
    70  H    0.015687
    71  H    0.038718
    72  H   -0.006283
    73  H   -0.000138
    74  H   -0.007428
    75  H   -0.006747
    76  H    0.028270
    77  H   -0.013822
    78  H    0.014689
    79  H    0.017266
    80  H    0.203175
    81  H    0.240932
 Sum of Mulliken charges =  -0.00000

 Dipole moment (field-independent basis, Debye):
    X=              3.4966    Y=             -0.8576    Z=             -0.3216  Tot=              3.6145
 Quadrupole moment (field-independent basis, Debye-Ang):
   XX=           -265.6221   YY=           -234.3028   ZZ=           -254.0660
   XY=            -19.4833   XZ=             15.2169   YZ=             14.9162

 Normal termination of Gaussian 16 at Sun Jun 30 20:02:30 2019.
