 Gaussian 16, Revision A.03,
 Gaussian 16:  ES64L-G16RevA.03 25-Dec-2016

 --------------------------
 # td=(NStates=1) B3LYP/SVP
 --------------------------

 --
 TD
 --
 Symbolic Z-matrix:
 Charge =  0 Multiplicity = 1

                         Standard orientation:
 ---------------------------------------------------------------------
 Center     Atomic      Atomic             Coordinates (Angstroms)
 Number     Number       Type             X           Y           Z
 ---------------------------------------------------------------------
      1          8           0        4.575308   -4.655558   -2.034815
      2          8           0       -3.141813   -5.004283   -1.141461
      3          8           0       -7.139565   -1.394412   -1.808759
      4          8           0       -3.683908   -3.144193    0.027896
      5          8           0       -7.573760   -0.685949    0.187925
      6          8           0        2.990305    2.445165    0.173593
      7          7           0        0.227293   -0.567827    0.497726
      8          7           0       -1.554172    1.794297    0.284762
      9          7           0        3.551661   -3.128690   -0.739217
     10          7           0        0.778328    2.854647    0.099632
     11          6           0       -0.658693   -2.445678    1.262140
     12          6           0       -0.960104   -1.141286    0.990099
     13          6           0        0.723214   -2.644903    1.251436
     14          6           0        1.262892   -1.475144    0.636731
     15          6           0       -3.775412    1.413834    0.414913
     16          6           0       -2.548476    0.728803    0.537563
     17          6           0       -2.184597   -0.541070    0.884110
     18          6           0       -3.551549    2.800596    0.005003
     19          6           0       -1.607549   -3.480481    1.976154
     20          6           0        5.693911   -2.589101   -1.240226
     21          6           0        3.704399   -1.919979   -0.225161
     22          6           0       -2.172948    2.922029   -0.147493
     23          6           0        5.101051   -1.474803   -0.339050
     24          6           0       -5.178794    0.769501    0.423168
     25          6           0        2.710939   -1.107521    0.297321
     26          6           0        1.456679   -3.861782    1.651871
     27          6           0        4.606639   -3.638804   -1.421734
     28          6           0       -2.059729   -4.528269    0.886537
     29          6           0       -5.411264   -0.178871   -0.785222
     30          6           0       -4.598631    3.758607   -0.511090
     31          6           0       -1.413132    4.130083   -0.311739
     32          6           0        7.101948   -3.119239   -0.890063
     33          6           0        5.832907   -0.589244    0.322437
     34          6           0        0.023783    3.985064   -0.154485
     35          6           0        0.929264    5.156916   -0.390684
     36          6           0        2.246883    4.703601   -0.302479
     37          6           0       -2.998662   -4.079643   -0.182482
     38          6           0        5.337459    0.572229    1.219850
     39          6           0       -6.741284   -0.762473   -0.678429
     40          6           0        3.526259    5.377883   -0.421726
     41          6           0        2.073444    3.297209    0.082050
     42          6           0        0.562764    6.621348   -0.735612
     43          6           0        4.238543    5.585098    0.924739
     44          1           0        0.329426    0.346972    0.230764
     45          1           0       -3.015126   -1.223536    0.845140
     46          1           0       -2.585988   -2.837644    2.249680
     47          1           0       -0.976274   -3.886403    2.864551
     48          1           0        5.771095   -1.961792   -2.324567
     49          1           0       -5.158570    0.238485    1.281536
     50          1           0       -5.879062    1.707935    0.534741
     51          1           0        2.998946   -0.079101    0.295755
     52          1           0       -0.508350    1.897649    0.465357
     53          1           0        1.389088   -4.781485    0.881218
     54          1           0        2.494942   -3.530414    1.712883
     55          1           0        1.299646   -4.096719    2.776035
     56          1           0        2.613727   -3.486945   -0.915412
     57          1           0       -1.381584   -5.197143    0.581225
     58          1           0       -2.632617   -5.214888    1.511067
     59          1           0       -4.783790   -0.889859   -0.847141
     60          1           0       -5.328451    0.441680   -1.877679
     61          1           0       -4.660704    4.441607    0.342961
     62          1           0       -5.599840    3.260341   -0.752366
     63          1           0       -4.145060    4.347848   -1.348871
     64          1           0       -1.843629    5.023846   -0.682956
     65          1           0        7.707022   -2.199615   -0.751871
     66          1           0        7.503657   -3.946864   -1.505675
     67          1           0        7.129011   -3.495748    0.067029
     68          1           0        6.838467   -0.643953    0.104839
     69          1           0        4.640847    1.247988    0.704351
     70          1           0        6.152678    1.100264    1.740792
     71          1           0        4.902482   -0.073018    2.014937
     72          1           0        3.412108    6.277517   -1.066390
     73          1           0        4.134894    4.764111   -1.168815
     74          1           0       -0.063035    6.752375   -1.626906
     75          1           0        1.337768    7.219178   -0.877935
     76          1           0       -0.181108    7.210384   -0.070913
     77          1           0        3.649915    6.255376    1.548847
     78          1           0        5.248249    5.992560    0.699110
     79          1           0        4.329841    4.771313    1.488275
     80          1           0       -3.935641   -4.696266   -1.772100
     81          1           0       -8.072186   -1.676237   -1.757509
 ---------------------------------------------------------------------

 SCF Done:  E(RB3LYP) =  -1949.13491040     A.U. after   19 cycles

 Excitation energies and oscillator strengths:

 Excited State   1:      Singlet-A      1.9360 eV  640.41 nm  f=0.3920  <S**2>=0.000
     156 ->157         0.70779
     156 <-157        -0.11396
 This state for optimization and/or second-order correction.
 Total Energy, E(TD-HF/TD-DFT) =  -1949.06376311
 Copying the excited state density for this state as the 1-particle RhoCI density.

 The electronic state is 1-A.
 Alpha  occ. eigenvalues --  -19.20971 -19.16704 -19.14774 -19.11939 -19.11545
 Alpha  occ. eigenvalues --  -19.08565 -14.37494 -14.36986 -14.34212 -14.28653
 Alpha  occ. eigenvalues --  -10.33727 -10.31453 -10.29314 -10.25146 -10.24618
 Alpha  occ. eigenvalues --  -10.24325 -10.22985 -10.22882 -10.22845 -10.22803
 Alpha  occ. eigenvalues --  -10.22315 -10.21834 -10.21140 -10.21092 -10.20790
 Alpha  occ. eigenvalues --  -10.20577 -10.20572 -10.20385 -10.20380 -10.20119
 Alpha  occ. eigenvalues --  -10.19820 -10.19488 -10.19382 -10.19276 -10.19192
 Alpha  occ. eigenvalues --  -10.18907 -10.18809 -10.18767 -10.18718 -10.18704
 Alpha  occ. eigenvalues --  -10.18165 -10.17592 -10.16790  -1.11944  -1.09446
 Alpha  occ. eigenvalues --   -1.05884  -1.03793  -0.99239  -0.99044  -0.98248
 Alpha  occ. eigenvalues --   -0.97914  -0.95426  -0.89983  -0.82433  -0.81995
 Alpha  occ. eigenvalues --   -0.81894  -0.81113  -0.79534  -0.78621  -0.78073
 Alpha  occ. eigenvalues --   -0.77633  -0.76225  -0.74637  -0.73936  -0.72398
 Alpha  occ. eigenvalues --   -0.71457  -0.69927  -0.69255  -0.68816  -0.67899
 Alpha  occ. eigenvalues --   -0.67675  -0.65793  -0.64899  -0.63235  -0.62033
 Alpha  occ. eigenvalues --   -0.61038  -0.59877  -0.59297  -0.58177  -0.57141
 Alpha  occ. eigenvalues --   -0.55690  -0.55408  -0.54443  -0.53969  -0.52876
 Alpha  occ. eigenvalues --   -0.52741  -0.52409  -0.51122  -0.50692  -0.50504
 Alpha  occ. eigenvalues --   -0.49624  -0.49365  -0.48801  -0.48021  -0.47556
 Alpha  occ. eigenvalues --   -0.46957  -0.46731  -0.45929  -0.45873  -0.45107
 Alpha  occ. eigenvalues --   -0.45059  -0.44171  -0.44017  -0.43766  -0.43497
 Alpha  occ. eigenvalues --   -0.43068  -0.42767  -0.42434  -0.42181  -0.41980
 Alpha  occ. eigenvalues --   -0.41693  -0.41605  -0.41363  -0.41107  -0.40919
 Alpha  occ. eigenvalues --   -0.40775  -0.40557  -0.40180  -0.39992  -0.39439
 Alpha  occ. eigenvalues --   -0.39361  -0.39165  -0.38781  -0.38483  -0.38153
 Alpha  occ. eigenvalues --   -0.37828  -0.37616  -0.37544  -0.37430  -0.37251
 Alpha  occ. eigenvalues --   -0.36810  -0.36441  -0.35711  -0.35559  -0.35495
 Alpha  occ. eigenvalues --   -0.34976  -0.34814  -0.34009  -0.33452  -0.32699
 Alpha  occ. eigenvalues --   -0.31908  -0.31585  -0.31487  -0.30386  -0.29525
 Alpha  occ. eigenvalues --   -0.27622  -0.27341  -0.27080  -0.26051  -0.25652
 Alpha  occ. eigenvalues --   -0.24982  -0.23662  -0.23397  -0.22565  -0.21236
 Alpha  occ. eigenvalues --   -0.17983
 Alpha virt. eigenvalues --   -0.10328  -0.05900  -0.03770  -0.01351  -0.00270
 Alpha virt. eigenvalues --   -0.00182   0.01109   0.02355   0.02657   0.03934
 Alpha virt. eigenvalues --    0.04975   0.05399   0.05880   0.06111   0.06544

 Mulliken charges:
               1
     1  O   -0.168984
     2  O   -0.213305
     3  O   -0.210623
     4  O   -0.196851
     5  O   -0.222718
     6  O   -0.251520
     7  N   -0.042617
     8  N   -0.196152
     9  N   -0.025259
    10  N   -0.292057
    11  C   -0.104695
    12  C    0.105155
    13  C   -0.168404
    14  C    0.059112
    15  C   -0.134863
    16  C    0.116313
    17  C   -0.059298
    18  C   -0.155800
    19  C    0.037733
    20  C   -0.172965
    21  C    0.008613
    22  C    0.102335
    23  C    0.010897
    24  C    0.138910
    25  C   -0.062353
    26  C    0.045140
    27  C    0.113695
    28  C    0.074218
    29  C    0.087126
    30  C    0.082420
    31  C   -0.094059
    32  C    0.100299
    33  C   -0.135305
    34  C    0.090061
    35  C   -0.094087
    36  C   -0.174779
    37  C    0.140231
    38  C    0.049139
    39  C    0.117781
    40  C    0.069688
    41  C    0.137548
    42  C    0.130490
    43  C    0.087078
    44  H    0.084009
    45  H    0.003295
    46  H    0.041653
    47  H    0.039956
    48  H    0.071431
    49  H   -0.014598
    50  H    0.035341
    51  H   -0.000539
    52  H    0.167304
    53  H    0.058796
    54  H    0.014225
    55  H    0.030970
    56  H    0.131384
    57  H   -0.028899
    58  H    0.033381
    59  H   -0.044318
    60  H    0.068772
    61  H    0.028512
    62  H    0.042773
    63  H    0.031767
    64  H   -0.039736
    65  H    0.016663
    66  H    0.041595
    67  H   -0.019225
    68  H   -0.043131
    69  H    0.105303
    70  H    0.000459
    71  H    0.025523
    72  H   -0.012392
    73  H    0.009699
    74  H    0.001070
    75  H   -0.032720
    76  H    0.013073
    77  H    0.001335
    78  H    0.012091
    79  H   -0.010570
    80  H    0.226888
    81  H    0.181575
 Sum of Mulliken charges =  -0.00000

 Dipole moment (field-independent basis, Debye):
    X=             -2.3162    Y=             -0.8748    Z=             -0.6768  Tot=              2.5668
 Quadrupole moment (field-independent basis, Debye-Ang):
   XX=           -248.5976   YY=           -235.2426   ZZ=           -254.3154
   XY=             13.2704   XZ=             21.6292   YZ=            -12.9307

 Normal termination of Gaussian 16 at Fri Jun 28 20:41:11 2019.
