 Gaussian 16, Revision A.03,
 Gaussian 16:  ES64L-G16RevA.03 25-Dec-2016

 --------------------------
 # td=(NStates=1) B3LYP/SVP
 --------------------------

 --
 TD
 --
 Symbolic Z-matrix:
 Charge =  0 Multiplicity = 1

                         Standard orientation:
 ---------------------------------------------------------------------
 Center     Atomic      Atomic             Coordinates (Angstroms)
 Number     Number       Type             X           Y           Z
 ---------------------------------------------------------------------
      1          8           0        4.430467   -4.911696   -1.780084
      2          8           0       -3.111174   -4.730885   -1.267094
      3          8           0       -6.963379   -1.239108   -1.907130
      4          8           0       -4.016350   -3.047978   -0.023892
      5          8           0       -7.603766   -0.552961    0.029325
      6          8           0        3.155469    2.480625    0.221097
      7          7           0        0.250206   -0.613449    0.554192
      8          7           0       -1.423148    1.823960    0.403328
      9          7           0        3.323635   -3.293393   -0.536305
     10          7           0        0.821080    2.876865    0.071829
     11          6           0       -0.742118   -2.398192    1.375147
     12          6           0       -1.090610   -1.132850    0.919619
     13          6           0        0.687577   -2.660977    1.269870
     14          6           0        1.254393   -1.539650    0.741252
     15          6           0       -3.740872    1.502717    0.334501
     16          6           0       -2.455602    0.814096    0.482913
     17          6           0       -2.249100   -0.509999    0.821484
     18          6           0       -3.414437    2.903406    0.152538
     19          6           0       -1.750353   -3.331905    1.849696
     20          6           0        5.442430   -2.693335   -1.402146
     21          6           0        3.592830   -1.973077   -0.081117
     22          6           0       -1.962230    3.016146    0.039540
     23          6           0        4.973494   -1.667013   -0.445885
     24          6           0       -5.054404    0.828406    0.390709
     25          6           0        2.634924   -1.186766    0.397914
     26          6           0        1.363210   -3.907091    1.790905
     27          6           0        4.353645   -3.790755   -1.326945
     28          6           0       -2.255315   -4.515864    0.944833
     29          6           0       -5.301918   -0.019415   -0.803212
     30          6           0       -4.326801    3.975941   -0.231684
     31          6           0       -1.181756    4.090372   -0.192850
     32          6           0        6.873433   -3.238849   -1.202452
     33          6           0        5.767225   -0.703266    0.180354
     34          6           0        0.165849    4.041858   -0.294592
     35          6           0        1.070340    5.245996   -0.504588
     36          6           0        2.338173    4.719884   -0.375677
     37          6           0       -3.250956   -4.024033   -0.127882
     38          6           0        5.338805    0.183419    1.293312
     39          6           0       -6.760806   -0.621832   -0.826318
     40          6           0        3.754130    5.283327   -0.464209
     41          6           0        2.166694    3.223916    0.025030
     42          6           0        0.727762    6.575610   -0.874517
     43          6           0        4.410274    5.477850    0.942229
     44          1           0        0.252676    0.269216    0.017931
     45          1           0       -3.084934   -1.207003    1.084955
     46          1           0       -2.573793   -2.783109    2.066279
     47          1           0       -1.209179   -3.718258    2.749394
     48          1           0        5.250803   -2.350153   -2.363156
     49          1           0       -5.062064    0.222570    1.378821
     50          1           0       -5.875050    1.632882    0.478219
     51          1           0        3.035220   -0.118096    0.483252
     52          1           0       -0.360449    1.717916    0.280402
     53          1           0        1.362694   -4.590651    1.115535
     54          1           0        2.362129   -3.541447    1.915141
     55          1           0        0.956324   -4.235594    2.715862
     56          1           0        2.341531   -3.736548   -0.701906
     57          1           0       -1.468799   -4.793658    0.256198
     58          1           0       -2.802678   -5.202336    1.437693
     59          1           0       -4.681273   -0.726614   -1.054995
     60          1           0       -5.231391    0.692311   -1.685805
     61          1           0       -4.301873    4.801691    0.602196
     62          1           0       -5.444203    3.794399   -0.401747
     63          1           0       -4.071643    4.441718   -1.264119
     64          1           0       -1.689976    4.965275   -0.463655
     65          1           0        7.925367   -2.549336   -1.371467
     66          1           0        6.994792   -4.253206   -1.765433
     67          1           0        6.866794   -3.525592   -0.130275
     68          1           0        6.800625   -0.475777   -0.148425
     69          1           0        5.009369    1.060324    0.890164
     70          1           0        6.199709    0.387936    1.877825
     71          1           0        4.377266   -0.192246    2.053149
     72          1           0        3.742359    6.192700   -1.019903
     73          1           0        4.388046    4.770642   -1.114595
     74          1           0        0.036811    6.628798   -1.707171
     75          1           0        1.584689    7.203089   -1.276225
     76          1           0        0.192355    7.275366    0.071231
     77          1           0        3.698899    6.304460    1.521115
     78          1           0        5.425876    5.905576    0.907801
     79          1           0        4.530621    4.545703    1.579835
     80          1           0       -3.892431   -4.373122   -1.735762
     81          1           0       -7.785239   -1.790125   -1.694078
 ---------------------------------------------------------------------

 SCF Done:  E(RB3LYP) =  -1949.13427035     A.U. after   16 cycles

 Excitation energies and oscillator strengths:

 Excited State   1:      Singlet-A      2.0345 eV  609.39 nm  f=0.4271  <S**2>=0.000
     156 ->157         0.70527
     156 <-157        -0.11493
 This state for optimization and/or second-order correction.
 Total Energy, E(TD-HF/TD-DFT) =  -1949.05950202
 Copying the excited state density for this state as the 1-particle RhoCI density.

 The electronic state is 1-A.
 Alpha  occ. eigenvalues --  -19.21411 -19.19495 -19.15407 -19.11857 -19.11256
 Alpha  occ. eigenvalues --  -19.09323 -14.37289 -14.36846 -14.35393 -14.29074
 Alpha  occ. eigenvalues --  -10.34559 -10.31484 -10.29202 -10.25913 -10.24217
 Alpha  occ. eigenvalues --  -10.24082 -10.23449 -10.23316 -10.22663 -10.22254
 Alpha  occ. eigenvalues --  -10.21922 -10.21153 -10.21104 -10.20954 -10.20789
 Alpha  occ. eigenvalues --  -10.20689 -10.20616 -10.20581 -10.20420 -10.20246
 Alpha  occ. eigenvalues --  -10.20168 -10.20151 -10.19868 -10.19867 -10.19722
 Alpha  occ. eigenvalues --  -10.19374 -10.19142 -10.19064 -10.18986 -10.18202
 Alpha  occ. eigenvalues --  -10.18100 -10.17792 -10.17119  -1.13486  -1.12463
 Alpha  occ. eigenvalues --   -1.03587  -1.02030  -1.00698  -0.98778  -0.96868
 Alpha  occ. eigenvalues --   -0.95862  -0.94750  -0.90285  -0.83638  -0.82541
 Alpha  occ. eigenvalues --   -0.81793  -0.81564  -0.79448  -0.79239  -0.78496
 Alpha  occ. eigenvalues --   -0.77685  -0.77192  -0.75144  -0.74634  -0.73792
 Alpha  occ. eigenvalues --   -0.71722  -0.70014  -0.69146  -0.67981  -0.67546
 Alpha  occ. eigenvalues --   -0.66867  -0.65324  -0.63962  -0.62181  -0.61542
 Alpha  occ. eigenvalues --   -0.61175  -0.60323  -0.58847  -0.57626  -0.56993
 Alpha  occ. eigenvalues --   -0.55978  -0.55047  -0.53853  -0.53623  -0.53093
 Alpha  occ. eigenvalues --   -0.52492  -0.52095  -0.51473  -0.51163  -0.50668
 Alpha  occ. eigenvalues --   -0.50341  -0.49648  -0.49271  -0.48523  -0.48207
 Alpha  occ. eigenvalues --   -0.47366  -0.47084  -0.46336  -0.46299  -0.45498
 Alpha  occ. eigenvalues --   -0.44770  -0.44652  -0.44359  -0.44083  -0.43751
 Alpha  occ. eigenvalues --   -0.43644  -0.43405  -0.42799  -0.42550  -0.42261
 Alpha  occ. eigenvalues --   -0.42091  -0.41841  -0.41521  -0.41255  -0.41104
 Alpha  occ. eigenvalues --   -0.40985  -0.40765  -0.40179  -0.39860  -0.39431
 Alpha  occ. eigenvalues --   -0.39272  -0.38957  -0.38879  -0.38491  -0.38051
 Alpha  occ. eigenvalues --   -0.37816  -0.37467  -0.37119  -0.36843  -0.36540
 Alpha  occ. eigenvalues --   -0.36081  -0.35747  -0.35541  -0.35455  -0.35112
 Alpha  occ. eigenvalues --   -0.34711  -0.34390  -0.34348  -0.33615  -0.33258
 Alpha  occ. eigenvalues --   -0.32894  -0.32449  -0.32384  -0.30494  -0.30243
 Alpha  occ. eigenvalues --   -0.28055  -0.27967  -0.26735  -0.25880  -0.24937
 Alpha  occ. eigenvalues --   -0.24595  -0.24183  -0.23290  -0.23042  -0.21976
 Alpha  occ. eigenvalues --   -0.18387
 Alpha virt. eigenvalues --   -0.10471  -0.05625  -0.03775  -0.02661   0.00312
 Alpha virt. eigenvalues --    0.01387   0.01877   0.02715   0.02999   0.03647
 Alpha virt. eigenvalues --    0.04407   0.04795   0.05140   0.05227   0.05795

 Mulliken charges:
               1
     1  O   -0.203930
     2  O   -0.155576
     3  O   -0.118987
     4  O   -0.262196
     5  O   -0.238320
     6  O   -0.250832
     7  N   -0.153912
     8  N   -0.148525
     9  N   -0.186530
    10  N   -0.328245
    11  C   -0.135801
    12  C    0.104113
    13  C   -0.231055
    14  C    0.121959
    15  C   -0.098067
    16  C    0.121566
    17  C   -0.095243
    18  C   -0.078123
    19  C    0.117794
    20  C    0.048129
    21  C    0.085022
    22  C    0.107144
    23  C   -0.036847
    24  C    0.104591
    25  C   -0.127708
    26  C    0.257480
    27  C    0.077525
    28  C    0.142441
    29  C    0.044908
    30  C   -0.016638
    31  C   -0.091041
    32  C   -0.025590
    33  C   -0.130498
    34  C    0.117425
    35  C   -0.043674
    36  C   -0.175436
    37  C    0.092268
    38  C    0.056560
    39  C    0.090004
    40  C    0.169281
    41  C    0.172034
    42  C    0.010605
    43  C   -0.062693
    44  H    0.124290
    45  H    0.026165
    46  H   -0.027659
    47  H    0.013365
    48  H    0.014175
    49  H    0.038093
    50  H    0.022554
    51  H    0.047303
    52  H    0.161765
    53  H   -0.040740
    54  H    0.013808
    55  H    0.006163
    56  H    0.167777
    57  H    0.029241
    58  H    0.016509
    59  H   -0.025104
    60  H    0.026508
    61  H    0.038758
    62  H    0.024837
    63  H    0.040578
    64  H   -0.063399
    65  H    0.049466
    66  H    0.049836
    67  H    0.016775
    68  H    0.005479
    69  H    0.041946
    70  H   -0.002411
    71  H    0.054643
    72  H   -0.038898
    73  H   -0.014500
    74  H    0.017180
    75  H    0.023593
    76  H    0.043344
    77  H    0.022419
    78  H    0.011108
    79  H    0.048992
    80  H    0.180081
    81  H    0.190578
 Sum of Mulliken charges =  -0.00000

 Dipole moment (field-independent basis, Debye):
    X=             -3.1746    Y=             -0.5854    Z=             -1.5785  Tot=              3.5934
 Quadrupole moment (field-independent basis, Debye-Ang):
   XX=           -253.8614   YY=           -241.0292   ZZ=           -253.7441
   XY=             22.9767   XZ=             15.8133   YZ=            -14.6845

 Normal termination of Gaussian 16 at Sun Jun 30 06:47:37 2019.
