 Gaussian 16, Revision A.03,
 Gaussian 16:  ES64L-G16RevA.03 25-Dec-2016

 --------------------------
 # td=(NStates=1) B3LYP/SVP
 --------------------------

 --
 TD
 --
 Symbolic Z-matrix:
 Charge =  0 Multiplicity = 1

                         Standard orientation:
 ---------------------------------------------------------------------
 Center     Atomic      Atomic             Coordinates (Angstroms)
 Number     Number       Type             X           Y           Z
 ---------------------------------------------------------------------
      1          8           0       -4.624584   -4.647961    1.779670
      2          8           0        2.908384   -4.985969    1.198973
      3          8           0        6.999862   -1.542294    1.908890
      4          8           0        3.540590   -3.143868    0.174750
      5          8           0        7.724853   -0.498411    0.057029
      6          8           0       -2.999796    2.486605   -0.302715
      7          7           0       -0.283418   -0.669107   -0.414181
      8          7           0        1.545925    1.798425   -0.427148
      9          7           0       -3.500791   -3.115406    0.642277
     10          7           0       -0.633678    2.933313   -0.082668
     11          6           0        0.633108   -2.466709   -1.367007
     12          6           0        0.929224   -1.231261   -0.838143
     13          6           0       -0.773203   -2.686907   -1.286841
     14          6           0       -1.306970   -1.577740   -0.613436
     15          6           0        3.756343    1.360746   -0.302084
     16          6           0        2.382876    0.768331   -0.723046
     17          6           0        2.202999   -0.520537   -0.967221
     18          6           0        3.599524    2.671890   -0.140296
     19          6           0        1.704733   -3.464201   -1.784663
     20          6           0       -5.626843   -2.398635    1.479649
     21          6           0       -3.738377   -1.748670    0.149234
     22          6           0        2.129126    2.976815   -0.106406
     23          6           0       -5.122287   -1.437424    0.323063
     24          6           0        5.096673    0.612093   -0.424945
     25          6           0       -2.639507   -1.030520   -0.372397
     26          6           0       -1.585184   -3.867860   -1.742918
     27          6           0       -4.519283   -3.500151    1.345933
     28          6           0        2.037949   -4.575040   -0.887348
     29          6           0        5.483292   -0.212761    0.766747
     30          6           0        4.638882    3.684669    0.078245
     31          6           0        1.420894    4.124108    0.080652
     32          6           0       -7.003762   -2.965196    1.068005
     33          6           0       -5.864709   -0.513697   -0.378649
     34          6           0       -0.028106    4.039149    0.247626
     35          6           0       -0.897263    5.181381    0.559302
     36          6           0       -2.165914    4.690537    0.410962
     37          6           0        2.865002   -4.191678    0.193335
     38          6           0       -5.530237    0.407461   -1.365931
     39          6           0        6.793549   -0.820641    0.769081
     40          6           0       -3.439130    5.260154    0.559278
     41          6           0       -2.072678    3.287083   -0.028476
     42          6           0       -0.306619    6.592740    0.951521
     43          6           0       -4.015504    5.837582   -0.763932
     44          1           0       -0.373193    0.249518   -0.378460
     45          1           0        3.136977   -1.232984   -1.064132
     46          1           0        2.589217   -2.982668   -2.198274
     47          1           0        1.329268   -4.042763   -2.677192
     48          1           0       -5.745312   -1.827814    2.426002
     49          1           0        4.976421    0.023795   -1.319676
     50          1           0        5.856370    1.365674   -0.395282
     51          1           0       -2.938358    0.071216   -0.588302
     52          1           0        0.473375    1.860279   -0.773917
     53          1           0       -1.744431   -4.527225   -0.916385
     54          1           0       -2.548999   -3.401469   -1.941112
     55          1           0       -1.085039   -4.268184   -2.583296
     56          1           0       -2.650653   -3.628438    0.450047
     57          1           0        1.243351   -5.064000   -0.501141
     58          1           0        2.656960   -5.319245   -1.150429
     59          1           0        4.858655   -1.025996    1.180346
     60          1           0        5.261482    0.186223    1.759025
     61          1           0        4.474364    4.469723   -0.735056
     62          1           0        5.754286    3.160306   -0.055933
     63          1           0        4.373449    4.360745    0.974872
     64          1           0        1.945004    5.108305    0.191640
     65          1           0       -7.816379   -1.992368    1.132940
     66          1           0       -7.169912   -3.732695    1.927936
     67          1           0       -7.018195   -3.532405   -0.071695
     68          1           0       -6.862428   -0.330914    0.136868
     69          1           0       -4.875014    1.140420   -1.008382
     70          1           0       -6.449871    0.763547   -1.696842
     71          1           0       -4.858845   -0.211045   -2.128999
     72          1           0       -3.232953    6.019825    1.292928
     73          1           0       -4.297406    4.751831    1.016814
     74          1           0        0.227248    6.549096    1.949969
     75          1           0       -1.232275    7.212557    1.336638
     76          1           0        0.380665    6.882686    0.183515
     77          1           0       -3.346036    6.389550   -1.339878
     78          1           0       -4.948622    6.338973   -0.401897
     79          1           0       -4.492700    5.057245   -1.470668
     80          1           0        3.560937   -4.741443    1.779788
     81          1           0        8.066260   -1.785928    1.763509
 ---------------------------------------------------------------------

 SCF Done:  E(RB3LYP) =  -1949.06612833     A.U. after   16 cycles

 Excitation energies and oscillator strengths:

 Excited State   1:      Singlet-A      1.7681 eV  701.24 nm  f=0.2021  <S**2>=0.000
     156 ->157         0.70274
 This state for optimization and/or second-order correction.
 Total Energy, E(TD-HF/TD-DFT) =  -1949.00115327
 Copying the excited state density for this state as the 1-particle RhoCI density.

 The electronic state is 1-A.
 Alpha  occ. eigenvalues --  -19.19916 -19.18130 -19.12721 -19.12131 -19.12002
 Alpha  occ. eigenvalues --  -19.08019 -14.35911 -14.35896 -14.35853 -14.30082
 Alpha  occ. eigenvalues --  -10.32132 -10.31143 -10.28276 -10.27194 -10.24395
 Alpha  occ. eigenvalues --  -10.23674 -10.23576 -10.22858 -10.22583 -10.22190
 Alpha  occ. eigenvalues --  -10.21901 -10.21727 -10.21677 -10.21189 -10.20678
 Alpha  occ. eigenvalues --  -10.20629 -10.20315 -10.20181 -10.20162 -10.19944
 Alpha  occ. eigenvalues --  -10.19878 -10.19645 -10.19625 -10.19576 -10.19239
 Alpha  occ. eigenvalues --  -10.19234 -10.19127 -10.19121 -10.19076 -10.18943
 Alpha  occ. eigenvalues --  -10.18929 -10.18887 -10.17258  -1.14136  -1.08219
 Alpha  occ. eigenvalues --   -1.01764  -1.01291  -1.00154  -0.98844  -0.98272
 Alpha  occ. eigenvalues --   -0.97353  -0.93198  -0.92991  -0.84124  -0.82637
 Alpha  occ. eigenvalues --   -0.81920  -0.81358  -0.80953  -0.80150  -0.78535
 Alpha  occ. eigenvalues --   -0.77689  -0.76444  -0.76016  -0.74704  -0.73434
 Alpha  occ. eigenvalues --   -0.71244  -0.70763  -0.70114  -0.69516  -0.67614
 Alpha  occ. eigenvalues --   -0.66752  -0.65226  -0.64047  -0.63723  -0.63271
 Alpha  occ. eigenvalues --   -0.61110  -0.58623  -0.57627  -0.57207  -0.56476
 Alpha  occ. eigenvalues --   -0.55924  -0.55303  -0.54762  -0.54148  -0.52948
 Alpha  occ. eigenvalues --   -0.52912  -0.52793  -0.51760  -0.51462  -0.50080
 Alpha  occ. eigenvalues --   -0.49868  -0.49087  -0.48682  -0.47940  -0.47703
 Alpha  occ. eigenvalues --   -0.47005  -0.46670  -0.46432  -0.45895  -0.45425
 Alpha  occ. eigenvalues --   -0.45137  -0.44861  -0.44602  -0.43858  -0.43555
 Alpha  occ. eigenvalues --   -0.43221  -0.43008  -0.42821  -0.42788  -0.42670
 Alpha  occ. eigenvalues --   -0.42353  -0.42078  -0.41560  -0.41019  -0.40915
 Alpha  occ. eigenvalues --   -0.40632  -0.40459  -0.40312  -0.39780  -0.39681
 Alpha  occ. eigenvalues --   -0.39578  -0.39178  -0.39061  -0.38956  -0.38712
 Alpha  occ. eigenvalues --   -0.38438  -0.38050  -0.37484  -0.36977  -0.36816
 Alpha  occ. eigenvalues --   -0.36072  -0.35571  -0.35051  -0.34733  -0.34410
 Alpha  occ. eigenvalues --   -0.34201  -0.34155  -0.32764  -0.32630  -0.32571
 Alpha  occ. eigenvalues --   -0.32412  -0.31589  -0.30567  -0.29779  -0.28886
 Alpha  occ. eigenvalues --   -0.28080  -0.27813  -0.25831  -0.25609  -0.24990
 Alpha  occ. eigenvalues --   -0.24706  -0.24677  -0.24202  -0.23368  -0.21450
 Alpha  occ. eigenvalues --   -0.18028
 Alpha virt. eigenvalues --   -0.10641  -0.05961  -0.03845  -0.00158   0.00609
 Alpha virt. eigenvalues --    0.01423   0.02210   0.02578   0.03108   0.03682
 Alpha virt. eigenvalues --    0.04294   0.04404   0.05209   0.05637   0.05760

 Mulliken charges:
               1
     1  O   -0.256155
     2  O   -0.069287
     3  O   -0.263864
     4  O   -0.282879
     5  O   -0.247021
     6  O   -0.214477
     7  N   -0.021394
     8  N   -0.119739
     9  N   -0.057968
    10  N   -0.321966
    11  C   -0.109539
    12  C    0.012217
    13  C   -0.199976
    14  C    0.067409
    15  C   -0.178489
    16  C    0.120108
    17  C   -0.105053
    18  C   -0.089462
    19  C    0.131534
    20  C   -0.069469
    21  C    0.034424
    22  C    0.131473
    23  C   -0.038588
    24  C    0.231688
    25  C   -0.129443
    26  C    0.153881
    27  C    0.098196
    28  C    0.208629
    29  C   -0.017402
    30  C    0.040030
    31  C   -0.155850
    32  C   -0.068464
    33  C   -0.168351
    34  C    0.069687
    35  C   -0.100151
    36  C   -0.155173
    37  C    0.024497
    38  C    0.140799
    39  C    0.143459
    40  C    0.074063
    41  C    0.202409
    42  C    0.087965
    43  C    0.000882
    44  H    0.055580
    45  H    0.071899
    46  H    0.000019
    47  H   -0.014882
    48  H    0.050122
    49  H    0.022875
    50  H   -0.008769
    51  H    0.044345
    52  H    0.205359
    53  H    0.022040
    54  H    0.025814
    55  H    0.008652
    56  H    0.121242
    57  H   -0.021659
    58  H   -0.014418
    59  H    0.016708
    60  H    0.023234
    61  H    0.023080
    62  H    0.060128
    63  H    0.031998
    64  H   -0.019031
    65  H    0.039714
    66  H    0.051709
    67  H    0.053820
    68  H   -0.007469
    69  H    0.051639
    70  H    0.001087
    71  H    0.034236
    72  H   -0.018972
    73  H    0.010487
    74  H    0.033314
    75  H    0.035251
    76  H    0.047211
    77  H    0.007658
    78  H    0.013533
    79  H    0.031930
    80  H    0.152249
    81  H    0.225077
 Sum of Mulliken charges =  -0.00000

 Dipole moment (field-independent basis, Debye):
    X=              2.9042    Y=              3.2896    Z=             -0.1071  Tot=              4.3895
 Quadrupole moment (field-independent basis, Debye-Ang):
   XX=           -265.8003   YY=           -230.5067   ZZ=           -253.5482
   XY=            -32.6076   XZ=             14.6004   YZ=             15.2227

 Normal termination of Gaussian 16 at Tue Jul  2 05:43:15 2019.
