 Gaussian 16, Revision A.03,
 Gaussian 16:  ES64L-G16RevA.03 25-Dec-2016

 --------------------------
 # td=(NStates=1) B3LYP/SVP
 --------------------------

 --
 TD
 --
 Symbolic Z-matrix:
 Charge =  0 Multiplicity = 1

                         Standard orientation:
 ---------------------------------------------------------------------
 Center     Atomic      Atomic             Coordinates (Angstroms)
 Number     Number       Type             X           Y           Z
 ---------------------------------------------------------------------
      1          8           0       -4.423100   -4.769014    1.965426
      2          8           0        3.104989   -4.685978    1.273370
      3          8           0        7.111939   -1.441038    1.862146
      4          8           0        3.867507   -3.166194   -0.010445
      5          8           0        7.617448   -0.685165   -0.203684
      6          8           0       -3.039512    2.452910   -0.069099
      7          7           0       -0.241547   -0.523205   -0.696492
      8          7           0        1.546336    1.923294   -0.543498
      9          7           0       -3.430828   -3.162213    0.708915
     10          7           0       -0.740467    2.930367   -0.136539
     11          6           0        0.782574   -2.447450   -1.380236
     12          6           0        1.024469   -1.152699   -1.038957
     13          6           0       -0.710295   -2.681177   -1.257167
     14          6           0       -1.297387   -1.500630   -0.752179
     15          6           0        3.743809    1.439320   -0.310619
     16          6           0        2.384902    0.815747   -0.527101
     17          6           0        2.099412   -0.416989   -0.852860
     18          6           0        3.558574    2.874066   -0.004993
     19          6           0        1.685446   -3.460522   -1.892678
     20          6           0       -5.586961   -2.665358    1.304438
     21          6           0       -3.645961   -1.794421    0.189887
     22          6           0        2.076896    3.042122   -0.088421
     23          6           0       -5.068080   -1.557203    0.322834
     24          6           0        5.093115    0.801976   -0.333391
     25          6           0       -2.650776   -1.071656   -0.392227
     26          6           0       -1.382109   -3.836259   -1.635452
     27          6           0       -4.489175   -3.734688    1.408000
     28          6           0        2.079961   -4.509845   -0.794488
     29          6           0        5.446083   -0.164076    0.895293
     30          6           0        4.463905    3.926462    0.458217
     31          6           0        1.271653    4.205565    0.174988
     32          6           0       -6.950172   -3.269679    0.894644
     33          6           0       -5.879177   -0.634277   -0.230845
     34          6           0       -0.176746    4.074518    0.055361
     35          6           0       -1.120191    5.214200    0.435309
     36          6           0       -2.290898    4.609472    0.379179
     37          6           0        3.074911   -4.035592    0.161474
     38          6           0       -5.298152    0.397199   -1.286727
     39          6           0        6.792514   -0.678262    0.728685
     40          6           0       -3.739578    5.199651    0.590860
     41          6           0       -2.116577    3.235276    0.049227
     42          6           0       -0.647755    6.540475    0.786247
     43          6           0       -4.311431    5.525495   -0.797677
     44          1           0       -0.543968    0.326579   -0.051110
     45          1           0        3.183400   -0.985119   -0.958129
     46          1           0        2.665142   -3.055403   -2.286369
     47          1           0        1.112545   -4.182288   -2.670400
     48          1           0       -5.696671   -2.339822    2.220599
     49          1           0        5.039639    0.188618   -1.195894
     50          1           0        5.845838    1.593905   -0.417241
     51          1           0       -2.877048   -0.040379   -0.833927
     52          1           0        0.424059    1.968832   -0.800608
     53          1           0       -1.238313   -4.742753   -0.926652
     54          1           0       -2.331249   -3.698813   -1.773693
     55          1           0       -1.157407   -4.136201   -2.626092
     56          1           0       -2.550399   -3.620550    0.800708
     57          1           0        1.247605   -5.043881   -0.396909
     58          1           0        2.608159   -5.152836   -1.355907
     59          1           0        4.738575   -1.146969    0.888230
     60          1           0        5.395275    0.363212    1.847834
     61          1           0        4.555221    4.645268   -0.444711
     62          1           0        5.457450    3.491294    0.922226
     63          1           0        3.981096    4.268856    1.563025
     64          1           0        1.949629    5.090693    0.272442
     65          1           0       -7.777615   -2.602740    1.062082
     66          1           0       -7.240560   -4.272554    1.275877
     67          1           0       -6.871016   -3.627888   -0.185649
     68          1           0       -6.838335   -0.884359    0.009224
     69          1           0       -4.867270    1.108037   -0.678646
     70          1           0       -6.065158    0.704878   -1.769676
     71          1           0       -4.437473   -0.136464   -1.699140
     72          1           0       -3.611506    6.219792    1.134535
     73          1           0       -4.327658    4.501183    1.210278
     74          1           0        0.009977    6.619076    1.598036
     75          1           0       -1.505400    7.252263    0.821154
     76          1           0        0.032360    6.991347   -0.042984
     77          1           0       -3.728071    6.359384   -1.197890
     78          1           0       -5.388018    5.622455   -0.594081
     79          1           0       -4.256835    4.664207   -1.589876
     80          1           0        3.826579   -4.289929    1.795546
     81          1           0        8.087972   -1.587358    1.653611
 ---------------------------------------------------------------------

 SCF Done:  E(RB3LYP) =  -1949.08222936     A.U. after   16 cycles

 Excitation energies and oscillator strengths:

 Excited State   1:      Singlet-A      2.0962 eV  591.46 nm  f=0.3635  <S**2>=0.000
     156 ->157         0.70469
 This state for optimization and/or second-order correction.
 Total Energy, E(TD-HF/TD-DFT) =  -1949.00519380
 Copying the excited state density for this state as the 1-particle RhoCI density.

 The electronic state is 1-A.
 Alpha  occ. eigenvalues --  -19.19465 -19.16997 -19.13217 -19.13085 -19.11050
 Alpha  occ. eigenvalues --  -19.10847 -14.36565 -14.35651 -14.34765 -14.29698
 Alpha  occ. eigenvalues --  -10.32505 -10.32053 -10.28475 -10.26542 -10.24647
 Alpha  occ. eigenvalues --  -10.23442 -10.23322 -10.23299 -10.22876 -10.22593
 Alpha  occ. eigenvalues --  -10.22579 -10.22140 -10.21863 -10.21353 -10.20528
 Alpha  occ. eigenvalues --  -10.20395 -10.20361 -10.20227 -10.19970 -10.19960
 Alpha  occ. eigenvalues --  -10.19924 -10.19897 -10.19752 -10.19656 -10.19294
 Alpha  occ. eigenvalues --  -10.19243 -10.19121 -10.18805 -10.18803 -10.18588
 Alpha  occ. eigenvalues --  -10.18294 -10.17727 -10.16547  -1.14014  -1.07536
 Alpha  occ. eigenvalues --   -1.05050  -1.02499  -1.02414  -0.98101  -0.97168
 Alpha  occ. eigenvalues --   -0.94539  -0.93679  -0.93228  -0.82984  -0.82415
 Alpha  occ. eigenvalues --   -0.81403  -0.81095  -0.80602  -0.79249  -0.78288
 Alpha  occ. eigenvalues --   -0.77325  -0.76439  -0.75517  -0.74321  -0.73544
 Alpha  occ. eigenvalues --   -0.71762  -0.70228  -0.69871  -0.68516  -0.67774
 Alpha  occ. eigenvalues --   -0.66277  -0.65943  -0.64480  -0.62477  -0.62193
 Alpha  occ. eigenvalues --   -0.60527  -0.58638  -0.57653  -0.56537  -0.56287
 Alpha  occ. eigenvalues --   -0.55764  -0.54654  -0.54014  -0.53668  -0.53430
 Alpha  occ. eigenvalues --   -0.52703  -0.52378  -0.51164  -0.50736  -0.50236
 Alpha  occ. eigenvalues --   -0.49155  -0.48888  -0.48649  -0.47899  -0.47601
 Alpha  occ. eigenvalues --   -0.47022  -0.46833  -0.46066  -0.45952  -0.45587
 Alpha  occ. eigenvalues --   -0.45265  -0.44713  -0.44636  -0.44412  -0.44222
 Alpha  occ. eigenvalues --   -0.43450  -0.43338  -0.42975  -0.42609  -0.42460
 Alpha  occ. eigenvalues --   -0.42183  -0.41970  -0.41607  -0.41439  -0.41071
 Alpha  occ. eigenvalues --   -0.40703  -0.40428  -0.40229  -0.39597  -0.39237
 Alpha  occ. eigenvalues --   -0.39132  -0.38838  -0.38675  -0.38583  -0.38335
 Alpha  occ. eigenvalues --   -0.38159  -0.38069  -0.37945  -0.37443  -0.37274
 Alpha  occ. eigenvalues --   -0.37010  -0.36123  -0.35611  -0.35466  -0.34793
 Alpha  occ. eigenvalues --   -0.34407  -0.34282  -0.33713  -0.33600  -0.33155
 Alpha  occ. eigenvalues --   -0.32458  -0.31773  -0.31383  -0.30610  -0.29571
 Alpha  occ. eigenvalues --   -0.28443  -0.28159  -0.26757  -0.25824  -0.25332
 Alpha  occ. eigenvalues --   -0.24977  -0.24646  -0.23687  -0.23255  -0.21776
 Alpha  occ. eigenvalues --   -0.18248
 Alpha virt. eigenvalues --   -0.09758  -0.05844  -0.04175  -0.01518   0.00451
 Alpha virt. eigenvalues --    0.01550   0.01936   0.02776   0.02982   0.04077
 Alpha virt. eigenvalues --    0.04505   0.04754   0.05095   0.05861   0.06500

 Mulliken charges:
               1
     1  O   -0.167302
     2  O   -0.119732
     3  O   -0.247319
     4  O   -0.226307
     5  O   -0.259302
     6  O   -0.193502
     7  N   -0.251340
     8  N   -0.133084
     9  N   -0.182897
    10  N   -0.282020
    11  C   -0.028165
    12  C    0.159918
    13  C   -0.175032
    14  C    0.083379
    15  C   -0.112504
    16  C    0.106768
    17  C   -0.142105
    18  C   -0.123177
    19  C    0.012231
    20  C   -0.005675
    21  C    0.156540
    22  C    0.021311
    23  C   -0.022153
    24  C    0.122985
    25  C   -0.156427
    26  C    0.169293
    27  C    0.106877
    28  C    0.121977
    29  C   -0.031642
    30  C   -0.014543
    31  C   -0.119867
    32  C    0.002068
    33  C   -0.104015
    34  C    0.070930
    35  C   -0.077525
    36  C   -0.193576
    37  C    0.060511
    38  C    0.198986
    39  C    0.161878
    40  C    0.063815
    41  C    0.144934
    42  C    0.126420
    43  C   -0.003637
    44  H    0.188668
    45  H    0.044407
    46  H    0.028233
    47  H    0.023248
    48  H   -0.009894
    49  H    0.009453
    50  H    0.015967
    51  H    0.053027
    52  H    0.204236
    53  H    0.027733
    54  H   -0.050392
    55  H   -0.007634
    56  H    0.111264
    57  H    0.016087
    58  H    0.000401
    59  H    0.103871
    60  H    0.037044
    61  H    0.070673
    62  H    0.035242
    63  H    0.057927
    64  H   -0.017581
    65  H    0.026214
    66  H    0.024058
    67  H    0.011502
    68  H   -0.064935
    69  H    0.033420
    70  H   -0.034456
    71  H    0.029450
    72  H    0.005923
    73  H    0.020805
    74  H    0.014244
    75  H    0.018011
    76  H    0.019652
    77  H    0.014994
    78  H    0.019354
    79  H    0.033437
    80  H    0.183655
    81  H    0.184717
 Sum of Mulliken charges =  -0.00000

 Dipole moment (field-independent basis, Debye):
    X=              1.3804    Y=              1.6278    Z=              0.2296  Tot=              2.1466
 Quadrupole moment (field-independent basis, Debye-Ang):
   XX=           -256.2771   YY=           -236.3307   ZZ=           -255.5913
   XY=             -9.9226   XZ=             17.0792   YZ=             14.2582

 Normal termination of Gaussian 16 at Sun Jun 30 23:20:53 2019.
