 Gaussian 16, Revision A.03,
 Gaussian 16:  ES64L-G16RevA.03 25-Dec-2016

 --------------------------
 # td=(NStates=1) B3LYP/SVP
 --------------------------

 --
 TD
 --
 Symbolic Z-matrix:
 Charge =  0 Multiplicity = 1

                         Standard orientation:
 ---------------------------------------------------------------------
 Center     Atomic      Atomic             Coordinates (Angstroms)
 Number     Number       Type             X           Y           Z
 ---------------------------------------------------------------------
      1          8           0        4.677861   -4.698703   -1.696880
      2          8           0       -2.899459   -4.962114   -1.273995
      3          8           0       -7.183239   -1.530984   -1.744328
      4          8           0       -3.664781   -3.329060   -0.091160
      5          8           0       -7.696216   -0.643272    0.161281
      6          8           0        2.970741    2.549430    0.083029
      7          7           0        0.291792   -0.533365    0.561903
      8          7           0       -1.579145    1.788176    0.309612
      9          7           0        3.549910   -3.041556   -0.592948
     10          7           0        0.741993    2.903809    0.095283
     11          6           0       -0.683343   -2.509836    1.288385
     12          6           0       -0.922203   -1.141167    0.890268
     13          6           0        0.788849   -2.688127    1.300697
     14          6           0        1.337959   -1.434091    0.757055
     15          6           0       -3.747555    1.434278    0.371801
     16          6           0       -2.455710    0.781489    0.524494
     17          6           0       -2.264305   -0.570454    0.882025
     18          6           0       -3.568728    2.734100    0.029989
     19          6           0       -1.508323   -3.494607    1.820854
     20          6           0        5.657912   -2.521779   -1.343713
     21          6           0        3.764440   -1.775992   -0.103772
     22          6           0       -2.200765    2.946193   -0.077381
     23          6           0        5.074031   -1.403397   -0.407108
     24          6           0       -5.097054    0.674651    0.444577
     25          6           0        2.749138   -0.921262    0.471386
     26          6           0        1.539546   -3.820054    1.773197
     27          6           0        4.462887   -3.579899   -1.274648
     28          6           0       -1.853531   -4.722074    0.742855
     29          6           0       -5.378738   -0.350568   -0.738832
     30          6           0       -4.637823    3.732686   -0.234445
     31          6           0       -1.369645    4.051934   -0.406264
     32          6           0        7.054621   -3.181988   -0.972545
     33          6           0        5.820593   -0.436023    0.114505
     34          6           0       -0.063524    4.002467   -0.180385
     35          6           0        0.772876    5.217282   -0.453741
     36          6           0        2.124904    4.836121   -0.412993
     37          6           0       -2.856476   -4.220004   -0.237752
     38          6           0        5.512004    0.602246    1.102449
     39          6           0       -6.855944   -0.847801   -0.756944
     40          6           0        3.415751    5.548717   -0.386475
     41          6           0        2.048958    3.271126   -0.133966
     42          6           0        0.292121    6.605299   -0.684648
     43          6           0        4.147622    5.603302    0.938031
     44          1           0        0.430338    0.413015    0.013075
     45          1           0       -3.150938   -1.202090    0.833963
     46          1           0       -2.663614   -2.955761    2.225537
     47          1           0       -1.155523   -3.939948    2.719668
     48          1           0        5.713683   -2.146261   -2.359738
     49          1           0       -5.180506    0.245106    1.359841
     50          1           0       -5.978394    1.374920    0.392043
     51          1           0        3.047623    0.027908    0.584922
     52          1           0       -0.615144    1.787549    0.171142
     53          1           0        1.315230   -4.963476    1.276008
     54          1           0        2.705028   -3.755312    1.731809
     55          1           0        1.208307   -4.068361    2.907066
     56          1           0        2.718395   -3.620175   -0.505971
     57          1           0       -0.973378   -5.062146    0.290830
     58          1           0       -2.557202   -5.443279    1.254316
     59          1           0       -4.616563   -1.025295   -0.659240
     60          1           0       -5.386621    0.271501   -1.786764
     61          1           0       -4.294479    4.850573    0.206529
     62          1           0       -5.679701    3.450494   -0.055567
     63          1           0       -4.633768    4.058428   -1.250528
     64          1           0       -1.843482    4.945515   -0.594982
     65          1           0        7.806296   -2.508624   -1.205458
     66          1           0        7.189885   -4.074134   -1.585994
     67          1           0        7.010520   -3.580700    0.022878
     68          1           0        6.759232   -0.196412   -0.305691
     69          1           0        5.118330    1.618890    0.592145
     70          1           0        6.416807    0.953930    1.600999
     71          1           0        4.614653    0.395773    1.869965
     72          1           0        3.326532    6.375031   -1.112874
     73          1           0        4.062996    5.098101   -1.130592
     74          1           0       -0.089589    6.652108   -1.751473
     75          1           0        1.135979    7.292892   -0.642514
     76          1           0       -0.521679    6.700816    0.321716
     77          1           0        3.639015    6.340015    1.578220
     78          1           0        5.299509    5.981320    0.850058
     79          1           0        4.298901    4.537445    1.403207
     80          1           0       -3.622000   -4.471578   -1.713105
     81          1           0       -8.129028   -1.796226   -1.547714
 ---------------------------------------------------------------------

 SCF Done:  E(RB3LYP) =  -1949.07569161     A.U. after   17 cycles

 Excitation energies and oscillator strengths:

 Excited State   1:      Singlet-A      1.8843 eV  657.99 nm  f=0.3856  <S**2>=0.000
     156 ->157         0.70554
     156 <-157        -0.11193
 This state for optimization and/or second-order correction.
 Total Energy, E(TD-HF/TD-DFT) =  -1949.00644561
 Copying the excited state density for this state as the 1-particle RhoCI density.

 The electronic state is 1-A.
 Alpha  occ. eigenvalues --  -19.20701 -19.20638 -19.13913 -19.11404 -19.09781
 Alpha  occ. eigenvalues --  -19.09389 -14.39109 -14.38335 -14.35787 -14.28094
 Alpha  occ. eigenvalues --  -10.33266 -10.32451 -10.27778 -10.25398 -10.25346
 Alpha  occ. eigenvalues --  -10.25031 -10.24476 -10.23959 -10.23659 -10.23096
 Alpha  occ. eigenvalues --  -10.22703 -10.22625 -10.22577 -10.22036 -10.21944
 Alpha  occ. eigenvalues --  -10.21078 -10.20923 -10.20728 -10.20726 -10.20573
 Alpha  occ. eigenvalues --  -10.19969 -10.19947 -10.19715 -10.19494 -10.19464
 Alpha  occ. eigenvalues --  -10.19354 -10.19315 -10.19113 -10.19042 -10.18482
 Alpha  occ. eigenvalues --  -10.18397 -10.17877 -10.17317  -1.15600  -1.14485
 Alpha  occ. eigenvalues --   -1.04582  -1.02448  -1.02000  -0.99848  -0.98077
 Alpha  occ. eigenvalues --   -0.97680  -0.96865  -0.89915  -0.82954  -0.82372
 Alpha  occ. eigenvalues --   -0.82289  -0.81403  -0.78933  -0.78710  -0.77887
 Alpha  occ. eigenvalues --   -0.77483  -0.76300  -0.74995  -0.74686  -0.73315
 Alpha  occ. eigenvalues --   -0.71552  -0.70107  -0.69468  -0.68301  -0.67778
 Alpha  occ. eigenvalues --   -0.66760  -0.66121  -0.64449  -0.63218  -0.62338
 Alpha  occ. eigenvalues --   -0.61339  -0.60960  -0.59816  -0.58808  -0.57114
 Alpha  occ. eigenvalues --   -0.56530  -0.55670  -0.54941  -0.54539  -0.52947
 Alpha  occ. eigenvalues --   -0.52307  -0.52246  -0.51807  -0.51090  -0.50841
 Alpha  occ. eigenvalues --   -0.50315  -0.49636  -0.48617  -0.48423  -0.48211
 Alpha  occ. eigenvalues --   -0.47768  -0.47118  -0.46575  -0.46003  -0.45485
 Alpha  occ. eigenvalues --   -0.45277  -0.45129  -0.44657  -0.44399  -0.44170
 Alpha  occ. eigenvalues --   -0.43645  -0.43342  -0.43015  -0.42683  -0.42589
 Alpha  occ. eigenvalues --   -0.42455  -0.42020  -0.41753  -0.41629  -0.41109
 Alpha  occ. eigenvalues --   -0.40523  -0.40115  -0.39839  -0.39704  -0.39520
 Alpha  occ. eigenvalues --   -0.39363  -0.39047  -0.38783  -0.38723  -0.38630
 Alpha  occ. eigenvalues --   -0.38338  -0.37558  -0.37452  -0.37287  -0.37086
 Alpha  occ. eigenvalues --   -0.35911  -0.35843  -0.35542  -0.35060  -0.34951
 Alpha  occ. eigenvalues --   -0.34655  -0.34167  -0.33697  -0.33064  -0.33006
 Alpha  occ. eigenvalues --   -0.32527  -0.31716  -0.31393  -0.30174  -0.29591
 Alpha  occ. eigenvalues --   -0.27345  -0.26973  -0.26441  -0.25913  -0.25168
 Alpha  occ. eigenvalues --   -0.24633  -0.24132  -0.22999  -0.22407  -0.21361
 Alpha  occ. eigenvalues --   -0.18392
 Alpha virt. eigenvalues --   -0.10926  -0.05827  -0.04290  -0.00517   0.00294
 Alpha virt. eigenvalues --    0.01238   0.01589   0.02264   0.03212   0.03321
 Alpha virt. eigenvalues --    0.03739   0.03849   0.04780   0.04998   0.05611

 Mulliken charges:
               1
     1  O   -0.230149
     2  O   -0.094911
     3  O   -0.083507
     4  O   -0.256707
     5  O   -0.309970
     6  O   -0.185208
     7  N   -0.140726
     8  N   -0.011672
     9  N    0.032300
    10  N   -0.326632
    11  C   -0.025792
    12  C    0.095015
    13  C   -0.093173
    14  C    0.067884
    15  C   -0.118111
    16  C    0.052079
    17  C   -0.045948
    18  C   -0.080677
    19  C   -0.035156
    20  C   -0.111530
    21  C    0.032903
    22  C    0.061616
    23  C    0.027593
    24  C    0.122810
    25  C    0.019168
    26  C   -0.090945
    27  C    0.025964
    28  C    0.059161
    29  C   -0.009381
    30  C    0.084411
    31  C   -0.092792
    32  C    0.113442
    33  C   -0.113264
    34  C    0.151015
    35  C   -0.140499
    36  C   -0.211785
    37  C    0.068653
    38  C   -0.016912
    39  C    0.112940
    40  C    0.130595
    41  C    0.123345
    42  C    0.050831
    43  C   -0.025280
    44  H    0.193618
    45  H    0.037587
    46  H    0.044062
    47  H    0.003721
    48  H    0.024092
    49  H   -0.003168
    50  H    0.005606
    51  H   -0.053007
    52  H    0.073523
    53  H    0.039881
    54  H    0.059012
    55  H    0.047229
    56  H    0.128456
    57  H    0.026816
    58  H    0.060555
    59  H    0.022668
    60  H    0.048316
    61  H    0.026400
    62  H    0.025620
    63  H    0.002125
    64  H   -0.070417
    65  H   -0.001822
    66  H    0.021881
    67  H    0.003003
    68  H   -0.018460
    69  H    0.087225
    70  H    0.007684
    71  H    0.046688
    72  H   -0.027187
    73  H   -0.021181
    74  H    0.043014
    75  H    0.018668
    76  H    0.054427
    77  H    0.021499
    78  H    0.017662
    79  H    0.058296
    80  H    0.168213
    81  H    0.196696
 Sum of Mulliken charges =  -0.00000

 Dipole moment (field-independent basis, Debye):
    X=             -3.3318    Y=             -0.1407    Z=             -1.3566  Tot=              3.6002
 Quadrupole moment (field-independent basis, Debye-Ang):
   XX=           -255.0123   YY=           -244.0373   ZZ=           -255.1632
   XY=             21.4589   XZ=             20.7820   YZ=            -15.2798

 Normal termination of Gaussian 16 at Fri Jul  5 07:26:37 2019.
