 Gaussian 16, Revision A.03,
 Gaussian 16:  ES64L-G16RevA.03 25-Dec-2016

 --------------------------
 # td=(NStates=1) B3LYP/SVP
 --------------------------

 --
 TD
 --
 Symbolic Z-matrix:
 Charge =  0 Multiplicity = 1

                         Standard orientation:
 ---------------------------------------------------------------------
 Center     Atomic      Atomic             Coordinates (Angstroms)
 Number     Number       Type             X           Y           Z
 ---------------------------------------------------------------------
      1          8           0       -4.448834   -4.751801    1.935246
      2          8           0        3.090410   -4.878522    1.077127
      3          8           0        6.808401   -1.586605    1.967067
      4          8           0        3.798549   -3.099499   -0.162454
      5          8           0        7.712780   -0.473793    0.152329
      6          8           0       -2.959092    2.288054   -0.246302
      7          7           0       -0.183906   -0.495409   -0.552551
      8          7           0        1.552567    1.906408   -0.628797
      9          7           0       -3.421953   -3.081041    0.624835
     10          7           0       -0.785345    2.995553   -0.160080
     11          6           0        0.702005   -2.362214   -1.509393
     12          6           0        1.075508   -1.054388   -1.068830
     13          6           0       -0.658262   -2.647684   -1.232143
     14          6           0       -1.198229   -1.435461   -0.673289
     15          6           0        3.829093    1.503545   -0.292132
     16          6           0        2.471028    0.935165   -0.678897
     17          6           0        2.258756   -0.487838   -0.897296
     18          6           0        3.610194    2.764400    0.089128
     19          6           0        1.578537   -3.446493   -2.120396
     20          6           0       -5.459473   -2.559719    1.398556
     21          6           0       -3.627655   -1.837173    0.130269
     22          6           0        2.136743    3.050458   -0.130277
     23          6           0       -4.994371   -1.522744    0.389414
     24          6           0        5.134246    0.684831   -0.329891
     25          6           0       -2.623668   -1.018427   -0.252042
     26          6           0       -1.492794   -3.919290   -1.563625
     27          6           0       -4.436353   -3.700385    1.388836
     28          6           0        1.996866   -4.545444   -0.961950
     29          6           0        5.407100   -0.130944    0.877843
     30          6           0        4.599496    3.908879    0.508503
     31          6           0        1.308280    4.161828    0.196179
     32          6           0       -6.963293   -3.128723    1.309591
     33          6           0       -5.785606   -0.567463   -0.192462
     34          6           0       -0.085987    4.095246    0.190414
     35          6           0       -0.970534    5.154830    0.498101
     36          6           0       -2.293678    4.604016    0.309826
     37          6           0        3.025670   -4.012318    0.053300
     38          6           0       -5.551691    0.389749   -1.282080
     39          6           0        6.727701   -0.699815    0.938387
     40          6           0       -3.680451    5.161068    0.403095
     41          6           0       -2.085989    3.202540   -0.078328
     42          6           0       -0.665901    6.496728    0.943222
     43          6           0       -4.511469    5.395128   -0.986152
     44          1           0       -0.137343    0.484859   -0.546176
     45          1           0        3.133809   -1.112082   -1.300121
     46          1           0        2.330620   -2.921937   -2.359861
     47          1           0        0.950596   -4.218569   -3.007327
     48          1           0       -5.542403   -1.926652    2.338929
     49          1           0        5.003015    0.045926   -1.254851
     50          1           0        5.976765    1.284360   -0.697679
     51          1           0       -2.757107    0.184189   -0.302929
     52          1           0        0.604951    1.908938   -0.846073
     53          1           0       -1.371550   -4.556992   -0.790488
     54          1           0       -2.447898   -3.714241   -1.722684
     55          1           0       -0.970659   -4.626511   -2.478874
     56          1           0       -2.515386   -3.527036    0.606990
     57          1           0        1.178212   -4.952145   -0.583844
     58          1           0        2.458889   -5.346612   -1.401276
     59          1           0        4.716993   -0.911653    0.919826
     60          1           0        5.280353    0.571226    1.719366
     61          1           0        4.571785    4.705049    0.108933
     62          1           0        5.537931    3.187393    0.038949
     63          1           0        4.777264    4.201103    1.447959
     64          1           0        1.840418    5.049609    0.390267
     65          1           0       -7.676061   -2.451850    1.591126
     66          1           0       -7.258245   -3.920711    2.052198
     67          1           0       -7.233647   -3.529925    0.229993
     68          1           0       -6.791185   -0.632467    0.142026
     69          1           0       -5.363118    1.407881   -0.881460
     70          1           0       -6.344227    0.526930   -1.754630
     71          1           0       -4.723108    0.054429   -1.961171
     72          1           0       -3.631747    6.171432    0.890420
     73          1           0       -4.276369    4.346733    1.100772
     74          1           0       -0.016707    6.548736    1.978885
     75          1           0       -1.557013    6.997462    1.243638
     76          1           0       -0.238676    7.173216    0.104464
     77          1           0       -3.733383    5.903323   -1.691438
     78          1           0       -5.552273    5.902388   -0.773749
     79          1           0       -4.573028    4.295796   -1.322645
     80          1           0        3.685597   -4.535306    1.665419
     81          1           0        7.861764   -1.918860    2.086274
 ---------------------------------------------------------------------

 SCF Done:  E(RB3LYP) =  -1948.97534390     A.U. after   20 cycles

 Excitation energies and oscillator strengths:

 Excited State   1:      Singlet-A      1.7258 eV  718.40 nm  f=0.3413  <S**2>=0.000
     154 ->157        -0.10806
     156 ->157         0.70476
     156 <-157        -0.14538
 This state for optimization and/or second-order correction.
 Total Energy, E(TD-HF/TD-DFT) =  -1948.91192010
 Copying the excited state density for this state as the 1-particle RhoCI density.

 The electronic state is 1-A.
 Alpha  occ. eigenvalues --  -19.20317 -19.19476 -19.15342 -19.12608 -19.12469
 Alpha  occ. eigenvalues --  -19.08374 -14.37485 -14.37225 -14.36965 -14.26483
 Alpha  occ. eigenvalues --  -10.34518 -10.32415 -10.30101 -10.25688 -10.24325
 Alpha  occ. eigenvalues --  -10.24298 -10.24025 -10.23857 -10.22986 -10.22292
 Alpha  occ. eigenvalues --  -10.21648 -10.21380 -10.21270 -10.21198 -10.21084
 Alpha  occ. eigenvalues --  -10.21080 -10.20894 -10.20861 -10.20838 -10.20608
 Alpha  occ. eigenvalues --  -10.20129 -10.19770 -10.19602 -10.19602 -10.19591
 Alpha  occ. eigenvalues --  -10.19585 -10.19545 -10.19242 -10.18909 -10.18814
 Alpha  occ. eigenvalues --  -10.18764 -10.18361 -10.16474  -1.12965  -1.07195
 Alpha  occ. eigenvalues --   -1.05632  -1.03634  -0.99593  -0.97791  -0.97279
 Alpha  occ. eigenvalues --   -0.97213  -0.96353  -0.90893  -0.83155  -0.82342
 Alpha  occ. eigenvalues --   -0.81409  -0.81282  -0.79404  -0.78476  -0.77757
 Alpha  occ. eigenvalues --   -0.77659  -0.76858  -0.75095  -0.74059  -0.73032
 Alpha  occ. eigenvalues --   -0.72671  -0.70422  -0.69760  -0.69229  -0.68078
 Alpha  occ. eigenvalues --   -0.66569  -0.65989  -0.65211  -0.63428  -0.62854
 Alpha  occ. eigenvalues --   -0.61138  -0.59850  -0.59059  -0.58366  -0.58174
 Alpha  occ. eigenvalues --   -0.57209  -0.55834  -0.54280  -0.53956  -0.53318
 Alpha  occ. eigenvalues --   -0.52557  -0.52167  -0.51337  -0.50859  -0.50287
 Alpha  occ. eigenvalues --   -0.49994  -0.49514  -0.49130  -0.48329  -0.47707
 Alpha  occ. eigenvalues --   -0.47489  -0.47107  -0.46113  -0.45552  -0.45456
 Alpha  occ. eigenvalues --   -0.45083  -0.44678  -0.44057  -0.43661  -0.43316
 Alpha  occ. eigenvalues --   -0.43254  -0.43139  -0.42981  -0.42667  -0.42362
 Alpha  occ. eigenvalues --   -0.42227  -0.41789  -0.41279  -0.41170  -0.40909
 Alpha  occ. eigenvalues --   -0.40781  -0.40540  -0.40214  -0.40167  -0.39583
 Alpha  occ. eigenvalues --   -0.39295  -0.39129  -0.38767  -0.38684  -0.38208
 Alpha  occ. eigenvalues --   -0.37929  -0.37742  -0.37439  -0.37199  -0.36694
 Alpha  occ. eigenvalues --   -0.36214  -0.35758  -0.35478  -0.35044  -0.34617
 Alpha  occ. eigenvalues --   -0.34461  -0.34145  -0.33322  -0.33168  -0.32667
 Alpha  occ. eigenvalues --   -0.32054  -0.31718  -0.31344  -0.30667  -0.30035
 Alpha  occ. eigenvalues --   -0.27856  -0.27474  -0.27230  -0.25809  -0.25688
 Alpha  occ. eigenvalues --   -0.25131  -0.24694  -0.22863  -0.21750  -0.20716
 Alpha  occ. eigenvalues --   -0.17452
 Alpha virt. eigenvalues --   -0.10829  -0.06316  -0.03784  -0.02028  -0.01315
 Alpha virt. eigenvalues --   -0.00458   0.00643   0.00983   0.02240   0.03851
 Alpha virt. eigenvalues --    0.04262   0.04765   0.05154   0.05429   0.06209

 Mulliken charges:
               1
     1  O   -0.160040
     2  O   -0.119217
     3  O   -0.262083
     4  O   -0.226061
     5  O   -0.289535
     6  O   -0.288776
     7  N   -0.100120
     8  N    0.007139
     9  N   -0.141009
    10  N   -0.253699
    11  C   -0.109867
    12  C    0.070357
    13  C   -0.184213
    14  C    0.038477
    15  C   -0.121571
    16  C    0.015741
    17  C   -0.071802
    18  C   -0.100869
    19  C    0.131835
    20  C   -0.125017
    21  C    0.105274
    22  C    0.036521
    23  C   -0.034402
    24  C    0.053772
    25  C   -0.124817
    26  C    0.159117
    27  C    0.189627
    28  C    0.110301
    29  C    0.120457
    30  C    0.193908
    31  C   -0.091841
    32  C    0.031310
    33  C   -0.141984
    34  C    0.125573
    35  C   -0.100727
    36  C   -0.148997
    37  C    0.134467
    38  C    0.221278
    39  C    0.158488
    40  C   -0.006146
    41  C    0.127038
    42  C    0.061771
    43  C   -0.070207
    44  H    0.096646
    45  H    0.051855
    46  H   -0.067648
    47  H    0.053028
    48  H    0.063033
    49  H    0.011258
    50  H    0.023994
    51  H    0.101152
    52  H    0.105517
    53  H    0.002520
    54  H    0.006093
    55  H    0.026449
    56  H    0.112451
    57  H   -0.029720
    58  H    0.014136
    59  H    0.022895
    60  H    0.043781
    61  H   -0.074246
    62  H    0.032087
    63  H   -0.006421
    64  H   -0.050996
    65  H   -0.014018
    66  H    0.026028
    67  H    0.028652
    68  H   -0.028090
    69  H    0.049961
    70  H   -0.069940
    71  H    0.029730
    72  H   -0.003178
    73  H    0.042430
    74  H    0.034297
    75  H   -0.010571
    76  H    0.035146
    77  H    0.032928
    78  H    0.048444
    79  H    0.051155
    80  H    0.144089
    81  H    0.245623
 Sum of Mulliken charges =  -0.00000

 Dipole moment (field-independent basis, Debye):
    X=              2.2180    Y=             -1.5436    Z=              0.7486  Tot=              2.8041
 Quadrupole moment (field-independent basis, Debye-Ang):
   XX=           -251.1541   YY=           -239.1148   ZZ=           -252.3435
   XY=            -13.2298   XZ=             18.5426   YZ=             10.4336

 Normal termination of Gaussian 16 at Thu Jul  4 09:00:33 2019.
