 Gaussian 16, Revision A.03,
 Gaussian 16:  ES64L-G16RevA.03 25-Dec-2016

 --------------------------
 # td=(NStates=1) B3LYP/SVP
 --------------------------

 --
 TD
 --
 Symbolic Z-matrix:
 Charge =  0 Multiplicity = 1

                         Standard orientation:
 ---------------------------------------------------------------------
 Center     Atomic      Atomic             Coordinates (Angstroms)
 Number     Number       Type             X           Y           Z
 ---------------------------------------------------------------------
      1          8           0        4.608545   -4.748469   -1.829296
      2          8           0       -2.862709   -5.196356   -1.044372
      3          8           0       -6.858927   -1.723119   -1.911883
      4          8           0       -3.761345   -3.438622    0.064967
      5          8           0       -7.437241   -0.891018    0.087081
      6          8           0        2.880377    2.406563    0.246208
      7          7           0        0.221784   -0.585657    0.518819
      8          7           0       -1.591307    1.835063    0.208423
      9          7           0        3.500340   -3.129256   -0.608829
     10          7           0        0.680909    2.909144   -0.008733
     11          6           0       -0.607537   -2.436420    1.426389
     12          6           0       -0.921586   -1.160380    0.976369
     13          6           0        0.778805   -2.590572    1.157416
     14          6           0        1.308666   -1.332529    0.653137
     15          6           0       -3.803946    1.388070    0.365824
     16          6           0       -2.480543    0.860518    0.528753
     17          6           0       -2.190466   -0.494209    0.809077
     18          6           0       -3.706752    2.720265    0.067361
     19          6           0       -1.564161   -3.366493    1.971777
     20          6           0        5.701559   -2.595514   -1.342338
     21          6           0        3.605480   -1.763293   -0.168846
     22          6           0       -2.205014    2.992190   -0.019383
     23          6           0        5.010503   -1.438860   -0.438980
     24          6           0       -5.036479    0.579943    0.336344
     25          6           0        2.645055   -0.914973    0.360380
     26          6           0        1.707111   -3.706242    1.705897
     27          6           0        4.629600   -3.655265   -1.375429
     28          6           0       -1.756570   -4.564023    1.015744
     29          6           0       -5.384984   -0.137080   -0.927018
     30          6           0       -4.767743    3.798841   -0.219273
     31          6           0       -1.453233    4.139560   -0.344982
     32          6           0        7.140354   -3.061112   -0.896234
     33          6           0        5.790879   -0.378841    0.081107
     34          6           0       -0.033382    4.024251   -0.354431
     35          6           0        0.825493    5.133355   -0.551823
     36          6           0        2.107578    4.784623   -0.324879
     37          6           0       -2.851839   -4.314418   -0.006070
     38          6           0        5.300068    0.715768    1.045061
     39          6           0       -6.673693   -0.959781   -0.844358
     40          6           0        3.373673    5.575927   -0.390115
     41          6           0        2.063115    3.252147   -0.035807
     42          6           0        0.294402    6.584361   -0.823251
     43          6           0        3.937016    5.811836    1.069760
     44          1           0        0.286324    0.222988   -0.135799
     45          1           0       -3.007543   -1.231180    0.906305
     46          1           0       -2.492202   -2.881820    2.491127
     47          1           0       -1.165952   -3.813615    3.042419
     48          1           0        5.654810   -2.067883   -2.432654
     49          1           0       -5.022148   -0.124697    1.208262
     50          1           0       -5.898504    1.306964    0.743873
     51          1           0        2.976492    0.186972    0.415880
     52          1           0       -0.568612    1.792112    0.470101
     53          1           0        1.661785   -4.481088    0.929512
     54          1           0        2.789189   -3.319284    1.810129
     55          1           0        1.340035   -3.950009    2.776539
     56          1           0        2.601741   -3.523747   -0.936528
     57          1           0       -0.739061   -4.811640    0.750658
     58          1           0       -2.060354   -5.405580    1.620980
     59          1           0       -4.574663   -0.673337   -1.353051
     60          1           0       -5.549902    0.714704   -1.800935
     61          1           0       -4.789503    4.274245    0.659192
     62          1           0       -5.838074    3.263131   -0.085367
     63          1           0       -4.594948    4.410806   -1.168556
     64          1           0       -1.708981    5.141167   -0.730360
     65          1           0        7.826675   -2.007961   -0.780152
     66          1           0        7.736952   -3.790877   -1.346572
     67          1           0        6.851608   -3.324326    0.061057
     68          1           0        6.753125   -0.238130   -0.270893
     69          1           0        4.739852    1.346410    0.586068
     70          1           0        6.359404    1.312106    1.486659
     71          1           0        4.773851    0.123720    1.929922
     72          1           0        3.228075    6.651345   -0.945086
     73          1           0        4.189822    4.786016   -0.955279
     74          1           0       -0.351031    6.490081   -1.679998
     75          1           0        1.025131    7.378057   -0.785368
     76          1           0       -0.355534    6.851987    0.121257
     77          1           0        2.948063    6.316699    1.722148
     78          1           0        4.875846    6.291524    1.198047
     79          1           0        4.066618    4.777337    1.514548
     80          1           0       -3.275588   -5.098541   -1.805249
     81          1           0       -7.613067   -2.321432   -1.945301
 ---------------------------------------------------------------------

 SCF Done:  E(RB3LYP) =  -1949.08713919     A.U. after   16 cycles

 Excitation energies and oscillator strengths:

 Excited State   1:      Singlet-A      1.8730 eV  661.95 nm  f=0.3426  <S**2>=0.000
     156 ->157         0.70756
     156 <-157        -0.10937
 This state for optimization and/or second-order correction.
 Total Energy, E(TD-HF/TD-DFT) =  -1949.01830710
 Copying the excited state density for this state as the 1-particle RhoCI density.

 The electronic state is 1-A.
 Alpha  occ. eigenvalues --  -19.18140 -19.18047 -19.13822 -19.12309 -19.11832
 Alpha  occ. eigenvalues --  -19.11131 -14.37402 -14.36201 -14.36003 -14.28001
 Alpha  occ. eigenvalues --  -10.34751 -10.31961 -10.29822 -10.27018 -10.24644
 Alpha  occ. eigenvalues --  -10.24541 -10.22977 -10.22898 -10.22834 -10.22304
 Alpha  occ. eigenvalues --  -10.22115 -10.21947 -10.21913 -10.21873 -10.21322
 Alpha  occ. eigenvalues --  -10.21116 -10.21064 -10.20590 -10.20444 -10.20247
 Alpha  occ. eigenvalues --  -10.20224 -10.20142 -10.19952 -10.19869 -10.19823
 Alpha  occ. eigenvalues --  -10.19753 -10.19543 -10.19453 -10.19270 -10.19256
 Alpha  occ. eigenvalues --  -10.19184 -10.19019 -10.18846  -1.09965  -1.09732
 Alpha  occ. eigenvalues --   -1.05435  -1.02382  -1.00529  -0.99946  -0.99759
 Alpha  occ. eigenvalues --   -0.98922  -0.93004  -0.90798  -0.82975  -0.82372
 Alpha  occ. eigenvalues --   -0.80395  -0.79798  -0.78765  -0.78216  -0.77600
 Alpha  occ. eigenvalues --   -0.76936  -0.76154  -0.74673  -0.73383  -0.72042
 Alpha  occ. eigenvalues --   -0.71220  -0.69953  -0.68766  -0.68364  -0.67868
 Alpha  occ. eigenvalues --   -0.67393  -0.65606  -0.64281  -0.63748  -0.62152
 Alpha  occ. eigenvalues --   -0.61637  -0.60110  -0.58511  -0.56635  -0.56372
 Alpha  occ. eigenvalues --   -0.55817  -0.55215  -0.54451  -0.53468  -0.52933
 Alpha  occ. eigenvalues --   -0.52312  -0.51344  -0.51149  -0.50249  -0.49208
 Alpha  occ. eigenvalues --   -0.49001  -0.48255  -0.47486  -0.47346  -0.47144
 Alpha  occ. eigenvalues --   -0.46954  -0.46450  -0.45842  -0.45649  -0.45458
 Alpha  occ. eigenvalues --   -0.44650  -0.44343  -0.44225  -0.44024  -0.43700
 Alpha  occ. eigenvalues --   -0.43178  -0.42708  -0.42539  -0.42281  -0.42010
 Alpha  occ. eigenvalues --   -0.41934  -0.41558  -0.41288  -0.40850  -0.40604
 Alpha  occ. eigenvalues --   -0.40444  -0.40177  -0.39848  -0.39512  -0.39227
 Alpha  occ. eigenvalues --   -0.39011  -0.38884  -0.38610  -0.38112  -0.38012
 Alpha  occ. eigenvalues --   -0.37274  -0.37247  -0.36825  -0.36658  -0.36607
 Alpha  occ. eigenvalues --   -0.35824  -0.35063  -0.34874  -0.34473  -0.34169
 Alpha  occ. eigenvalues --   -0.33610  -0.33493  -0.33365  -0.33100  -0.32816
 Alpha  occ. eigenvalues --   -0.32280  -0.32180  -0.32076  -0.29615  -0.28956
 Alpha  occ. eigenvalues --   -0.27741  -0.27269  -0.27006  -0.26320  -0.25645
 Alpha  occ. eigenvalues --   -0.25131  -0.24569  -0.24139  -0.22994  -0.21321
 Alpha  occ. eigenvalues --   -0.17609
 Alpha virt. eigenvalues --   -0.10094  -0.05895  -0.04032  -0.02793  -0.00822
 Alpha virt. eigenvalues --    0.00639   0.02935   0.03437   0.03700   0.04061
 Alpha virt. eigenvalues --    0.04232   0.04911   0.05373   0.05479   0.06109

 Mulliken charges:
               1
     1  O   -0.159978
     2  O   -0.148843
     3  O   -0.170737
     4  O   -0.260283
     5  O   -0.218547
     6  O   -0.175179
     7  N   -0.032177
     8  N   -0.039977
     9  N   -0.218380
    10  N   -0.346886
    11  C   -0.035160
    12  C    0.019218
    13  C   -0.220990
    14  C    0.060740
    15  C   -0.103064
    16  C    0.090373
    17  C   -0.095885
    18  C   -0.152529
    19  C   -0.041905
    20  C   -0.077648
    21  C    0.130173
    22  C    0.119344
    23  C   -0.095249
    24  C    0.061152
    25  C   -0.139348
    26  C    0.056150
    27  C    0.126469
    28  C    0.088808
    29  C    0.009522
    30  C    0.148000
    31  C   -0.137152
    32  C    0.055708
    33  C   -0.108801
    34  C    0.054520
    35  C   -0.113251
    36  C   -0.173665
    37  C    0.185297
    38  C    0.055307
    39  C    0.147376
    40  C   -0.034819
    41  C    0.173439
    42  C    0.095565
    43  C   -0.042660
    44  H    0.146832
    45  H    0.019489
    46  H    0.037020
    47  H    0.014288
    48  H    0.067721
    49  H    0.018561
    50  H    0.025436
    51  H    0.054947
    52  H    0.161967
    53  H    0.024181
    54  H    0.047690
    55  H    0.036769
    56  H    0.139752
    57  H    0.025490
    58  H    0.034906
    59  H    0.018311
    60  H    0.045037
    61  H   -0.010957
    62  H    0.015127
    63  H    0.058936
    64  H   -0.030674
    65  H    0.035210
    66  H    0.032341
    67  H    0.012417
    68  H   -0.023741
    69  H    0.016449
    70  H    0.018716
    71  H    0.055508
    72  H    0.034290
    73  H    0.045104
    74  H    0.031781
    75  H    0.012686
    76  H    0.036741
    77  H    0.027528
    78  H    0.020930
    79  H    0.036534
    80  H    0.137443
    81  H    0.185186
 Sum of Mulliken charges =  -0.00000

 Dipole moment (field-independent basis, Debye):
    X=             -1.7288    Y=              0.3431    Z=             -1.9484  Tot=              2.6274
 Quadrupole moment (field-independent basis, Debye-Ang):
   XX=           -253.1520   YY=           -237.6536   ZZ=           -251.7409
   XY=             13.9142   XZ=             16.4317   YZ=             -5.1514

 Normal termination of Gaussian 16 at Tue Jul  2 15:21:18 2019.
