 Gaussian 16, Revision A.03,
 Gaussian 16:  ES64L-G16RevA.03 25-Dec-2016

 --------------------------
 # td=(NStates=1) B3LYP/SVP
 --------------------------

 --
 TD
 --
 Symbolic Z-matrix:
 Charge =  0 Multiplicity = 1

                         Standard orientation:
 ---------------------------------------------------------------------
 Center     Atomic      Atomic             Coordinates (Angstroms)
 Number     Number       Type             X           Y           Z
 ---------------------------------------------------------------------
      1          8           0        4.622735   -4.741459   -1.867505
      2          8           0       -2.777411   -4.815498   -1.341745
      3          8           0       -7.028873   -1.604794   -1.953653
      4          8           0       -3.773020   -3.209142   -0.192734
      5          8           0       -7.776732   -0.338523   -0.110445
      6          8           0        2.994631    2.447624    0.167035
      7          7           0        0.318869   -0.673155    0.653085
      8          7           0       -1.545852    1.818762    0.483289
      9          7           0        3.428569   -3.156530   -0.631157
     10          7           0        0.731386    2.971014    0.046839
     11          6           0       -0.644172   -2.510274    1.407046
     12          6           0       -0.972560   -1.217748    1.041249
     13          6           0        0.756653   -2.726519    1.386454
     14          6           0        1.317241   -1.494550    0.805366
     15          6           0       -3.774979    1.384328    0.484621
     16          6           0       -2.477720    0.742200    0.691571
     17          6           0       -2.211674   -0.577494    0.887791
     18          6           0       -3.619830    2.674688    0.052700
     19          6           0       -1.638303   -3.566069    1.938950
     20          6           0        5.563057   -2.529418   -1.442538
     21          6           0        3.640260   -1.922123   -0.111546
     22          6           0       -2.214256    2.992274    0.057950
     23          6           0        5.074912   -1.514415   -0.437073
     24          6           0       -5.043026    0.552082    0.401467
     25          6           0        2.666226   -1.053028    0.556347
     26          6           0        1.416708   -3.822318    2.076883
     27          6           0        4.465249   -3.648983   -1.338717
     28          6           0       -2.038186   -4.569097    0.970412
     29          6           0       -5.454155   -0.116764   -0.910268
     30          6           0       -4.777155    3.685766   -0.143995
     31          6           0       -1.424775    4.121143   -0.223823
     32          6           0        7.051962   -3.039449   -1.320138
     33          6           0        5.841875   -0.511196    0.059740
     34          6           0        0.058632    4.118196   -0.242216
     35          6           0        0.990386    5.258693   -0.468532
     36          6           0        2.190891    4.697618   -0.383319
     37          6           0       -2.853036   -4.062005   -0.215838
     38          6           0        5.623506    0.520484    1.129442
     39          6           0       -6.845216   -0.695618   -0.956698
     40          6           0        3.497336    5.469444   -0.361508
     41          6           0        2.095076    3.260503   -0.036619
     42          6           0        0.558574    6.715995   -0.972983
     43          6           0        4.153795    5.701194    0.900738
     44          1           0        0.483509    0.275721    0.406644
     45          1           0       -3.083358   -1.218735    0.797009
     46          1           0       -2.591615   -3.001680    2.126415
     47          1           0       -1.207096   -4.160172    2.736281
     48          1           0        5.510989   -2.030405   -2.498094
     49          1           0       -4.916845   -0.206509    1.311632
     50          1           0       -5.974676    1.037331    0.693118
     51          1           0        2.850530   -0.004099    0.701233
     52          1           0       -0.413102    1.630415    0.606600
     53          1           0        1.444061   -4.891784    1.563366
     54          1           0        2.476683   -3.534466    2.213037
     55          1           0        0.958784   -4.188783    3.028832
     56          1           0        2.676950   -3.735654   -0.275851
     57          1           0       -1.263212   -5.227005    0.519118
     58          1           0       -2.567601   -5.369919    1.450781
     59          1           0       -4.769155   -1.058743   -1.032902
     60          1           0       -5.344849    0.487500   -1.907276
     61          1           0       -4.447887    4.491959    0.442795
     62          1           0       -5.708604    3.497559    0.287499
     63          1           0       -4.865511    3.963771   -1.279215
     64          1           0       -1.940191    5.021584   -0.449846
     65          1           0        7.693582   -2.216380   -1.549963
     66          1           0        7.119631   -3.945571   -1.986795
     67          1           0        7.125273   -3.447314   -0.216538
     68          1           0        6.942017   -0.295449   -0.320785
     69          1           0        5.007929    1.259009    0.915673
     70          1           0        6.611516    0.819675    1.565146
     71          1           0        4.850618    0.118810    1.867773
     72          1           0        3.272609    6.316784   -0.922506
     73          1           0        4.171184    4.834498   -0.994570
     74          1           0        0.097481    6.815073   -2.002447
     75          1           0        1.372322    7.437632   -0.888102
     76          1           0       -0.124671    7.049328   -0.227417
     77          1           0        3.612801    6.509489    1.588768
     78          1           0        5.214405    6.037130    0.989536
     79          1           0        4.456001    4.774181    1.456738
     80          1           0       -3.292160   -4.328513   -1.964356
     81          1           0       -7.899566   -2.047811   -1.920855
 ---------------------------------------------------------------------

 SCF Done:  E(RB3LYP) =  -1949.16314045     A.U. after   16 cycles

 Excitation energies and oscillator strengths:

 Excited State   1:      Singlet-A      1.8587 eV  667.06 nm  f=0.3509  <S**2>=0.000
     156 ->157         0.70834
     156 <-157        -0.11665
 This state for optimization and/or second-order correction.
 Total Energy, E(TD-HF/TD-DFT) =  -1949.09483525
 Copying the excited state density for this state as the 1-particle RhoCI density.

 The electronic state is 1-A.
 Alpha  occ. eigenvalues --  -19.19558 -19.19461 -19.14427 -19.12237 -19.11495
 Alpha  occ. eigenvalues --  -19.10881 -14.39095 -14.38125 -14.35796 -14.28791
 Alpha  occ. eigenvalues --  -10.34220 -10.33110 -10.29799 -10.26462 -10.26418
 Alpha  occ. eigenvalues --  -10.24750 -10.24176 -10.23808 -10.23186 -10.22861
 Alpha  occ. eigenvalues --  -10.22039 -10.21983 -10.21191 -10.21111 -10.20998
 Alpha  occ. eigenvalues --  -10.20995 -10.20962 -10.20557 -10.20457 -10.20418
 Alpha  occ. eigenvalues --  -10.20398 -10.20380 -10.20334 -10.20225 -10.19920
 Alpha  occ. eigenvalues --  -10.19699 -10.19654 -10.19530 -10.19331 -10.18508
 Alpha  occ. eigenvalues --  -10.18412 -10.18023 -10.17567  -1.11378  -1.08166
 Alpha  occ. eigenvalues --   -1.04040  -1.01234  -1.00274  -0.99350  -0.97494
 Alpha  occ. eigenvalues --   -0.96652  -0.94871  -0.91413  -0.84039  -0.81492
 Alpha  occ. eigenvalues --   -0.81243  -0.80794  -0.79917  -0.79436  -0.78049
 Alpha  occ. eigenvalues --   -0.76695  -0.75726  -0.74961  -0.74414  -0.72585
 Alpha  occ. eigenvalues --   -0.71264  -0.69832  -0.69510  -0.69235  -0.68034
 Alpha  occ. eigenvalues --   -0.67647  -0.65878  -0.65142  -0.63587  -0.62184
 Alpha  occ. eigenvalues --   -0.61314  -0.60004  -0.59269  -0.58096  -0.57603
 Alpha  occ. eigenvalues --   -0.56042  -0.55668  -0.54231  -0.53982  -0.53367
 Alpha  occ. eigenvalues --   -0.53172  -0.52303  -0.50847  -0.50123  -0.49312
 Alpha  occ. eigenvalues --   -0.49030  -0.48864  -0.48234  -0.48219  -0.47145
 Alpha  occ. eigenvalues --   -0.47059  -0.46731  -0.46213  -0.45851  -0.45364
 Alpha  occ. eigenvalues --   -0.45009  -0.44701  -0.44352  -0.44174  -0.43696
 Alpha  occ. eigenvalues --   -0.43570  -0.43180  -0.42933  -0.42560  -0.42237
 Alpha  occ. eigenvalues --   -0.42120  -0.41893  -0.41559  -0.41237  -0.40705
 Alpha  occ. eigenvalues --   -0.40689  -0.40497  -0.40183  -0.40078  -0.39997
 Alpha  occ. eigenvalues --   -0.39723  -0.39593  -0.39428  -0.39096  -0.38579
 Alpha  occ. eigenvalues --   -0.38474  -0.38457  -0.38308  -0.37316  -0.37219
 Alpha  occ. eigenvalues --   -0.36052  -0.35726  -0.35359  -0.35254  -0.34540
 Alpha  occ. eigenvalues --   -0.34255  -0.33734  -0.33329  -0.33040  -0.32387
 Alpha  occ. eigenvalues --   -0.32267  -0.31006  -0.30944  -0.30358  -0.29610
 Alpha  occ. eigenvalues --   -0.27607  -0.27108  -0.26740  -0.26374  -0.25595
 Alpha  occ. eigenvalues --   -0.25295  -0.24640  -0.24072  -0.23614  -0.21677
 Alpha  occ. eigenvalues --   -0.17948
 Alpha virt. eigenvalues --   -0.10578  -0.06402  -0.04608  -0.03529  -0.01733
 Alpha virt. eigenvalues --   -0.00786   0.02071   0.02877   0.03675   0.04060
 Alpha virt. eigenvalues --    0.04527   0.05193   0.05584   0.05815   0.05896

 Mulliken charges:
               1
     1  O   -0.214225
     2  O   -0.150487
     3  O   -0.190385
     4  O   -0.273176
     5  O   -0.312811
     6  O   -0.208551
     7  N   -0.048840
     8  N   -0.234808
     9  N   -0.031775
    10  N   -0.315429
    11  C   -0.120730
    12  C    0.095780
    13  C   -0.136680
    14  C    0.028661
    15  C   -0.067027
    16  C    0.092884
    17  C   -0.069355
    18  C   -0.123527
    19  C    0.173213
    20  C   -0.137513
    21  C    0.045659
    22  C    0.154111
    23  C    0.020833
    24  C    0.043820
    25  C   -0.073469
    26  C    0.013115
    27  C    0.124027
    28  C    0.034735
    29  C   -0.024690
    30  C    0.118370
    31  C   -0.096307
    32  C    0.037502
    33  C   -0.194332
    34  C    0.059994
    35  C   -0.083833
    36  C   -0.216173
    37  C    0.138197
    38  C    0.108736
    39  C    0.179796
    40  C    0.169882
    41  C    0.168874
    42  C    0.103859
    43  C   -0.017620
    44  H    0.100533
    45  H    0.015928
    46  H    0.021852
    47  H   -0.006798
    48  H    0.060710
    49  H    0.030997
    50  H    0.014443
    51  H    0.009941
    52  H    0.202797
    53  H    0.017007
    54  H    0.030878
    55  H    0.027083
    56  H    0.135914
    57  H    0.015716
    58  H    0.035205
    59  H    0.062435
    60  H    0.061841
    61  H    0.008569
    62  H    0.006376
    63  H    0.039445
    64  H   -0.049879
    65  H    0.025515
    66  H    0.047441
    67  H    0.024619
    68  H    0.020470
    69  H    0.003662
    70  H    0.026905
    71  H    0.006081
    72  H   -0.032368
    73  H    0.000139
    74  H    0.051170
    75  H    0.008073
    76  H    0.008077
    77  H    0.015966
    78  H   -0.001089
    79  H    0.016620
    80  H    0.169339
    81  H    0.198084
 Sum of Mulliken charges =  -0.00000

 Dipole moment (field-independent basis, Debye):
    X=             -1.4821    Y=              0.0581    Z=             -0.2246  Tot=              1.5001
 Quadrupole moment (field-independent basis, Debye-Ang):
   XX=           -262.3891   YY=           -234.8367   ZZ=           -252.9614
   XY=             19.9680   XZ=             18.6236   YZ=            -15.0749

 Normal termination of Gaussian 16 at Fri Jun 28 11:04:17 2019.
