 Gaussian 16, Revision A.03,
 Gaussian 16:  ES64L-G16RevA.03 25-Dec-2016

 --------------------------
 # td=(NStates=1) B3LYP/SVP
 --------------------------

 --
 TD
 --
 Symbolic Z-matrix:
 Charge =  0 Multiplicity = 1

                         Standard orientation:
 ---------------------------------------------------------------------
 Center     Atomic      Atomic             Coordinates (Angstroms)
 Number     Number       Type             X           Y           Z
 ---------------------------------------------------------------------
      1          8           0        4.583160   -4.740292   -1.985817
      2          8           0       -3.175651   -4.890515   -1.142245
      3          8           0       -6.881226   -1.667050   -1.779544
      4          8           0       -3.831388   -3.033769   -0.052611
      5          8           0       -7.625592   -0.583392    0.080716
      6          8           0        3.051368    2.324949    0.197454
      7          7           0        0.261209   -0.625493    0.369526
      8          7           0       -1.525056    1.797484    0.237620
      9          7           0        3.307210   -3.216252   -0.611677
     10          7           0        0.811384    2.764968   -0.057094
     11          6           0       -0.666119   -2.415290    1.263371
     12          6           0       -0.985819   -1.131867    0.799288
     13          6           0        0.655610   -2.647237    1.262125
     14          6           0        1.252526   -1.477003    0.699030
     15          6           0       -3.809985    1.542353    0.331015
     16          6           0       -2.506241    0.825552    0.462010
     17          6           0       -2.156423   -0.455018    0.805879
     18          6           0       -3.531869    2.937605    0.120096
     19          6           0       -1.751982   -3.327458    1.889628
     20          6           0        5.595248   -2.660291   -1.282427
     21          6           0        3.595778   -1.865960   -0.064170
     22          6           0       -2.117806    3.069592    0.052500
     23          6           0        5.036936   -1.625178   -0.262495
     24          6           0       -5.184769    0.879212    0.340791
     25          6           0        2.663953   -1.054333    0.378757
     26          6           0        1.424525   -3.908857    1.761889
     27          6           0        4.407780   -3.749789   -1.308197
     28          6           0       -2.218317   -4.443869    1.000896
     29          6           0       -5.334798   -0.131199   -0.843515
     30          6           0       -4.529690    4.067271   -0.151358
     31          6           0       -1.260936    4.106718   -0.257982
     32          6           0        6.920079   -3.143755   -1.054050
     33          6           0        5.823174   -0.640435    0.318991
     34          6           0        0.205139    4.019760   -0.294533
     35          6           0        1.024070    5.154018   -0.469329
     36          6           0        2.306760    4.679943   -0.342191
     37          6           0       -3.141671   -3.996727   -0.109979
     38          6           0        5.418763    0.339949    1.427394
     39          6           0       -6.711787   -0.709661   -0.787264
     40          6           0        3.706814    5.339145   -0.469634
     41          6           0        2.166107    3.150373   -0.030959
     42          6           0        0.630605    6.635926   -0.829413
     43          6           0        4.287227    5.595635    0.900181
     44          1           0        0.515475    0.253580   -0.154360
     45          1           0       -3.136136   -1.058041    1.222920
     46          1           0       -2.626369   -2.719738    2.080119
     47          1           0       -1.400312   -3.693503    2.670077
     48          1           0        5.585576   -2.115206   -2.413085
     49          1           0       -5.181423    0.184857    1.502980
     50          1           0       -6.024771    1.625713    0.319539
     51          1           0        2.962722   -0.141473    0.502967
     52          1           0       -0.472056    1.753052    0.068459
     53          1           0        1.513598   -4.723212    0.978327
     54          1           0        2.498719   -3.625914    2.145446
     55          1           0        0.960979   -4.260968    2.700273
     56          1           0        2.462209   -3.599282   -0.476902
     57          1           0       -1.282943   -5.039203    0.520869
     58          1           0       -2.675792   -5.376516    1.358680
     59          1           0       -4.699331   -1.190985   -0.614098
     60          1           0       -5.017903    0.189603   -2.099175
     61          1           0       -4.120451    4.980993    0.247775
     62          1           0       -5.493709    3.927703    0.340875
     63          1           0       -4.676243    4.440870   -1.203387
     64          1           0       -1.730094    5.171952   -0.699934
     65          1           0        7.721773   -2.469095   -1.575509
     66          1           0        6.952976   -3.923212   -1.852303
     67          1           0        7.223937   -3.723083   -0.178596
     68          1           0        6.883673   -0.702577    0.160889
     69          1           0        4.861942    1.117977    1.153615
     70          1           0        6.471926    0.455227    2.228602
     71          1           0        4.695975   -0.372171    2.035893
     72          1           0        3.441687    6.398302   -0.907938
     73          1           0        4.310934    4.870263   -1.386021
     74          1           0        0.066265    6.776955   -1.817254
     75          1           0        1.444083    7.242308   -0.854672
     76          1           0       -0.023805    6.981330    0.098473
     77          1           0        3.585519    6.250663    1.470819
     78          1           0        5.263084    5.971103    0.762026
     79          1           0        4.382972    4.655208    1.500173
     80          1           0       -3.744493   -4.432580   -1.752834
     81          1           0       -7.726091   -2.160047   -1.734041
 ---------------------------------------------------------------------

 SCF Done:  E(RB3LYP) =  -1949.04978068     A.U. after   16 cycles

 Excitation energies and oscillator strengths:

 Excited State   1:      Singlet-A      1.9193 eV  645.99 nm  f=0.3758  <S**2>=0.000
     156 ->157         0.71185
     156 <-157        -0.13671
 This state for optimization and/or second-order correction.
 Total Energy, E(TD-HF/TD-DFT) =  -1948.97924816
 Copying the excited state density for this state as the 1-particle RhoCI density.

 The electronic state is 1-A.
 Alpha  occ. eigenvalues --  -19.19685 -19.16942 -19.15516 -19.12145 -19.11378
 Alpha  occ. eigenvalues --  -19.10050 -14.38787 -14.36899 -14.34635 -14.29392
 Alpha  occ. eigenvalues --  -10.33915 -10.32305 -10.29709 -10.26521 -10.24764
 Alpha  occ. eigenvalues --  -10.24364 -10.23934 -10.23539 -10.23531 -10.23427
 Alpha  occ. eigenvalues --  -10.23304 -10.23268 -10.22664 -10.22121 -10.22018
 Alpha  occ. eigenvalues --  -10.21921 -10.21294 -10.20896 -10.20864 -10.20758
 Alpha  occ. eigenvalues --  -10.20419 -10.20388 -10.20303 -10.20084 -10.20035
 Alpha  occ. eigenvalues --  -10.19970 -10.19946 -10.19851 -10.19765 -10.19573
 Alpha  occ. eigenvalues --  -10.18389 -10.18305 -10.18050  -1.12476  -1.06510
 Alpha  occ. eigenvalues --   -1.03927  -1.02968  -1.00445  -0.99366  -0.97255
 Alpha  occ. eigenvalues --   -0.95536  -0.94007  -0.90240  -0.83785  -0.81746
 Alpha  occ. eigenvalues --   -0.81209  -0.80565  -0.79137  -0.78986  -0.78874
 Alpha  occ. eigenvalues --   -0.76940  -0.75890  -0.75177  -0.74358  -0.72098
 Alpha  occ. eigenvalues --   -0.70955  -0.70118  -0.69503  -0.68982  -0.68194
 Alpha  occ. eigenvalues --   -0.67264  -0.65185  -0.64094  -0.62305  -0.60957
 Alpha  occ. eigenvalues --   -0.60407  -0.58863  -0.58342  -0.57889  -0.57054
 Alpha  occ. eigenvalues --   -0.56478  -0.54707  -0.54109  -0.53454  -0.53210
 Alpha  occ. eigenvalues --   -0.52873  -0.51649  -0.51332  -0.50451  -0.49692
 Alpha  occ. eigenvalues --   -0.48821  -0.48466  -0.47820  -0.47389  -0.46756
 Alpha  occ. eigenvalues --   -0.46504  -0.46118  -0.45747  -0.45568  -0.45207
 Alpha  occ. eigenvalues --   -0.45109  -0.44050  -0.43961  -0.43682  -0.43595
 Alpha  occ. eigenvalues --   -0.43430  -0.42967  -0.42746  -0.42484  -0.42244
 Alpha  occ. eigenvalues --   -0.42074  -0.41797  -0.41427  -0.41014  -0.40800
 Alpha  occ. eigenvalues --   -0.40575  -0.40188  -0.40011  -0.39944  -0.39416
 Alpha  occ. eigenvalues --   -0.39060  -0.38851  -0.38613  -0.38477  -0.38267
 Alpha  occ. eigenvalues --   -0.38147  -0.37549  -0.37277  -0.36920  -0.36754
 Alpha  occ. eigenvalues --   -0.36414  -0.35787  -0.35646  -0.35116  -0.34736
 Alpha  occ. eigenvalues --   -0.34211  -0.34050  -0.33227  -0.32894  -0.32405
 Alpha  occ. eigenvalues --   -0.32380  -0.31246  -0.31084  -0.30800  -0.30361
 Alpha  occ. eigenvalues --   -0.29153  -0.27383  -0.27205  -0.26336  -0.25735
 Alpha  occ. eigenvalues --   -0.24689  -0.24557  -0.23867  -0.23114  -0.22310
 Alpha  occ. eigenvalues --   -0.18013
 Alpha virt. eigenvalues --   -0.10663  -0.06152  -0.03958  -0.01865  -0.01166
 Alpha virt. eigenvalues --   -0.00430   0.01354   0.02812   0.03067   0.04039
 Alpha virt. eigenvalues --    0.04204   0.04561   0.04742   0.05243   0.05429

 Mulliken charges:
               1
     1  O   -0.204411
     2  O   -0.168914
     3  O   -0.235996
     4  O   -0.195492
     5  O   -0.276773
     6  O   -0.214351
     7  N   -0.097671
     8  N   -0.175980
     9  N   -0.142662
    10  N   -0.343151
    11  C   -0.120936
    12  C    0.120817
    13  C   -0.158268
    14  C    0.041841
    15  C   -0.048349
    16  C    0.062302
    17  C   -0.091833
    18  C   -0.112241
    19  C    0.337424
    20  C   -0.141087
    21  C    0.115817
    22  C    0.142514
    23  C   -0.004194
    24  C    0.010254
    25  C    0.019658
    26  C    0.027066
    27  C    0.182326
    28  C   -0.068714
    29  C   -0.142051
    30  C    0.099154
    31  C   -0.179216
    32  C    0.062702
    33  C   -0.103077
    34  C    0.070700
    35  C   -0.091784
    36  C   -0.206322
    37  C    0.126274
    38  C    0.011925
    39  C    0.188276
    40  C    0.010060
    41  C    0.168913
    42  C    0.109017
    43  C    0.039409
    44  H    0.165989
    45  H    0.051208
    46  H   -0.002617
    47  H   -0.092919
    48  H    0.064977
    49  H    0.062847
    50  H    0.038575
    51  H   -0.104869
    52  H    0.148084
    53  H    0.053267
    54  H    0.048748
    55  H    0.022268
    56  H    0.077442
    57  H    0.039519
    58  H    0.042470
    59  H    0.123755
    60  H    0.089063
    61  H   -0.000460
    62  H    0.020947
    63  H    0.028946
    64  H    0.016233
    65  H    0.021173
    66  H    0.010563
    67  H    0.018788
    68  H   -0.006915
    69  H    0.042220
    70  H    0.035979
    71  H    0.036476
    72  H   -0.002917
    73  H    0.048414
    74  H    0.045761
    75  H   -0.018692
    76  H    0.039888
    77  H    0.018628
    78  H    0.007277
    79  H    0.033066
    80  H    0.166431
    81  H    0.187416
 Sum of Mulliken charges =  -0.00000

 Dipole moment (field-independent basis, Debye):
    X=             -1.9135    Y=              0.3289    Z=             -0.0062  Tot=              1.9416
 Quadrupole moment (field-independent basis, Debye-Ang):
   XX=           -266.4365   YY=           -233.7862   ZZ=           -254.2823
   XY=             17.7012   XZ=             16.7740   YZ=            -17.7093

 Normal termination of Gaussian 16 at Mon Jul  1 15:51:52 2019.
