 Gaussian 16, Revision A.03,
 Gaussian 16:  ES64L-G16RevA.03 25-Dec-2016

 --------------------------
 # td=(NStates=1) B3LYP/SVP
 --------------------------

 --
 TD
 --
 Symbolic Z-matrix:
 Charge =  0 Multiplicity = 1

                         Standard orientation:
 ---------------------------------------------------------------------
 Center     Atomic      Atomic             Coordinates (Angstroms)
 Number     Number       Type             X           Y           Z
 ---------------------------------------------------------------------
      1          8           0        4.646234   -4.718735   -1.933429
      2          8           0       -2.939978   -4.990994   -1.301628
      3          8           0       -7.089774   -1.679801   -1.753529
      4          8           0       -3.787557   -3.321806   -0.017976
      5          8           0       -7.530505   -0.640290    0.135399
      6          8           0        2.930442    2.480101   -0.030988
      7          7           0        0.323881   -0.493176    0.651887
      8          7           0       -1.618543    1.781142    0.411038
      9          7           0        3.455118   -3.063143   -0.681920
     10          7           0        0.639869    2.945140    0.052096
     11          6           0       -0.629811   -2.474202    1.400170
     12          6           0       -0.939908   -1.186400    0.932185
     13          6           0        0.826343   -2.644998    1.174965
     14          6           0        1.288325   -1.478176    0.701419
     15          6           0       -3.786298    1.272132    0.330824
     16          6           0       -2.542802    0.710741    0.622850
     17          6           0       -2.250652   -0.531168    0.804856
     18          6           0       -3.608178    2.656986   -0.064995
     19          6           0       -1.532982   -3.519454    1.950404
     20          6           0        5.659660   -2.484244   -1.226008
     21          6           0        3.697189   -1.746043   -0.122047
     22          6           0       -2.149489    2.993230    0.094528
     23          6           0        5.129218   -1.474938   -0.388415
     24          6           0       -5.167366    0.724877    0.409262
     25          6           0        2.637888   -1.073272    0.442001
     26          6           0        1.642811   -3.809030    1.752982
     27          6           0        4.590788   -3.632898   -1.333005
     28          6           0       -1.846624   -4.638120    0.854146
     29          6           0       -5.399627   -0.207463   -0.855592
     30          6           0       -4.646032    3.739605   -0.396446
     31          6           0       -1.342392    4.178281   -0.117245
     32          6           0        7.081853   -3.048259   -0.943997
     33          6           0        5.908842   -0.512525    0.198954
     34          6           0       -0.037089    4.123589   -0.233298
     35          6           0        0.891604    5.300902   -0.436431
     36          6           0        2.129183    4.751513   -0.364234
     37          6           0       -2.978642   -4.133232   -0.162236
     38          6           0        5.466605    0.558420    1.184433
     39          6           0       -6.780001   -0.929532   -0.747530
     40          6           0        3.453913    5.478323   -0.497119
     41          6           0        1.964493    3.256270   -0.047811
     42          6           0        0.396026    6.629023   -0.715896
     43          6           0        4.003490    5.756937    0.893441
     44          1           0        0.566536    0.286717    0.213140
     45          1           0       -3.011783   -1.173330    0.671865
     46          1           0       -2.684125   -3.204863    2.265376
     47          1           0       -1.034667   -4.226933    2.624254
     48          1           0        5.877307   -2.110831   -2.251214
     49          1           0       -5.384819    0.075091    1.410114
     50          1           0       -6.046062    1.525759    0.251558
     51          1           0        2.678354   -0.017053    0.548821
     52          1           0       -0.527400    1.882751    0.394419
     53          1           0        1.485270   -4.724175    1.023932
     54          1           0        2.789317   -3.314656    1.761625
     55          1           0        1.503968   -4.025905    2.759930
     56          1           0        2.711692   -3.668567   -0.456156
     57          1           0       -0.904528   -4.957876    0.346992
     58          1           0       -2.069533   -5.562457    1.329002
     59          1           0       -4.552556   -0.992410   -0.928771
     60          1           0       -5.392705    0.446948   -1.701309
     61          1           0       -4.120709    4.478055    0.161878
     62          1           0       -5.682290    3.515427   -0.096227
     63          1           0       -4.346251    4.244582   -1.265179
     64          1           0       -2.158146    5.087212   -0.316011
     65          1           0        7.869384   -2.055227   -0.947121
     66          1           0        7.368977   -3.790777   -1.728396
     67          1           0        7.126232   -3.460640    0.107751
     68          1           0        6.971838   -0.485722   -0.103450
     69          1           0        5.202779    1.504777    0.613734
     70          1           0        6.265352    0.754924    1.767025
     71          1           0        4.617237    0.285569    1.792312
     72          1           0        3.289518    6.416170   -1.014438
     73          1           0        3.979798    4.719102   -1.178926
     74          1           0       -0.474507    6.539861   -1.494232
     75          1           0        1.028742    7.284815   -1.551835
     76          1           0        0.225973    7.167880    0.354414
     77          1           0        3.309564    6.243134    1.460766
     78          1           0        5.190144    5.983914    0.837129
     79          1           0        3.956459    4.766864    1.519553
     80          1           0       -3.816639   -4.509810   -1.596067
     81          1           0       -8.022922   -1.787106   -1.971456
 ---------------------------------------------------------------------

 SCF Done:  E(RB3LYP) =  -1949.05596969     A.U. after   16 cycles

 Excitation energies and oscillator strengths:

 Excited State   1:      Singlet-A      2.0170 eV  614.71 nm  f=0.3538  <S**2>=0.000
     156 ->157         0.70529
 This state for optimization and/or second-order correction.
 Total Energy, E(TD-HF/TD-DFT) =  -1948.98184806
 Copying the excited state density for this state as the 1-particle RhoCI density.

 The electronic state is 1-A.
 Alpha  occ. eigenvalues --  -19.19070 -19.18962 -19.17418 -19.12163 -19.11318
 Alpha  occ. eigenvalues --  -19.09304 -14.36582 -14.36224 -14.35424 -14.29085
 Alpha  occ. eigenvalues --  -10.34485 -10.32102 -10.29477 -10.26052 -10.25257
 Alpha  occ. eigenvalues --  -10.24968 -10.24333 -10.23141 -10.22700 -10.22690
 Alpha  occ. eigenvalues --  -10.22601 -10.22380 -10.22050 -10.21925 -10.21675
 Alpha  occ. eigenvalues --  -10.21577 -10.21149 -10.21097 -10.20961 -10.20782
 Alpha  occ. eigenvalues --  -10.20644 -10.20165 -10.20100 -10.20053 -10.19851
 Alpha  occ. eigenvalues --  -10.19841 -10.19281 -10.19195 -10.18696 -10.18521
 Alpha  occ. eigenvalues --  -10.18483 -10.18467 -10.17026  -1.13211  -1.11862
 Alpha  occ. eigenvalues --   -1.02359  -1.01764  -1.01417  -0.99745  -0.97525
 Alpha  occ. eigenvalues --   -0.96629  -0.93543  -0.91232  -0.83372  -0.82301
 Alpha  occ. eigenvalues --   -0.82029  -0.80830  -0.79783  -0.78901  -0.77517
 Alpha  occ. eigenvalues --   -0.76824  -0.76656  -0.75154  -0.74461  -0.72978
 Alpha  occ. eigenvalues --   -0.71783  -0.69539  -0.68299  -0.68105  -0.67685
 Alpha  occ. eigenvalues --   -0.67036  -0.65473  -0.64570  -0.62367  -0.62140
 Alpha  occ. eigenvalues --   -0.60768  -0.59123  -0.58318  -0.56847  -0.56341
 Alpha  occ. eigenvalues --   -0.55966  -0.54626  -0.54194  -0.53452  -0.52767
 Alpha  occ. eigenvalues --   -0.52578  -0.52076  -0.51504  -0.50911  -0.50051
 Alpha  occ. eigenvalues --   -0.49428  -0.49176  -0.48938  -0.48358  -0.47779
 Alpha  occ. eigenvalues --   -0.47340  -0.47104  -0.46682  -0.46425  -0.45433
 Alpha  occ. eigenvalues --   -0.45174  -0.44731  -0.44437  -0.44282  -0.44097
 Alpha  occ. eigenvalues --   -0.43727  -0.43233  -0.43148  -0.42818  -0.42322
 Alpha  occ. eigenvalues --   -0.42305  -0.42142  -0.41029  -0.40841  -0.40495
 Alpha  occ. eigenvalues --   -0.40331  -0.40021  -0.39934  -0.39521  -0.39257
 Alpha  occ. eigenvalues --   -0.39065  -0.38644  -0.38445  -0.38276  -0.38144
 Alpha  occ. eigenvalues --   -0.37656  -0.37251  -0.37099  -0.36779  -0.36553
 Alpha  occ. eigenvalues --   -0.36155  -0.35914  -0.35107  -0.34853  -0.34786
 Alpha  occ. eigenvalues --   -0.34339  -0.34163  -0.33959  -0.33824  -0.33164
 Alpha  occ. eigenvalues --   -0.32699  -0.32437  -0.31755  -0.31515  -0.30196
 Alpha  occ. eigenvalues --   -0.27986  -0.27846  -0.26238  -0.25922  -0.25065
 Alpha  occ. eigenvalues --   -0.24894  -0.23792  -0.23633  -0.23508  -0.21653
 Alpha  occ. eigenvalues --   -0.18955
 Alpha virt. eigenvalues --   -0.10599  -0.05434  -0.04150  -0.01881  -0.00425
 Alpha virt. eigenvalues --    0.00213   0.01359   0.02739   0.03277   0.03554
 Alpha virt. eigenvalues --    0.03894   0.04210   0.04609   0.05083   0.05833

 Mulliken charges:
               1
     1  O   -0.233706
     2  O   -0.250163
     3  O   -0.143291
     4  O   -0.163787
     5  O   -0.214767
     6  O   -0.248361
     7  N   -0.075806
     8  N   -0.164972
     9  N   -0.179885
    10  N   -0.322309
    11  C   -0.054722
    12  C    0.087416
    13  C   -0.174115
    14  C    0.082059
    15  C   -0.061321
    16  C    0.226598
    17  C   -0.044772
    18  C   -0.184696
    19  C    0.059670
    20  C   -0.087186
    21  C    0.143204
    22  C    0.009272
    23  C    0.056625
    24  C   -0.003179
    25  C   -0.120034
    26  C   -0.006571
    27  C    0.184104
    28  C   -0.030676
    29  C   -0.058357
    30  C    0.206270
    31  C   -0.138358
    32  C   -0.032309
    33  C   -0.176590
    34  C    0.148067
    35  C   -0.042844
    36  C   -0.239812
    37  C    0.179409
    38  C    0.127832
    39  C    0.125571
    40  C    0.105251
    41  C    0.167047
    42  C   -0.019283
    43  C    0.016690
    44  H    0.091025
    45  H   -0.066431
    46  H    0.056849
    47  H    0.000401
    48  H    0.047614
    49  H    0.055300
    50  H    0.035782
    51  H   -0.003367
    52  H    0.168187
    53  H    0.052917
    54  H    0.058274
    55  H    0.024695
    56  H    0.107927
    57  H    0.031696
    58  H    0.031545
    59  H    0.056261
    60  H    0.026118
    61  H   -0.005320
    62  H    0.042431
    63  H   -0.016378
    64  H    0.014016
    65  H    0.033020
    66  H    0.050585
    67  H    0.024749
    68  H   -0.006675
    69  H    0.070487
    70  H   -0.023158
    71  H    0.017076
    72  H   -0.012356
    73  H    0.030185
    74  H    0.034936
    75  H    0.037272
    76  H    0.070839
    77  H   -0.016762
    78  H    0.042363
    79  H    0.013801
    80  H    0.182073
    81  H    0.188811
 Sum of Mulliken charges =  -0.00000

 Dipole moment (field-independent basis, Debye):
    X=             -4.3202    Y=              1.2293    Z=              0.0699  Tot=              4.4923
 Quadrupole moment (field-independent basis, Debye-Ang):
   XX=           -241.9315   YY=           -245.5127   ZZ=           -255.6278
   XY=             13.2851   XZ=             24.4403   YZ=            -18.4069

 Normal termination of Gaussian 16 at Sat Jun 29 13:04:44 2019.
