 Gaussian 16, Revision A.03,
 Gaussian 16:  ES64L-G16RevA.03 25-Dec-2016

 --------------------------
 # td=(NStates=1) B3LYP/SVP
 --------------------------

 --
 TD
 --
 Symbolic Z-matrix:
 Charge =  0 Multiplicity = 1

                         Standard orientation:
 ---------------------------------------------------------------------
 Center     Atomic      Atomic             Coordinates (Angstroms)
 Number     Number       Type             X           Y           Z
 ---------------------------------------------------------------------
      1          8           0       -4.689606   -4.624673    1.878077
      2          8           0        2.699461   -4.639748    1.535051
      3          8           0        7.186970   -1.383133    1.814981
      4          8           0        3.785398   -3.269272    0.155514
      5          8           0        7.561581   -0.883828   -0.345538
      6          8           0       -2.974515    2.579225   -0.337768
      7          7           0       -0.340102   -0.616996   -0.578768
      8          7           0        1.518472    1.741261   -0.422402
      9          7           0       -3.491648   -3.080266    0.589232
     10          7           0       -0.650349    2.916547   -0.139087
     11          6           0        0.607641   -2.461909   -1.282136
     12          6           0        0.844852   -1.062009   -0.940114
     13          6           0       -0.805699   -2.685037   -1.194912
     14          6           0       -1.327419   -1.502046   -0.750224
     15          6           0        3.833183    1.335751   -0.391144
     16          6           0        2.467779    0.722158   -0.566196
     17          6           0        2.161897   -0.535308   -0.941758
     18          6           0        3.633822    2.560045    0.079594
     19          6           0        1.652055   -3.529125   -1.690976
     20          6           0       -5.637136   -2.375130    1.371566
     21          6           0       -3.755321   -1.722279    0.030923
     22          6           0        2.247499    2.883550    0.037129
     23          6           0       -5.149869   -1.456645    0.308951
     24          6           0        5.066180    0.544487   -0.613842
     25          6           0       -2.666101   -1.066469   -0.671822
     26          6           0       -1.639016   -3.946305   -1.568728
     27          6           0       -4.651643   -3.512066    1.330689
     28          6           0        2.002988   -4.606180   -0.818542
     29          6           0        5.444270   -0.161935    0.665316
     30          6           0        4.642050    3.596901    0.412939
     31          6           0        1.510768    4.075616    0.341917
     32          6           0       -7.112954   -2.980318    1.168393
     33          6           0       -5.911630   -0.356328   -0.280888
     34          6           0        0.062246    3.991377    0.214540
     35          6           0       -0.807689    5.236039    0.571208
     36          6           0       -2.112495    4.776740    0.395610
     37          6           0        2.930092   -4.095101    0.325561
     38          6           0       -5.445469    0.606253   -1.308342
     39          6           0        6.758190   -0.907913    0.549916
     40          6           0       -3.383363    5.426213    0.486033
     41          6           0       -2.007312    3.265748   -0.078883
     42          6           0       -0.319935    6.522951    1.003229
     43          6           0       -4.067382    5.599649   -0.977685
     44          1           0       -0.576816    0.408029   -0.217395
     45          1           0        2.956751   -1.307118   -1.104134
     46          1           0        2.398008   -3.117765   -2.149254
     47          1           0        1.022881   -3.893392   -2.540578
     48          1           0       -5.522114   -1.828648    2.421233
     49          1           0        4.867049   -0.274188   -1.275428
     50          1           0        5.912598    1.407121   -0.740201
     51          1           0       -2.705546    0.099015   -0.758815
     52          1           0        0.440166    1.942521   -0.395192
     53          1           0       -2.184445   -4.719749   -0.837630
     54          1           0       -2.558214   -3.512709   -2.215192
     55          1           0       -1.050860   -4.463714   -2.301771
     56          1           0       -2.682023   -3.469792    0.551557
     57          1           0        1.283894   -5.119186   -0.255777
     58          1           0        2.628228   -5.310073   -1.501612
     59          1           0        4.970383   -1.242014    0.792537
     60          1           0        5.454439    0.310539    1.624849
     61          1           0        4.871298    4.296073   -0.410698
     62          1           0        5.763588    3.170299    0.585487
     63          1           0        4.592520    4.188681    1.474515
     64          1           0        2.158204    4.879929    0.584604
     65          1           0       -8.075604   -2.210057    1.070160
     66          1           0       -7.079700   -3.733521    1.820066
     67          1           0       -7.182934   -3.446267    0.120522
     68          1           0       -6.951700   -0.258334    0.120220
     69          1           0       -4.979003    1.444858   -0.802502
     70          1           0       -6.303197    0.925912   -2.003361
     71          1           0       -4.776056    0.313154   -2.186546
     72          1           0       -3.289622    6.394016    1.087185
     73          1           0       -4.098844    4.749406    1.087348
     74          1           0        0.282112    6.421609    1.868570
     75          1           0       -1.124562    7.135753    1.435135
     76          1           0        0.328310    7.109734    0.198634
     77          1           0       -3.248494    6.053712   -1.744669
     78          1           0       -4.894524    6.164212   -0.869104
     79          1           0       -4.383124    4.443405   -1.178173
     80          1           0        3.467837   -4.452574    1.936563
     81          1           0        8.069736   -1.539509    1.659539
 ---------------------------------------------------------------------

 SCF Done:  E(RB3LYP) =  -1949.06801279     A.U. after   16 cycles

 Excitation energies and oscillator strengths:

 Excited State   1:      Singlet-A      1.8500 eV  670.18 nm  f=0.3675  <S**2>=0.000
     156 ->157         0.70928
     156 <-157        -0.10940
 This state for optimization and/or second-order correction.
 Total Energy, E(TD-HF/TD-DFT) =  -1949.00002602
 Copying the excited state density for this state as the 1-particle RhoCI density.

 The electronic state is 1-A.
 Alpha  occ. eigenvalues --  -19.19563 -19.16161 -19.14731 -19.13003 -19.11923
 Alpha  occ. eigenvalues --  -19.11362 -14.38143 -14.35516 -14.34475 -14.31166
 Alpha  occ. eigenvalues --  -10.33564 -10.31861 -10.29923 -10.28255 -10.25388
 Alpha  occ. eigenvalues --  -10.24682 -10.23881 -10.22956 -10.22715 -10.22483
 Alpha  occ. eigenvalues --  -10.21967 -10.21961 -10.21797 -10.21734 -10.21693
 Alpha  occ. eigenvalues --  -10.21273 -10.21252 -10.21204 -10.20934 -10.20812
 Alpha  occ. eigenvalues --  -10.20311 -10.20175 -10.19910 -10.19909 -10.19828
 Alpha  occ. eigenvalues --  -10.19821 -10.19789 -10.19495 -10.19466 -10.19446
 Alpha  occ. eigenvalues --  -10.19334 -10.19237 -10.18784  -1.13535  -1.08894
 Alpha  occ. eigenvalues --   -1.03563  -1.02945  -1.02020  -1.00211  -1.00175
 Alpha  occ. eigenvalues --   -0.95878  -0.93103  -0.92305  -0.83204  -0.83066
 Alpha  occ. eigenvalues --   -0.81705  -0.81413  -0.80279  -0.78958  -0.78124
 Alpha  occ. eigenvalues --   -0.77324  -0.76064  -0.75276  -0.73860  -0.71853
 Alpha  occ. eigenvalues --   -0.71038  -0.70011  -0.68937  -0.68488  -0.67760
 Alpha  occ. eigenvalues --   -0.67680  -0.65080  -0.64276  -0.62389  -0.61951
 Alpha  occ. eigenvalues --   -0.61707  -0.59026  -0.57937  -0.57626  -0.56496
 Alpha  occ. eigenvalues --   -0.56362  -0.55634  -0.54493  -0.53265  -0.52840
 Alpha  occ. eigenvalues --   -0.52550  -0.51784  -0.51285  -0.50965  -0.50570
 Alpha  occ. eigenvalues --   -0.49543  -0.49149  -0.48818  -0.47587  -0.47460
 Alpha  occ. eigenvalues --   -0.46739  -0.46673  -0.46367  -0.45764  -0.45289
 Alpha  occ. eigenvalues --   -0.44956  -0.44730  -0.44558  -0.44024  -0.43557
 Alpha  occ. eigenvalues --   -0.43444  -0.43327  -0.42922  -0.42764  -0.42580
 Alpha  occ. eigenvalues --   -0.42511  -0.41983  -0.41830  -0.41354  -0.41322
 Alpha  occ. eigenvalues --   -0.41130  -0.40777  -0.40232  -0.40105  -0.39752
 Alpha  occ. eigenvalues --   -0.39618  -0.39243  -0.38985  -0.38944  -0.38539
 Alpha  occ. eigenvalues --   -0.38365  -0.37795  -0.37337  -0.36992  -0.36184
 Alpha  occ. eigenvalues --   -0.35552  -0.35444  -0.35108  -0.34880  -0.34622
 Alpha  occ. eigenvalues --   -0.34553  -0.34276  -0.34001  -0.33615  -0.33406
 Alpha  occ. eigenvalues --   -0.33149  -0.32860  -0.31987  -0.30170  -0.29752
 Alpha  occ. eigenvalues --   -0.29440  -0.27819  -0.26471  -0.25962  -0.25633
 Alpha  occ. eigenvalues --   -0.24999  -0.24972  -0.24515  -0.23448  -0.21642
 Alpha  occ. eigenvalues --   -0.17539
 Alpha virt. eigenvalues --   -0.10161  -0.06452  -0.04508  -0.01869  -0.01455
 Alpha virt. eigenvalues --   -0.00035   0.02383   0.02832   0.03775   0.04196
 Alpha virt. eigenvalues --    0.04965   0.05151   0.05527   0.05793   0.06225

 Mulliken charges:
               1
     1  O   -0.232417
     2  O   -0.102459
     3  O   -0.211854
     4  O   -0.218800
     5  O   -0.215465
     6  O   -0.198636
     7  N   -0.026644
     8  N   -0.202529
     9  N   -0.127460
    10  N   -0.299607
    11  C   -0.210999
    12  C    0.060656
    13  C   -0.113006
    14  C    0.035580
    15  C   -0.075392
    16  C    0.143616
    17  C   -0.131340
    18  C   -0.071292
    19  C    0.157274
    20  C   -0.093122
    21  C    0.099599
    22  C    0.060237
    23  C   -0.062049
    24  C    0.186531
    25  C   -0.147790
    26  C    0.007798
    27  C    0.167880
    28  C    0.127732
    29  C   -0.059753
    30  C   -0.039184
    31  C   -0.077615
    32  C    0.042188
    33  C   -0.088445
    34  C    0.107272
    35  C   -0.099735
    36  C   -0.164896
    37  C    0.080006
    38  C    0.021754
    39  C    0.131042
    40  C    0.000047
    41  C    0.187697
    42  C    0.114604
    43  C   -0.039782
    44  H    0.178394
    45  H    0.019369
    46  H   -0.054618
    47  H    0.009534
    48  H    0.084240
    49  H    0.007479
    50  H    0.046902
    51  H    0.048255
    52  H    0.167278
    53  H    0.065146
    54  H    0.042122
    55  H   -0.004343
    56  H    0.063050
    57  H    0.005573
    58  H    0.054402
    59  H    0.068404
    60  H    0.038456
    61  H    0.042511
    62  H    0.016453
    63  H    0.049207
    64  H   -0.042341
    65  H    0.050458
    66  H    0.010209
    67  H    0.019486
    68  H    0.007273
    69  H    0.075972
    70  H    0.013188
    71  H    0.038159
    72  H    0.004384
    73  H    0.023762
    74  H    0.003445
    75  H    0.002579
    76  H    0.045659
    77  H    0.044721
    78  H   -0.002311
    79  H    0.069158
    80  H    0.129944
    81  H    0.137196
 Sum of Mulliken charges =  -0.00000

 Dipole moment (field-independent basis, Debye):
    X=              1.8311    Y=              1.9672    Z=              0.4816  Tot=              2.7303
 Quadrupole moment (field-independent basis, Debye-Ang):
   XX=           -253.8056   YY=           -240.2928   ZZ=           -257.4254
   XY=            -13.2046   XZ=             13.6591   YZ=             15.8752

 Normal termination of Gaussian 16 at Wed Jun 26 21:24:55 2019.
