 Gaussian 16, Revision A.03,
 Gaussian 16:  ES64L-G16RevA.03 25-Dec-2016

 --------------------------
 # td=(NStates=1) B3LYP/SVP
 --------------------------

 --
 TD
 --
 Symbolic Z-matrix:
 Charge =  0 Multiplicity = 1

                         Standard orientation:
 ---------------------------------------------------------------------
 Center     Atomic      Atomic             Coordinates (Angstroms)
 Number     Number       Type             X           Y           Z
 ---------------------------------------------------------------------
      1          8           0       -4.541616   -4.622970    1.923834
      2          8           0        3.017339   -4.661763    1.491968
      3          8           0        7.130361   -1.510794    1.711566
      4          8           0        3.833385   -3.186641   -0.071513
      5          8           0        7.752189   -0.304022   -0.129046
      6          8           0       -3.012353    2.424753   -0.305705
      7          7           0       -0.364015   -0.508469   -0.738515
      8          7           0        1.543598    1.735281   -0.381766
      9          7           0       -3.455009   -2.878895    0.785211
     10          7           0       -0.704719    3.007481   -0.205317
     11          6           0        0.537060   -2.570007   -1.275420
     12          6           0        0.847022   -1.146863   -0.974653
     13          6           0       -0.897997   -2.687965   -1.147203
     14          6           0       -1.413600   -1.421560   -0.839128
     15          6           0        3.770060    1.277095   -0.422825
     16          6           0        2.481029    0.723905   -0.566570
     17          6           0        2.167086   -0.598588   -0.934627
     18          6           0        3.620733    2.626970   -0.094583
     19          6           0        1.519117   -3.669871   -1.757658
     20          6           0       -5.714055   -2.478951    1.306663
     21          6           0       -3.733099   -1.657947    0.197517
     22          6           0        2.208351    2.906575   -0.124572
     23          6           0       -5.151596   -1.427950    0.264159
     24          6           0        4.994185    0.525580   -0.534147
     25          6           0       -2.711406   -1.034094   -0.445778
     26          6           0       -1.622645   -3.981506   -1.478218
     27          6           0       -4.537148   -3.566261    1.277512
     28          6           0        1.865984   -4.739194   -0.708551
     29          6           0        5.412729   -0.341704    0.735215
     30          6           0        4.777097    3.568012    0.238212
     31          6           0        1.445637    4.021969    0.281452
     32          6           0       -7.071666   -3.083113    0.805469
     33          6           0       -5.905465   -0.486812   -0.261219
     34          6           0        0.042602    4.067849    0.196409
     35          6           0       -0.902172    5.101482    0.608117
     36          6           0       -2.161950    4.640368    0.365614
     37          6           0        2.978795   -4.072898    0.326120
     38          6           0       -5.321099    0.444742   -1.309726
     39          6           0        6.878838   -0.690953    0.690930
     40          6           0       -3.485878    5.338142    0.673927
     41          6           0       -2.062975    3.206343   -0.070087
     42          6           0       -0.418073    6.622061    0.803079
     43          6           0       -4.138268    5.919336   -0.592147
     44          1           0       -0.475647    0.331257   -0.076489
     45          1           0        2.922921   -1.289274   -0.891885
     46          1           0        2.427284   -3.217869   -2.343691
     47          1           0        1.175212   -4.255370   -2.724583
     48          1           0       -5.702173   -2.152337    2.220005
     49          1           0        5.248445    0.022365   -1.442953
     50          1           0        5.649484    1.476720   -0.550654
     51          1           0       -2.827350    0.163650   -0.419885
     52          1           0        0.542811    1.824299   -0.289543
     53          1           0       -1.489107   -4.639369   -0.515810
     54          1           0       -2.779165   -3.586891   -1.745712
     55          1           0       -1.212131   -4.509715   -2.421447
     56          1           0       -2.534148   -3.510090    0.837853
     57          1           0        0.985165   -5.054575   -0.183688
     58          1           0        2.247268   -5.667790   -1.194432
     59          1           0        4.775883   -1.403646    0.761233
     60          1           0        5.273876    0.045630    1.679927
     61          1           0        4.687590    4.480819   -0.415588
     62          1           0        5.808012    3.079786    0.156426
     63          1           0        4.653073    4.307945    1.310720
     64          1           0        2.036117    4.916993    0.497443
     65          1           0       -7.804356   -2.319390    0.730009
     66          1           0       -7.086440   -3.989687    1.488116
     67          1           0       -7.033305   -3.662461   -0.190493
     68          1           0       -7.045434   -0.548636   -0.228912
     69          1           0       -4.445102    1.433958   -0.823434
     70          1           0       -6.064856    1.054374   -1.902997
     71          1           0       -4.650695    0.007177   -2.057568
     72          1           0       -3.175217    6.109842    1.450529
     73          1           0       -4.190909    4.782903    1.432931
     74          1           0        0.263248    6.757951    1.870647
     75          1           0       -1.354683    7.158913    0.797443
     76          1           0        0.167329    6.917513   -0.054393
     77          1           0       -3.774159    6.902124   -1.193947
     78          1           0       -5.054034    6.330256   -0.516269
     79          1           0       -4.389333    5.173477   -1.444859
     80          1           0        3.839294   -4.276567    2.181522
     81          1           0        8.028428   -1.795717    1.628608
 ---------------------------------------------------------------------

 SCF Done:  E(RB3LYP) =  -1949.03841635     A.U. after   19 cycles

 Excitation energies and oscillator strengths:

 Excited State   1:      Singlet-A      1.7498 eV  708.55 nm  f=0.3681  <S**2>=0.000
     156 ->157         0.70860
     156 <-157        -0.13066
 This state for optimization and/or second-order correction.
 Total Energy, E(TD-HF/TD-DFT) =  -1948.97411167
 Copying the excited state density for this state as the 1-particle RhoCI density.

 The electronic state is 1-A.
 Alpha  occ. eigenvalues --  -19.23183 -19.19029 -19.14908 -19.12506 -19.11413
 Alpha  occ. eigenvalues --  -19.10460 -14.38383 -14.38229 -14.35159 -14.27774
 Alpha  occ. eigenvalues --  -10.35761 -10.32325 -10.29092 -10.26343 -10.24901
 Alpha  occ. eigenvalues --  -10.24291 -10.24157 -10.23972 -10.23728 -10.23148
 Alpha  occ. eigenvalues --  -10.23140 -10.22833 -10.22307 -10.22294 -10.21818
 Alpha  occ. eigenvalues --  -10.20962 -10.20947 -10.20549 -10.20477 -10.20466
 Alpha  occ. eigenvalues --  -10.20275 -10.20200 -10.19893 -10.19837 -10.19778
 Alpha  occ. eigenvalues --  -10.19557 -10.19390 -10.19237 -10.19071 -10.19044
 Alpha  occ. eigenvalues --  -10.18401 -10.18189 -10.18104  -1.11098  -1.10477
 Alpha  occ. eigenvalues --   -1.02534  -0.99740  -0.99514  -0.98888  -0.98120
 Alpha  occ. eigenvalues --   -0.97263  -0.95523  -0.91233  -0.82740  -0.81542
 Alpha  occ. eigenvalues --   -0.81322  -0.81032  -0.78859  -0.77887  -0.77301
 Alpha  occ. eigenvalues --   -0.76863  -0.76036  -0.74140  -0.73152  -0.72015
 Alpha  occ. eigenvalues --   -0.70555  -0.69344  -0.68694  -0.67759  -0.67461
 Alpha  occ. eigenvalues --   -0.66852  -0.65390  -0.63242  -0.62450  -0.62349
 Alpha  occ. eigenvalues --   -0.61557  -0.60562  -0.59255  -0.57892  -0.56777
 Alpha  occ. eigenvalues --   -0.56096  -0.55490  -0.55270  -0.53330  -0.52613
 Alpha  occ. eigenvalues --   -0.51848  -0.51633  -0.51112  -0.50423  -0.49537
 Alpha  occ. eigenvalues --   -0.49242  -0.48878  -0.48478  -0.48335  -0.47770
 Alpha  occ. eigenvalues --   -0.46739  -0.46559  -0.46191  -0.45503  -0.44875
 Alpha  occ. eigenvalues --   -0.44710  -0.44449  -0.44204  -0.43868  -0.43630
 Alpha  occ. eigenvalues --   -0.43080  -0.42699  -0.42441  -0.42372  -0.42047
 Alpha  occ. eigenvalues --   -0.41991  -0.41658  -0.40886  -0.40312  -0.40109
 Alpha  occ. eigenvalues --   -0.39905  -0.39733  -0.39686  -0.39432  -0.39362
 Alpha  occ. eigenvalues --   -0.39184  -0.38871  -0.38528  -0.38173  -0.37867
 Alpha  occ. eigenvalues --   -0.37619  -0.37426  -0.36893  -0.36786  -0.36716
 Alpha  occ. eigenvalues --   -0.36421  -0.36126  -0.35693  -0.34135  -0.33698
 Alpha  occ. eigenvalues --   -0.33389  -0.33055  -0.32755  -0.32249  -0.32037
 Alpha  occ. eigenvalues --   -0.31889  -0.31233  -0.30628  -0.30103  -0.29770
 Alpha  occ. eigenvalues --   -0.27861  -0.26548  -0.26364  -0.26069  -0.25954
 Alpha  occ. eigenvalues --   -0.24908  -0.24733  -0.23276  -0.22990  -0.21325
 Alpha  occ. eigenvalues --   -0.17838
 Alpha virt. eigenvalues --   -0.11014  -0.06574  -0.04643  -0.03701  -0.02994
 Alpha virt. eigenvalues --   -0.00389  -0.00312   0.01150   0.01793   0.02929
 Alpha virt. eigenvalues --    0.03829   0.04658   0.05100   0.05387   0.05652

 Mulliken charges:
               1
     1  O   -0.247302
     2  O   -0.204846
     3  O   -0.151612
     4  O   -0.297240
     5  O   -0.275024
     6  O   -0.258982
     7  N   -0.107037
     8  N   -0.069747
     9  N   -0.153646
    10  N   -0.333055
    11  C   -0.077154
    12  C    0.051213
    13  C   -0.175579
    14  C    0.111152
    15  C   -0.072311
    16  C    0.090236
    17  C    0.005360
    18  C   -0.087594
    19  C   -0.007271
    20  C   -0.041872
    21  C    0.119916
    22  C    0.054458
    23  C    0.041775
    24  C    0.087573
    25  C   -0.176346
    26  C   -0.028126
    27  C    0.124903
    28  C    0.043013
    29  C   -0.024049
    30  C   -0.007525
    31  C   -0.071863
    32  C    0.031896
    33  C   -0.106851
    34  C    0.099469
    35  C   -0.098479
    36  C   -0.159719
    37  C    0.189502
    38  C   -0.131816
    39  C    0.145278
    40  C    0.048834
    41  C    0.196065
    42  C    0.040682
    43  C    0.007051
    44  H    0.182473
    45  H   -0.031905
    46  H    0.045879
    47  H    0.021818
    48  H   -0.001612
    49  H    0.019459
    50  H    0.011281
    51  H    0.073097
    52  H    0.092418
    53  H    0.052042
    54  H    0.071529
    55  H    0.050963
    56  H    0.172423
    57  H    0.019324
    58  H    0.053234
    59  H    0.083886
    60  H    0.004794
    61  H    0.031317
    62  H    0.057121
    63  H    0.034602
    64  H   -0.026906
    65  H    0.026586
    66  H    0.039394
    67  H    0.015729
    68  H    0.020497
    69  H    0.146236
    70  H    0.006324
    71  H    0.032077
    72  H   -0.000433
    73  H    0.033888
    74  H    0.044568
    75  H    0.017480
    76  H    0.032232
    77  H    0.011179
    78  H   -0.033718
    79  H    0.029800
    80  H    0.274060
    81  H    0.163536
 Sum of Mulliken charges =  -0.00000

 Dipole moment (field-independent basis, Debye):
    X=              3.3938    Y=             -2.3093    Z=              1.6844  Tot=              4.4371
 Quadrupole moment (field-independent basis, Debye-Ang):
   XX=           -261.9682   YY=           -236.8098   ZZ=           -254.0064
   XY=            -23.8313   XZ=             22.0849   YZ=             10.1275

 Normal termination of Gaussian 16 at Thu Jun 27 14:44:37 2019.
