 Gaussian 16, Revision A.03,
 Gaussian 16:  ES64L-G16RevA.03 25-Dec-2016

 --------------------------
 # td=(NStates=1) B3LYP/SVP
 --------------------------

 --
 TD
 --
 Symbolic Z-matrix:
 Charge =  0 Multiplicity = 1

                         Standard orientation:
 ---------------------------------------------------------------------
 Center     Atomic      Atomic             Coordinates (Angstroms)
 Number     Number       Type             X           Y           Z
 ---------------------------------------------------------------------
      1          8           0       -4.508512   -4.664825    2.121299
      2          8           0        3.217511   -4.925133    1.181249
      3          8           0        7.071991   -1.565874    1.779377
      4          8           0        3.867004   -3.073804    0.017620
      5          8           0        7.585299   -0.602506   -0.237459
      6          8           0       -3.010958    2.534152   -0.329725
      7          7           0       -0.361098   -0.628137   -0.606176
      8          7           0        1.617415    1.807434   -0.306986
      9          7           0       -3.456273   -3.149293    0.684925
     10          7           0       -0.768532    2.948285   -0.238253
     11          6           0        0.649936   -2.393924   -1.348283
     12          6           0        0.861733   -1.005275   -0.999729
     13          6           0       -0.791173   -2.686536   -1.290599
     14          6           0       -1.301610   -1.563610   -0.724168
     15          6           0        3.780208    1.471662   -0.220106
     16          6           0        2.505855    0.800111   -0.536378
     17          6           0        2.151465   -0.421448   -0.920344
     18          6           0        3.508239    2.741398    0.169624
     19          6           0        1.626780   -3.331934   -1.896235
     20          6           0       -5.715526   -2.627229    1.379381
     21          6           0       -3.736277   -1.962031    0.080016
     22          6           0        2.144453    2.989003    0.020782
     23          6           0       -5.101393   -1.550183    0.422705
     24          6           0        5.147162    0.616516   -0.348501
     25          6           0       -2.659261   -1.141481   -0.507242
     26          6           0       -1.511990   -3.945141   -1.519588
     27          6           0       -4.524678   -3.584162    1.428405
     28          6           0        2.082837   -4.426448   -0.870127
     29          6           0        5.467742   -0.149233    0.799122
     30          6           0        4.571694    3.768242    0.427832
     31          6           0        1.312031    4.118133    0.384231
     32          6           0       -7.013396   -3.362262    0.901732
     33          6           0       -5.860409   -0.574082   -0.165780
     34          6           0       -0.048094    4.044649    0.172855
     35          6           0       -0.968998    5.156486    0.490028
     36          6           0       -2.219326    4.700658    0.240360
     37          6           0        3.130015   -4.117159    0.101366
     38          6           0       -5.492123    0.444599   -1.254621
     39          6           0        6.860664   -0.840442    0.681099
     40          6           0       -3.498118    5.404685    0.482742
     41          6           0       -2.178074    3.346004   -0.142292
     42          6           0       -0.546491    6.596194    0.962653
     43          6           0       -4.162679    5.769450   -0.867204
     44          1           0       -0.696633    0.462678   -0.412145
     45          1           0        2.923961   -1.044407   -1.346657
     46          1           0        2.504033   -2.816207   -2.251367
     47          1           0        1.140061   -3.650065   -2.757255
     48          1           0       -5.940055   -2.122624    2.221525
     49          1           0        5.011514    0.439228   -1.349935
     50          1           0        5.750547    1.529282   -0.541765
     51          1           0       -2.892442   -0.058857   -0.836448
     52          1           0        0.579921    2.045906   -0.515301
     53          1           0       -1.398052   -4.704537   -0.808764
     54          1           0       -2.587651   -3.755776   -1.841723
     55          1           0       -1.049832   -4.531385   -2.419057
     56          1           0       -2.675481   -3.750927    0.645299
     57          1           0        1.432159   -4.824148   -0.344986
     58          1           0        2.605631   -5.350755   -1.438738
     59          1           0        4.710850   -1.073608    0.825569
     60          1           0        5.436199    0.358365    1.799591
     61          1           0        4.406879    4.698803   -0.080048
     62          1           0        5.608988    3.442659    0.060013
     63          1           0        4.839621    4.102441    1.498589
     64          1           0        2.026164    4.833009    0.569194
     65          1           0       -8.082219   -2.702684    0.923693
     66          1           0       -7.202199   -4.327279    1.369169
     67          1           0       -6.975665   -3.711314   -0.221888
     68          1           0       -6.970642   -0.547030    0.223862
     69          1           0       -5.201367    1.422965   -0.698873
     70          1           0       -6.366477    0.646287   -1.726111
     71          1           0       -5.013701   -0.091528   -2.100118
     72          1           0       -3.344995    6.208225    1.076077
     73          1           0       -4.115542    4.591599    1.083015
     74          1           0        0.204178    6.689603    1.722099
     75          1           0       -1.474134    7.096746    1.394322
     76          1           0        0.024968    7.428801    0.207485
     77          1           0       -3.623363    6.710949   -1.373361
     78          1           0       -5.249435    6.198358   -0.660333
     79          1           0       -4.136899    4.857227   -1.410926
     80          1           0        4.037691   -4.800578    1.712485
     81          1           0        7.926961   -2.074787    1.607940
 ---------------------------------------------------------------------

 SCF Done:  E(RB3LYP) =  -1949.05517413     A.U. after   16 cycles

 Excitation energies and oscillator strengths:

 Excited State   1:      Singlet-A      1.9060 eV  650.48 nm  f=0.3650  <S**2>=0.000
     156 ->157         0.70552
     156 <-157        -0.10196
 This state for optimization and/or second-order correction.
 Total Energy, E(TD-HF/TD-DFT) =  -1948.98512845
 Copying the excited state density for this state as the 1-particle RhoCI density.

 The electronic state is 1-A.
 Alpha  occ. eigenvalues --  -19.20181 -19.19231 -19.13113 -19.12553 -19.10675
 Alpha  occ. eigenvalues --  -19.10358 -14.38155 -14.37439 -14.34151 -14.28027
 Alpha  occ. eigenvalues --  -10.33956 -10.31471 -10.29477 -10.25883 -10.25486
 Alpha  occ. eigenvalues --  -10.22746 -10.22399 -10.22145 -10.22076 -10.22065
 Alpha  occ. eigenvalues --  -10.21823 -10.21124 -10.21066 -10.21046 -10.20998
 Alpha  occ. eigenvalues --  -10.20875 -10.20633 -10.20534 -10.20332 -10.20308
 Alpha  occ. eigenvalues --  -10.20061 -10.19959 -10.19887 -10.19795 -10.19689
 Alpha  occ. eigenvalues --  -10.19144 -10.18923 -10.18879 -10.18779 -10.18352
 Alpha  occ. eigenvalues --  -10.18324 -10.17947 -10.17850  -1.09962  -1.09834
 Alpha  occ. eigenvalues --   -1.03808  -1.01765  -1.01706  -0.99304  -0.98729
 Alpha  occ. eigenvalues --   -0.98353  -0.94840  -0.90353  -0.82973  -0.82056
 Alpha  occ. eigenvalues --   -0.81592  -0.81317  -0.79796  -0.79151  -0.77990
 Alpha  occ. eigenvalues --   -0.76881  -0.75964  -0.74643  -0.73582  -0.73242
 Alpha  occ. eigenvalues --   -0.71020  -0.69942  -0.69137  -0.68643  -0.67752
 Alpha  occ. eigenvalues --   -0.67282  -0.65496  -0.65262  -0.62911  -0.62369
 Alpha  occ. eigenvalues --   -0.61253  -0.60041  -0.59754  -0.59027  -0.56745
 Alpha  occ. eigenvalues --   -0.56383  -0.55642  -0.54829  -0.53725  -0.53609
 Alpha  occ. eigenvalues --   -0.52494  -0.52071  -0.50475  -0.49304  -0.49116
 Alpha  occ. eigenvalues --   -0.48974  -0.48807  -0.48519  -0.48145  -0.47522
 Alpha  occ. eigenvalues --   -0.46983  -0.46467  -0.45881  -0.45396  -0.45087
 Alpha  occ. eigenvalues --   -0.44610  -0.44283  -0.44099  -0.43869  -0.43461
 Alpha  occ. eigenvalues --   -0.43385  -0.43248  -0.42895  -0.42658  -0.42234
 Alpha  occ. eigenvalues --   -0.41832  -0.41637  -0.41318  -0.40919  -0.40783
 Alpha  occ. eigenvalues --   -0.40611  -0.40376  -0.40047  -0.39726  -0.39627
 Alpha  occ. eigenvalues --   -0.39453  -0.39277  -0.39020  -0.38539  -0.38313
 Alpha  occ. eigenvalues --   -0.37903  -0.37763  -0.37729  -0.36530  -0.36266
 Alpha  occ. eigenvalues --   -0.36013  -0.35864  -0.35397  -0.34730  -0.34515
 Alpha  occ. eigenvalues --   -0.33563  -0.33517  -0.33178  -0.32906  -0.32412
 Alpha  occ. eigenvalues --   -0.32367  -0.31925  -0.31399  -0.30176  -0.28295
 Alpha  occ. eigenvalues --   -0.27534  -0.27350  -0.26191  -0.25520  -0.25166
 Alpha  occ. eigenvalues --   -0.25020  -0.24317  -0.24266  -0.22917  -0.20647
 Alpha  occ. eigenvalues --   -0.17715
 Alpha virt. eigenvalues --   -0.09996  -0.05779  -0.04337  -0.02520  -0.01255
 Alpha virt. eigenvalues --    0.01587   0.02304   0.03173   0.03669   0.04075
 Alpha virt. eigenvalues --    0.04507   0.04946   0.05172   0.05646   0.06145

 Mulliken charges:
               1
     1  O   -0.287655
     2  O   -0.187822
     3  O   -0.184524
     4  O   -0.290494
     5  O   -0.205100
     6  O   -0.153784
     7  N   -0.077143
     8  N   -0.093553
     9  N   -0.037831
    10  N   -0.401582
    11  C   -0.176570
    12  C    0.069278
    13  C   -0.124029
    14  C    0.063826
    15  C   -0.179493
    16  C    0.099711
    17  C   -0.058546
    18  C   -0.079246
    19  C    0.192972
    20  C    0.069383
    21  C    0.057255
    22  C   -0.064779
    23  C   -0.061551
    24  C    0.232173
    25  C   -0.149128
    26  C    0.050695
    27  C    0.112776
    28  C    0.136133
    29  C    0.003520
    30  C    0.029953
    31  C   -0.028068
    32  C   -0.035832
    33  C   -0.209009
    34  C    0.166876
    35  C   -0.043820
    36  C   -0.197385
    37  C    0.111670
    38  C    0.137985
    39  C    0.131551
    40  C    0.120817
    41  C    0.149220
    42  C    0.027273
    43  C   -0.031252
    44  H    0.203852
    45  H   -0.002348
    46  H   -0.005672
    47  H   -0.007820
    48  H    0.011215
    49  H   -0.021644
    50  H   -0.035902
    51  H    0.068020
    52  H    0.164021
    53  H    0.020749
    54  H    0.046193
    55  H    0.003479
    56  H    0.121514
    57  H   -0.064131
    58  H    0.056697
    59  H    0.077237
    60  H    0.043404
    61  H    0.014314
    62  H    0.017258
    63  H    0.023792
    64  H   -0.075039
    65  H    0.039496
    66  H    0.041389
    67  H    0.018836
    68  H    0.016742
    69  H    0.092922
    70  H   -0.034057
    71  H    0.025977
    72  H   -0.048366
    73  H    0.026988
    74  H    0.012067
    75  H    0.022911
    76  H    0.041195
    77  H    0.029094
    78  H    0.023205
    79  H    0.029316
    80  H    0.208164
    81  H    0.190062
 Sum of Mulliken charges =  -0.00000

 Dipole moment (field-independent basis, Debye):
    X=              2.3813    Y=             -0.9962    Z=             -0.4642  Tot=              2.6227
 Quadrupole moment (field-independent basis, Debye-Ang):
   XX=           -243.3160   YY=           -231.9880   ZZ=           -256.7387
   XY=            -22.6769   XZ=             20.2514   YZ=             16.2422

 Normal termination of Gaussian 16 at Sat Jun 29 00:18:33 2019.
