 Gaussian 16, Revision A.03,
 Gaussian 16:  ES64L-G16RevA.03 25-Dec-2016

 --------------------------
 # td=(NStates=1) B3LYP/SVP
 --------------------------

 --
 TD
 --
 Symbolic Z-matrix:
 Charge =  0 Multiplicity = 1

                         Standard orientation:
 ---------------------------------------------------------------------
 Center     Atomic      Atomic             Coordinates (Angstroms)
 Number     Number       Type             X           Y           Z
 ---------------------------------------------------------------------
      1          8           0        4.442730   -4.709083   -2.049465
      2          8           0       -2.895546   -4.919262   -1.124355
      3          8           0       -6.987269   -1.633436   -1.847154
      4          8           0       -3.680110   -3.171437   -0.039679
      5          8           0       -7.621818   -0.496066    0.043547
      6          8           0        2.951007    2.445930    0.278991
      7          7           0        0.184748   -0.575478    0.549749
      8          7           0       -1.521123    1.833987    0.283244
      9          7           0        3.311506   -3.158720   -0.771530
     10          7           0        0.739626    2.909980   -0.021726
     11          6           0       -0.679201   -2.412718    1.588613
     12          6           0       -0.961223   -1.054010    1.102721
     13          6           0        0.702393   -2.680818    1.306237
     14          6           0        1.308049   -1.451827    0.615657
     15          6           0       -3.791125    1.534672    0.261696
     16          6           0       -2.464444    0.897231    0.615770
     17          6           0       -2.190716   -0.413576    0.947004
     18          6           0       -3.584371    2.811755   -0.269035
     19          6           0       -1.684069   -3.423205    2.103264
     20          6           0        5.552628   -2.779613   -1.330691
     21          6           0        3.584356   -1.854894   -0.270122
     22          6           0       -2.071609    2.980142   -0.126251
     23          6           0        4.979901   -1.622140   -0.449071
     24          6           0       -5.095799    0.733103    0.333245
     25          6           0        2.649683   -1.049188    0.310754
     26          6           0        1.495509   -3.847780    1.890270
     27          6           0        4.370202   -3.687440   -1.436407
     28          6           0       -2.228571   -4.565349    1.114931
     29          6           0       -5.304634   -0.250199   -0.876705
     30          6           0       -4.526673    3.908222   -0.579130
     31          6           0       -1.314681    4.146410   -0.345238
     32          6           0        6.830523   -3.472008   -1.063387
     33          6           0        5.838274   -0.741564    0.138492
     34          6           0        0.099454    4.085128   -0.200365
     35          6           0        1.092527    5.223079   -0.390765
     36          6           0        2.284374    4.772579   -0.253658
     37          6           0       -2.966782   -4.052299   -0.034033
     38          6           0        5.461312    0.485737    1.032278
     39          6           0       -6.797043   -0.771060   -0.787987
     40          6           0        3.611639    5.484122   -0.370711
     41          6           0        2.147260    3.262428    0.101350
     42          6           0        0.592354    6.628869   -0.715417
     43          6           0        4.195485    5.792240    1.140767
     44          1           0        0.414979    0.445893    0.212590
     45          1           0       -3.070173   -1.175219    1.188585
     46          1           0       -2.483733   -2.925368    2.546298
     47          1           0       -1.132580   -3.801023    3.014710
     48          1           0        5.670884   -2.468738   -2.400018
     49          1           0       -4.784568   -0.092762    1.331260
     50          1           0       -6.042684    1.458026    0.357974
     51          1           0        2.772016    0.067813    0.379904
     52          1           0       -0.344230    1.990157    0.521222
     53          1           0        1.595197   -4.840392    1.281013
     54          1           0        2.638777   -3.527335    1.873616
     55          1           0        1.177527   -4.220839    2.739103
     56          1           0        2.523572   -3.681496   -0.661295
     57          1           0       -1.389830   -5.140023    0.827517
     58          1           0       -2.556502   -5.313013    1.837673
     59          1           0       -4.671942   -1.229828   -0.668458
     60          1           0       -5.106467    0.084465   -1.806199
     61          1           0       -4.281677    4.810014   -0.280934
     62          1           0       -5.565090    3.494447   -0.087888
     63          1           0       -4.680596    3.851220   -1.805614
     64          1           0       -1.782009    5.023828   -0.617089
     65          1           0        7.747758   -2.969331   -1.587227
     66          1           0        6.786891   -4.547651   -1.565005
     67          1           0        6.961089   -3.553975   -0.029304
     68          1           0        6.834102   -0.916810   -0.138821
     69          1           0        5.076226    1.341302    0.508568
     70          1           0        6.579029    0.933145    1.578126
     71          1           0        4.925362    0.179412    1.923369
     72          1           0        3.684480    6.336192   -0.902875
     73          1           0        4.236412    4.732225   -0.767659
     74          1           0        0.202875    6.638544   -1.916025
     75          1           0        1.375584    7.474479   -0.677244
     76          1           0       -0.176351    7.101818   -0.107657
     77          1           0        3.544170    6.602898    1.279057
     78          1           0        5.168557    6.234949    1.104172
     79          1           0        4.245107    4.881883    1.859523
     80          1           0       -3.668191   -4.473440   -1.695313
     81          1           0       -7.909140   -1.703183   -1.647370
 ---------------------------------------------------------------------

 SCF Done:  E(RB3LYP) =  -1949.06034803     A.U. after   16 cycles

 Excitation energies and oscillator strengths:

 Excited State   1:      Singlet-A      1.9464 eV  636.99 nm  f=0.4171  <S**2>=0.000
     156 ->157         0.70908
     156 <-157        -0.11031
 This state for optimization and/or second-order correction.
 Total Energy, E(TD-HF/TD-DFT) =  -1948.98881927
 Copying the excited state density for this state as the 1-particle RhoCI density.

 The electronic state is 1-A.
 Alpha  occ. eigenvalues --  -19.18471 -19.18389 -19.15403 -19.14224 -19.12447
 Alpha  occ. eigenvalues --  -19.10032 -14.38264 -14.36729 -14.34756 -14.30400
 Alpha  occ. eigenvalues --  -10.33108 -10.32551 -10.28214 -10.27839 -10.24689
 Alpha  occ. eigenvalues --  -10.24257 -10.23634 -10.23367 -10.23025 -10.23014
 Alpha  occ. eigenvalues --  -10.22687 -10.21783 -10.21386 -10.21274 -10.21215
 Alpha  occ. eigenvalues --  -10.21144 -10.20883 -10.20802 -10.20446 -10.20331
 Alpha  occ. eigenvalues --  -10.20271 -10.20256 -10.20207 -10.20090 -10.19972
 Alpha  occ. eigenvalues --  -10.19887 -10.19681 -10.19390 -10.19347 -10.19009
 Alpha  occ. eigenvalues --  -10.18854 -10.18769 -10.18074  -1.13328  -1.10717
 Alpha  occ. eigenvalues --   -1.06375  -1.04246  -1.02036  -1.01905  -0.97242
 Alpha  occ. eigenvalues --   -0.96163  -0.95724  -0.91914  -0.81939  -0.81569
 Alpha  occ. eigenvalues --   -0.81279  -0.80439  -0.80042  -0.78585  -0.77214
 Alpha  occ. eigenvalues --   -0.76339  -0.75830  -0.74923  -0.74163  -0.72074
 Alpha  occ. eigenvalues --   -0.70703  -0.70037  -0.69229  -0.67784  -0.67396
 Alpha  occ. eigenvalues --   -0.65344  -0.65008  -0.64446  -0.63190  -0.61418
 Alpha  occ. eigenvalues --   -0.59337  -0.58784  -0.57849  -0.57444  -0.56433
 Alpha  occ. eigenvalues --   -0.55460  -0.54662  -0.54368  -0.54297  -0.53576
 Alpha  occ. eigenvalues --   -0.53048  -0.52062  -0.51059  -0.50977  -0.49968
 Alpha  occ. eigenvalues --   -0.49555  -0.49377  -0.48708  -0.48450  -0.48105
 Alpha  occ. eigenvalues --   -0.47034  -0.47012  -0.46426  -0.46123  -0.45567
 Alpha  occ. eigenvalues --   -0.45223  -0.44737  -0.44384  -0.44057  -0.43730
 Alpha  occ. eigenvalues --   -0.43518  -0.43400  -0.43161  -0.42898  -0.42535
 Alpha  occ. eigenvalues --   -0.42252  -0.42126  -0.41762  -0.41616  -0.41458
 Alpha  occ. eigenvalues --   -0.40811  -0.40141  -0.39870  -0.39818  -0.39454
 Alpha  occ. eigenvalues --   -0.39266  -0.39009  -0.38753  -0.38317  -0.38198
 Alpha  occ. eigenvalues --   -0.37900  -0.37695  -0.37428  -0.37211  -0.36860
 Alpha  occ. eigenvalues --   -0.36232  -0.35779  -0.35640  -0.34828  -0.34507
 Alpha  occ. eigenvalues --   -0.34298  -0.34064  -0.33869  -0.33689  -0.33286
 Alpha  occ. eigenvalues --   -0.32952  -0.32722  -0.32633  -0.30952  -0.29710
 Alpha  occ. eigenvalues --   -0.29176  -0.28957  -0.26785  -0.26170  -0.25782
 Alpha  occ. eigenvalues --   -0.25119  -0.24654  -0.24456  -0.24102  -0.21774
 Alpha  occ. eigenvalues --   -0.17416
 Alpha virt. eigenvalues --   -0.09699  -0.05748  -0.03917  -0.01645   0.00149
 Alpha virt. eigenvalues --    0.00853   0.02250   0.02813   0.03025   0.03724
 Alpha virt. eigenvalues --    0.03801   0.04099   0.04426   0.05357   0.05658

 Mulliken charges:
               1
     1  O   -0.197446
     2  O   -0.258295
     3  O   -0.172515
     4  O   -0.133838
     5  O   -0.213142
     6  O   -0.121419
     7  N   -0.140036
     8  N   -0.169906
     9  N   -0.070547
    10  N   -0.365678
    11  C   -0.139152
    12  C    0.053128
    13  C   -0.128855
    14  C    0.046496
    15  C   -0.060890
    16  C    0.121835
    17  C   -0.107477
    18  C   -0.121884
    19  C    0.073534
    20  C   -0.048718
    21  C    0.137447
    22  C    0.070466
    23  C   -0.008114
    24  C   -0.041366
    25  C   -0.134655
    26  C    0.065948
    27  C    0.057075
    28  C    0.072614
    29  C    0.001422
    30  C    0.082486
    31  C   -0.078209
    32  C    0.017240
    33  C   -0.094771
    34  C    0.085774
    35  C   -0.028848
    36  C   -0.218576
    37  C    0.170160
    38  C    0.013559
    39  C    0.140960
    40  C    0.144763
    41  C    0.162850
    42  C    0.007195
    43  C   -0.017778
    44  H    0.173991
    45  H    0.041251
    46  H   -0.011757
    47  H    0.011347
    48  H    0.040043
    49  H    0.049304
    50  H    0.051839
    51  H    0.045334
    52  H    0.229010
    53  H    0.015869
    54  H    0.042535
    55  H   -0.028253
    56  H    0.094654
    57  H   -0.002137
    58  H    0.043085
    59  H    0.082738
    60  H    0.004493
    61  H   -0.003468
    62  H    0.039279
    63  H    0.045055
    64  H   -0.070683
    65  H    0.024852
    66  H    0.054327
    67  H   -0.000171
    68  H   -0.020095
    69  H    0.069527
    70  H    0.003109
    71  H    0.038938
    72  H   -0.026046
    73  H   -0.003993
    74  H    0.047598
    75  H    0.019714
    76  H    0.031783
    77  H    0.002214
    78  H    0.005702
    79  H    0.056804
    80  H    0.208627
    81  H    0.140744
 Sum of Mulliken charges =  -0.00000

 Dipole moment (field-independent basis, Debye):
    X=             -1.6061    Y=              2.2544    Z=              0.7497  Tot=              2.8677
 Quadrupole moment (field-independent basis, Debye-Ang):
   XX=           -256.0400   YY=           -234.1331   ZZ=           -257.0972
   XY=             18.4773   XZ=             14.1137   YZ=            -19.4306

 Normal termination of Gaussian 16 at Thu Jul  4 22:16:33 2019.
