 Gaussian 16, Revision A.03,
 Gaussian 16:  ES64L-G16RevA.03 25-Dec-2016

 --------------------------
 # td=(NStates=1) B3LYP/SVP
 --------------------------

 --
 TD
 --
 Symbolic Z-matrix:
 Charge =  0 Multiplicity = 1

                         Standard orientation:
 ---------------------------------------------------------------------
 Center     Atomic      Atomic             Coordinates (Angstroms)
 Number     Number       Type             X           Y           Z
 ---------------------------------------------------------------------
      1          8           0        4.563635   -4.757861   -1.796474
      2          8           0       -2.879302   -4.771556   -1.367438
      3          8           0       -6.983064   -1.573499   -1.842870
      4          8           0       -3.808173   -3.102998   -0.146920
      5          8           0       -7.748825   -0.703880    0.136908
      6          8           0        3.073627    2.618906    0.177989
      7          7           0        0.339370   -0.644056    0.554173
      8          7           0       -1.517770    1.750532    0.395151
      9          7           0        3.438524   -3.239427   -0.428141
     10          7           0        0.710217    2.965800   -0.012772
     11          6           0       -0.601308   -2.483898    1.401279
     12          6           0       -0.868565   -1.187516    0.877768
     13          6           0        0.785951   -2.644883    1.427650
     14          6           0        1.406279   -1.563839    0.785752
     15          6           0       -3.821846    1.405841    0.337589
     16          6           0       -2.449338    0.709165    0.473646
     17          6           0       -2.176534   -0.613437    0.851719
     18          6           0       -3.528836    2.803486    0.161713
     19          6           0       -1.635434   -3.494146    1.766262
     20          6           0        5.548721   -2.638682   -1.376472
     21          6           0        3.652612   -1.879455   -0.140441
     22          6           0       -2.116275    2.978527    0.084024
     23          6           0        5.057947   -1.527339   -0.443899
     24          6           0       -5.092192    0.689634    0.484222
     25          6           0        2.788821   -1.079602    0.443645
     26          6           0        1.356813   -3.941529    1.998525
     27          6           0        4.491405   -3.687040   -1.296208
     28          6           0       -2.133096   -4.558196    0.792232
     29          6           0       -5.371983   -0.101509   -0.725702
     30          6           0       -4.510349    3.879216   -0.326491
     31          6           0       -1.336049    4.064482   -0.256275
     32          6           0        6.976715   -3.099378   -0.995144
     33          6           0        5.931538   -0.653050    0.077888
     34          6           0       -0.000362    4.019726   -0.289109
     35          6           0        0.935387    5.204932   -0.473395
     36          6           0        2.168931    4.857560   -0.354738
     37          6           0       -3.026908   -4.043861   -0.301491
     38          6           0        5.615750    0.580514    1.015161
     39          6           0       -6.825587   -0.740252   -0.796604
     40          6           0        3.465232    5.533243   -0.418245
     41          6           0        2.092627    3.380291   -0.033936
     42          6           0        0.354663    6.585906   -0.727540
     43          6           0        4.084290    5.592094    0.894879
     44          1           0        0.595177    0.334820    0.192618
     45          1           0       -2.925282   -1.320400    0.877967
     46          1           0       -2.545024   -3.080536    2.358530
     47          1           0       -1.319486   -3.951343    2.606211
     48          1           0        5.744350   -2.133276   -2.466172
     49          1           0       -5.113622    0.081199    1.399531
     50          1           0       -5.720691    1.355950    0.661279
     51          1           0        2.967650   -0.064229    0.396752
     52          1           0       -0.526514    1.938566    0.385708
     53          1           0        1.573031   -4.560238    1.065707
     54          1           0        2.184712   -3.942053    2.670393
     55          1           0        0.484250   -4.337288    2.685513
     56          1           0        2.587054   -3.712219   -0.473748
     57          1           0       -1.354333   -5.124387    0.213978
     58          1           0       -2.723733   -5.432847    1.141159
     59          1           0       -4.878698   -1.069111   -0.797945
     60          1           0       -5.069379    0.293041   -1.585307
     61          1           0       -4.686545    4.647785    0.430159
     62          1           0       -5.592128    3.452444   -0.581474
     63          1           0       -4.235786    4.332749   -1.366909
     64          1           0       -1.792294    5.209789   -0.480885
     65          1           0        7.349602   -2.049295   -1.096503
     66          1           0        7.318616   -3.894928   -1.768291
     67          1           0        7.155339   -3.590076    0.003071
     68          1           0        6.893044   -0.810104   -0.268395
     69          1           0        4.976488    1.300906    0.383414
     70          1           0        6.499486    1.131137    1.489628
     71          1           0        4.997033    0.157292    1.841274
     72          1           0        3.303623    6.564577   -0.791058
     73          1           0        4.035166    4.873006   -1.186729
     74          1           0        0.079229    6.478716   -1.826114
     75          1           0        1.030618    7.288089   -0.825205
     76          1           0       -0.427126    6.984979    0.041252
     77          1           0        3.527915    6.369841    1.515206
     78          1           0        5.201637    6.051800    0.957625
     79          1           0        4.014323    4.944827    1.540014
     80          1           0       -3.556344   -4.391438   -1.949968
     81          1           0       -7.901047   -1.912619   -1.750304
 ---------------------------------------------------------------------

 SCF Done:  E(RB3LYP) =  -1949.06868539     A.U. after   16 cycles

 Excitation energies and oscillator strengths:

 Excited State   1:      Singlet-A      1.9851 eV  624.59 nm  f=0.4096  <S**2>=0.000
     156 ->157         0.70843
     156 <-157        -0.11875
 This state for optimization and/or second-order correction.
 Total Energy, E(TD-HF/TD-DFT) =  -1948.99573575
 Copying the excited state density for this state as the 1-particle RhoCI density.

 The electronic state is 1-A.
 Alpha  occ. eigenvalues --  -19.21591 -19.19384 -19.14254 -19.12119 -19.11450
 Alpha  occ. eigenvalues --  -19.10869 -14.37738 -14.36394 -14.35103 -14.29196
 Alpha  occ. eigenvalues --  -10.33545 -10.33032 -10.29010 -10.27245 -10.24169
 Alpha  occ. eigenvalues --  -10.23849 -10.23572 -10.23534 -10.22755 -10.21901
 Alpha  occ. eigenvalues --  -10.21842 -10.21838 -10.21126 -10.21014 -10.20778
 Alpha  occ. eigenvalues --  -10.20736 -10.20578 -10.20336 -10.20178 -10.19697
 Alpha  occ. eigenvalues --  -10.19563 -10.19518 -10.19467 -10.19384 -10.19321
 Alpha  occ. eigenvalues --  -10.19318 -10.19281 -10.19054 -10.18954 -10.18440
 Alpha  occ. eigenvalues --  -10.18137 -10.17998 -10.16909  -1.14023  -1.09099
 Alpha  occ. eigenvalues --   -1.05030  -1.02299  -0.99790  -0.97244  -0.96340
 Alpha  occ. eigenvalues --   -0.95839  -0.94926  -0.92392  -0.83248  -0.82464
 Alpha  occ. eigenvalues --   -0.82164  -0.81806  -0.80611  -0.78695  -0.78215
 Alpha  occ. eigenvalues --   -0.77400  -0.76549  -0.76091  -0.73802  -0.72594
 Alpha  occ. eigenvalues --   -0.71205  -0.69956  -0.69658  -0.69111  -0.68312
 Alpha  occ. eigenvalues --   -0.67196  -0.65389  -0.64876  -0.63374  -0.61938
 Alpha  occ. eigenvalues --   -0.61159  -0.60572  -0.58915  -0.57404  -0.56775
 Alpha  occ. eigenvalues --   -0.56154  -0.55666  -0.54977  -0.54395  -0.52850
 Alpha  occ. eigenvalues --   -0.52651  -0.51776  -0.51224  -0.50905  -0.50052
 Alpha  occ. eigenvalues --   -0.49872  -0.49707  -0.48989  -0.48251  -0.47871
 Alpha  occ. eigenvalues --   -0.47006  -0.46350  -0.45934  -0.45737  -0.45388
 Alpha  occ. eigenvalues --   -0.45170  -0.44770  -0.44605  -0.44495  -0.44007
 Alpha  occ. eigenvalues --   -0.43505  -0.43311  -0.42889  -0.42717  -0.42449
 Alpha  occ. eigenvalues --   -0.42148  -0.42072  -0.41772  -0.41648  -0.41401
 Alpha  occ. eigenvalues --   -0.41004  -0.40775  -0.40332  -0.40218  -0.39703
 Alpha  occ. eigenvalues --   -0.39217  -0.38977  -0.38681  -0.38637  -0.38020
 Alpha  occ. eigenvalues --   -0.37751  -0.37546  -0.37039  -0.36803  -0.36338
 Alpha  occ. eigenvalues --   -0.36126  -0.35895  -0.35786  -0.35416  -0.34779
 Alpha  occ. eigenvalues --   -0.34472  -0.34367  -0.34289  -0.33791  -0.33351
 Alpha  occ. eigenvalues --   -0.31959  -0.31533  -0.30652  -0.29761  -0.29627
 Alpha  occ. eigenvalues --   -0.27768  -0.27072  -0.26938  -0.26081  -0.25483
 Alpha  occ. eigenvalues --   -0.25217  -0.25102  -0.24433  -0.24056  -0.21990
 Alpha  occ. eigenvalues --   -0.18083
 Alpha virt. eigenvalues --   -0.10351  -0.04979  -0.03259  -0.01473  -0.00926
 Alpha virt. eigenvalues --   -0.00589   0.01833   0.02949   0.03613   0.03974
 Alpha virt. eigenvalues --    0.04741   0.05046   0.05423   0.05932   0.06577

 Mulliken charges:
               1
     1  O   -0.168855
     2  O   -0.108461
     3  O   -0.174489
     4  O   -0.250302
     5  O   -0.327505
     6  O   -0.242998
     7  N   -0.133298
     8  N   -0.102895
     9  N   -0.139570
    10  N   -0.305152
    11  C   -0.102696
    12  C    0.065510
    13  C   -0.152638
    14  C    0.051694
    15  C   -0.184605
    16  C    0.120621
    17  C   -0.010954
    18  C   -0.093556
    19  C    0.160614
    20  C   -0.130296
    21  C    0.127241
    22  C    0.091245
    23  C   -0.014816
    24  C    0.339584
    25  C   -0.063440
    26  C    0.071418
    27  C    0.150452
    28  C    0.028261
    29  C    0.037292
    30  C    0.014628
    31  C   -0.158890
    32  C   -0.004704
    33  C   -0.100280
    34  C    0.065278
    35  C   -0.132224
    36  C   -0.176059
    37  C    0.094847
    38  C    0.008032
    39  C    0.162151
    40  C    0.136016
    41  C    0.167307
    42  C    0.152010
    43  C    0.087457
    44  H    0.172505
    45  H   -0.019467
    46  H    0.016175
    47  H   -0.055671
    48  H    0.065651
    49  H    0.017597
    50  H   -0.089905
    51  H   -0.031835
    52  H    0.106953
    53  H    0.025696
    54  H    0.022484
    55  H    0.017439
    56  H    0.118150
    57  H    0.021766
    58  H    0.040223
    59  H    0.039440
    60  H   -0.014952
    61  H    0.028483
    62  H    0.026411
    63  H    0.046365
    64  H    0.024986
    65  H    0.041136
    66  H    0.041258
    67  H    0.030704
    68  H   -0.044186
    69  H    0.095553
    70  H    0.024131
    71  H    0.036125
    72  H   -0.006143
    73  H    0.031468
    74  H    0.025742
    75  H   -0.060496
    76  H    0.054313
    77  H   -0.019788
    78  H    0.016450
    79  H   -0.063652
    80  H    0.176662
    81  H    0.189256
 Sum of Mulliken charges =  -0.00000

 Dipole moment (field-independent basis, Debye):
    X=             -2.1353    Y=              0.2400    Z=             -1.4143  Tot=              2.5724
 Quadrupole moment (field-independent basis, Debye-Ang):
   XX=           -265.5049   YY=           -232.5365   ZZ=           -250.8828
   XY=             18.1028   XZ=             18.0259   YZ=             -9.5741

 Normal termination of Gaussian 16 at Mon Jul  1 04:16:26 2019.
