 Gaussian 16, Revision A.03,
 Gaussian 16:  ES64L-G16RevA.03 25-Dec-2016

 --------------------------
 # td=(NStates=1) B3LYP/SVP
 --------------------------

 --
 TD
 --
 Symbolic Z-matrix:
 Charge =  0 Multiplicity = 1

                         Standard orientation:
 ---------------------------------------------------------------------
 Center     Atomic      Atomic             Coordinates (Angstroms)
 Number     Number       Type             X           Y           Z
 ---------------------------------------------------------------------
      1          8           0        4.411527   -4.840339   -1.911634
      2          8           0       -3.114068   -4.980056   -1.255739
      3          8           0       -7.016929   -1.414755   -1.746266
      4          8           0       -3.814871   -3.198531   -0.165499
      5          8           0       -7.479960   -0.558223    0.283917
      6          8           0        3.036685    2.558176    0.350264
      7          7           0        0.254122   -0.584244    0.502324
      8          7           0       -1.503613    1.763492    0.373806
      9          7           0        3.325772   -3.216000   -0.692125
     10          7           0        0.877614    2.950076    0.117137
     11          6           0       -0.735854   -2.382388    1.344441
     12          6           0       -0.893885   -1.079267    0.907476
     13          6           0        0.628511   -2.718196    1.219775
     14          6           0        1.297282   -1.545706    0.788624
     15          6           0       -3.712226    1.520839    0.313396
     16          6           0       -2.464688    0.839341    0.540074
     17          6           0       -2.222361   -0.409651    0.875902
     18          6           0       -3.509520    2.811865   -0.006946
     19          6           0       -1.629855   -3.384266    1.832392
     20          6           0        5.516272   -2.728447   -1.366338
     21          6           0        3.615101   -1.898800   -0.248042
     22          6           0       -2.047955    3.039887   -0.028898
     23          6           0        5.055287   -1.702880   -0.390043
     24          6           0       -5.057082    0.881878    0.459673
     25          6           0        2.648728   -1.199902    0.553208
     26          6           0        1.398936   -3.982943    1.742210
     27          6           0        4.413826   -3.797669   -1.245244
     28          6           0       -2.077330   -4.525416    0.828800
     29          6           0       -5.330781   -0.047809   -0.780190
     30          6           0       -4.565551    3.783006   -0.328599
     31          6           0       -1.271478    4.201708   -0.354940
     32          6           0        6.879842   -3.191227   -1.124568
     33          6           0        5.835541   -0.728814    0.252297
     34          6           0        0.093242    4.022470   -0.276196
     35          6           0        1.062132    5.193953   -0.569303
     36          6           0        2.225416    4.787000   -0.294424
     37          6           0       -3.025097   -4.150301   -0.198816
     38          6           0        5.465187    0.267028    1.367035
     39          6           0       -6.735196   -0.683418   -0.666128
     40          6           0        3.595334    5.465035   -0.480867
     41          6           0        2.137583    3.287629    0.052478
     42          6           0        0.621600    6.474951   -1.004667
     43          6           0        4.240456    5.866333    0.972589
     44          1           0        0.619812    0.380350    0.259076
     45          1           0       -3.019889   -1.233879    1.084305
     46          1           0       -2.308482   -2.780825    2.215496
     47          1           0       -1.262962   -4.100064    2.753995
     48          1           0        5.273450   -2.226018   -2.457864
     49          1           0       -5.162952    0.310507    1.425090
     50          1           0       -5.678728    1.746546    0.657131
     51          1           0        2.801718   -0.141747    0.971817
     52          1           0       -0.555493    1.919827    0.589212
     53          1           0        1.222627   -4.954470    1.048829
     54          1           0        2.477161   -3.706348    1.969428
     55          1           0        0.926853   -4.461256    2.686957
     56          1           0        2.431721   -3.638428   -0.760728
     57          1           0       -1.256797   -4.780318    0.249078
     58          1           0       -2.593907   -5.310998    1.492910
     59          1           0       -4.527432   -0.774992   -0.828418
     60          1           0       -5.339799    0.507767   -1.813106
     61          1           0       -4.651834    4.869583    0.297550
     62          1           0       -5.535091    3.419201   -0.500027
     63          1           0       -4.411338    4.072399   -1.355023
     64          1           0       -2.037935    5.097253   -0.562465
     65          1           0        7.483563   -2.218095   -1.281172
     66          1           0        7.174881   -4.166526   -1.762816
     67          1           0        6.853845   -3.432206   -0.128059
     68          1           0        6.872579   -0.404016    0.038383
     69          1           0        4.752882    1.243901    0.951310
     70          1           0        6.396066    0.791510    1.882496
     71          1           0        4.875231   -0.157979    2.151367
     72          1           0        3.716019    6.325720   -1.043792
     73          1           0        4.122054    4.747802   -1.103476
     74          1           0       -0.324630    6.457103   -1.851816
     75          1           0        1.452400    7.068124   -1.722068
     76          1           0        0.318131    7.262015   -0.325387
     77          1           0        3.474993    6.593023    1.135965
     78          1           0        5.333482    6.351555    0.990459
     79          1           0        4.207318    5.127577    1.664964
     80          1           0       -3.797670   -4.663829   -1.920634
     81          1           0       -7.886694   -1.778149   -1.764247
 ---------------------------------------------------------------------

 SCF Done:  E(RB3LYP) =  -1949.06207304     A.U. after   16 cycles

 Excitation energies and oscillator strengths:

 Excited State   1:      Singlet-A      1.9199 eV  645.77 nm  f=0.3553  <S**2>=0.000
     156 ->157         0.70579
 This state for optimization and/or second-order correction.
 Total Energy, E(TD-HF/TD-DFT) =  -1948.99151624
 Copying the excited state density for this state as the 1-particle RhoCI density.

 The electronic state is 1-A.
 Alpha  occ. eigenvalues --  -19.19201 -19.18441 -19.13126 -19.12565 -19.10001
 Alpha  occ. eigenvalues --  -19.09580 -14.37797 -14.37098 -14.36303 -14.29283
 Alpha  occ. eigenvalues --  -10.33023 -10.32327 -10.28254 -10.25794 -10.25631
 Alpha  occ. eigenvalues --  -10.25319 -10.24278 -10.23450 -10.23358 -10.22776
 Alpha  occ. eigenvalues --  -10.22190 -10.21912 -10.21881 -10.21656 -10.21213
 Alpha  occ. eigenvalues --  -10.21086 -10.20967 -10.20947 -10.20790 -10.20769
 Alpha  occ. eigenvalues --  -10.20696 -10.20679 -10.20534 -10.20347 -10.19929
 Alpha  occ. eigenvalues --  -10.19537 -10.19328 -10.18754 -10.18557 -10.18398
 Alpha  occ. eigenvalues --  -10.18346 -10.17796 -10.17707  -1.10214  -1.10179
 Alpha  occ. eigenvalues --   -1.02697  -1.02337  -1.00829  -0.99724  -0.98988
 Alpha  occ. eigenvalues --   -0.97895  -0.94917  -0.92467  -0.83510  -0.83231
 Alpha  occ. eigenvalues --   -0.82205  -0.81928  -0.80336  -0.79047  -0.78274
 Alpha  occ. eigenvalues --   -0.77255  -0.76357  -0.74784  -0.73718  -0.72619
 Alpha  occ. eigenvalues --   -0.71937  -0.70290  -0.69564  -0.68860  -0.68179
 Alpha  occ. eigenvalues --   -0.67654  -0.65656  -0.63787  -0.62563  -0.62274
 Alpha  occ. eigenvalues --   -0.61603  -0.61068  -0.59407  -0.57240  -0.56753
 Alpha  occ. eigenvalues --   -0.56481  -0.55840  -0.55457  -0.54029  -0.53509
 Alpha  occ. eigenvalues --   -0.52957  -0.51951  -0.51429  -0.50532  -0.50229
 Alpha  occ. eigenvalues --   -0.49573  -0.49163  -0.48460  -0.47893  -0.47826
 Alpha  occ. eigenvalues --   -0.47817  -0.46669  -0.45995  -0.45666  -0.45338
 Alpha  occ. eigenvalues --   -0.45148  -0.45027  -0.44546  -0.44084  -0.43606
 Alpha  occ. eigenvalues --   -0.43307  -0.43114  -0.42578  -0.42488  -0.42117
 Alpha  occ. eigenvalues --   -0.41386  -0.41243  -0.41123  -0.40789  -0.40500
 Alpha  occ. eigenvalues --   -0.40355  -0.40282  -0.39747  -0.39651  -0.39349
 Alpha  occ. eigenvalues --   -0.39030  -0.38756  -0.38659  -0.38459  -0.38023
 Alpha  occ. eigenvalues --   -0.37362  -0.37265  -0.36792  -0.36401  -0.36322
 Alpha  occ. eigenvalues --   -0.36088  -0.35890  -0.35146  -0.34628  -0.34213
 Alpha  occ. eigenvalues --   -0.34055  -0.33904  -0.33638  -0.32954  -0.32848
 Alpha  occ. eigenvalues --   -0.32715  -0.32640  -0.32476  -0.29626  -0.28502
 Alpha  occ. eigenvalues --   -0.28275  -0.27153  -0.26269  -0.26204  -0.25782
 Alpha  occ. eigenvalues --   -0.25332  -0.24391  -0.24339  -0.23889  -0.21964
 Alpha  occ. eigenvalues --   -0.18578
 Alpha virt. eigenvalues --   -0.10764  -0.06007  -0.04049  -0.01966  -0.01066
 Alpha virt. eigenvalues --    0.00419   0.01775   0.02562   0.02914   0.03575
 Alpha virt. eigenvalues --    0.03942   0.04468   0.04992   0.05619   0.06274

 Mulliken charges:
               1
     1  O   -0.246471
     2  O   -0.200389
     3  O   -0.159915
     4  O   -0.259374
     5  O   -0.227945
     6  O   -0.183059
     7  N   -0.082257
     8  N   -0.095962
     9  N   -0.073260
    10  N   -0.257618
    11  C   -0.115329
    12  C    0.021822
    13  C   -0.112439
    14  C    0.010718
    15  C   -0.099373
    16  C    0.204667
    17  C   -0.150704
    18  C   -0.086629
    19  C    0.089025
    20  C   -0.098053
    21  C    0.114651
    22  C    0.008666
    23  C   -0.009330
    24  C    0.110479
    25  C   -0.137272
    26  C   -0.000660
    27  C    0.097075
    28  C    0.104000
    29  C   -0.032970
    30  C    0.070783
    31  C   -0.144368
    32  C    0.083193
    33  C   -0.130039
    34  C    0.162258
    35  C   -0.006404
    36  C   -0.207102
    37  C    0.095375
    38  C   -0.082570
    39  C    0.150630
    40  C    0.107666
    41  C    0.094933
    42  C   -0.043393
    43  C   -0.007930
    44  H    0.163998
    45  H    0.052022
    46  H   -0.035637
    47  H    0.022195
    48  H    0.071890
    49  H    0.026990
    50  H    0.005149
    51  H    0.051463
    52  H    0.109966
    53  H    0.032728
    54  H    0.062162
    55  H    0.020497
    56  H    0.122741
    57  H    0.010907
    58  H    0.072095
    59  H    0.057490
    60  H    0.042912
    61  H    0.053710
    62  H   -0.005623
    63  H    0.006916
    64  H    0.035252
    65  H    0.033746
    66  H    0.056308
    67  H   -0.013613
    68  H    0.015660
    69  H    0.115278
    70  H    0.023035
    71  H    0.021576
    72  H   -0.029784
    73  H    0.006618
    74  H    0.025441
    75  H    0.031229
    76  H    0.034629
    77  H    0.008134
    78  H    0.030980
    79  H    0.008251
    80  H    0.209413
    81  H    0.168151
 Sum of Mulliken charges =  -0.00000

 Dipole moment (field-independent basis, Debye):
    X=             -4.7439    Y=              1.2974    Z=             -0.6406  Tot=              4.9597
 Quadrupole moment (field-independent basis, Debye-Ang):
   XX=           -253.5305   YY=           -242.9130   ZZ=           -253.7903
   XY=             15.5367   XZ=             21.9658   YZ=            -14.2096

 Normal termination of Gaussian 16 at Fri Jun 28 22:46:45 2019.
