 Gaussian 16, Revision A.03,
 Gaussian 16:  ES64L-G16RevA.03 25-Dec-2016

 --------------------------
 # td=(NStates=1) B3LYP/SVP
 --------------------------

 --
 TD
 --
 Symbolic Z-matrix:
 Charge =  0 Multiplicity = 1

                         Standard orientation:
 ---------------------------------------------------------------------
 Center     Atomic      Atomic             Coordinates (Angstroms)
 Number     Number       Type             X           Y           Z
 ---------------------------------------------------------------------
      1          8           0        4.581843   -4.643853   -1.818136
      2          8           0       -2.721388   -5.021117   -1.275152
      3          8           0       -7.137951   -1.686681   -1.855965
      4          8           0       -3.702774   -3.345931   -0.101898
      5          8           0       -7.620800   -0.884898    0.186687
      6          8           0        2.913041    2.591436    0.127677
      7          7           0        0.352252   -0.528718    0.562739
      8          7           0       -1.576945    1.754509    0.402188
      9          7           0        3.449459   -2.983233   -0.759867
     10          7           0        0.596393    3.003270    0.093131
     11          6           0       -0.540559   -2.400931    1.376141
     12          6           0       -0.851443   -1.157138    0.952718
     13          6           0        0.876454   -2.555422    1.289064
     14          6           0        1.361980   -1.356284    0.802154
     15          6           0       -3.838986    1.294585    0.210615
     16          6           0       -2.533778    0.747629    0.569890
     17          6           0       -2.098348   -0.565814    0.835171
     18          6           0       -3.661220    2.576726   -0.021861
     19          6           0       -1.417253   -3.476526    1.925836
     20          6           0        5.660584   -2.580504   -1.252773
     21          6           0        3.685153   -1.743494   -0.154004
     22          6           0       -2.276154    2.879534    0.044192
     23          6           0        5.122688   -1.437128   -0.350602
     24          6           0       -5.198882    0.504779    0.406728
     25          6           0        2.722084   -0.930692    0.396864
     26          6           0        1.736265   -3.714940    1.850461
     27          6           0        4.561673   -3.581650   -1.362605
     28          6           0       -1.734961   -4.548404    0.854044
     29          6           0       -5.398360   -0.417987   -0.699745
     30          6           0       -4.714206    3.629001   -0.313431
     31          6           0       -1.518235    4.132408   -0.150991
     32          6           0        7.018161   -3.206775   -1.095981
     33          6           0        5.845029   -0.447881    0.226760
     34          6           0       -0.085423    4.126693   -0.165480
     35          6           0        0.777254    5.336625   -0.481840
     36          6           0        2.059334    4.902629   -0.415040
     37          6           0       -2.763088   -4.130619   -0.256057
     38          6           0        5.517914    0.566407    1.219407
     39          6           0       -6.832601   -0.971644   -0.725701
     40          6           0        3.370602    5.538571   -0.630798
     41          6           0        1.969199    3.322476   -0.032519
     42          6           0        0.201524    6.614315   -0.778895
     43          6           0        4.053767    5.763063    0.793710
     44          1           0        0.509352    0.528914    0.278943
     45          1           0       -2.848674   -1.332183    1.107113
     46          1           0       -2.369911   -2.932818    2.398699
     47          1           0       -0.975528   -3.835866    2.920288
     48          1           0        5.671789   -2.163342   -2.325993
     49          1           0       -5.191318    0.033820    1.422993
     50          1           0       -5.965384    1.262539    0.412705
     51          1           0        2.938452   -0.011801    0.678898
     52          1           0       -0.667034    1.866000    0.566908
     53          1           0        2.041863   -4.401684    0.930312
     54          1           0        2.617882   -3.232908    2.603975
     55          1           0        1.340239   -4.276085    2.542145
     56          1           0        2.328447   -3.262278   -1.095790
     57          1           0       -0.725077   -4.958530    0.389622
     58          1           0       -2.134144   -5.471631    1.364014
     59          1           0       -4.836297   -1.365211   -0.512703
     60          1           0       -5.107372    0.101461   -1.699187
     61          1           0       -4.513136    4.465592    0.330457
     62          1           0       -5.749394    3.244661   -0.092234
     63          1           0       -4.521998    3.877142   -1.294063
     64          1           0       -1.954341    5.031531   -0.480182
     65          1           0        7.782161   -2.458633   -1.140282
     66          1           0        7.272872   -4.055853   -1.659143
     67          1           0        7.081359   -3.436562   -0.097506
     68          1           0        7.074591   -0.383323    0.052642
     69          1           0        5.163342    1.440731    0.716892
     70          1           0        6.324405    0.863307    1.880958
     71          1           0        4.637757    0.230817    1.881745
     72          1           0        3.105661    6.591059   -1.243228
     73          1           0        4.019899    4.828624   -1.225419
     74          1           0       -0.923237    6.639864   -1.328666
     75          1           0        0.973241    7.337805   -1.269175
     76          1           0       -0.121248    7.256625    0.145612
     77          1           0        3.312757    6.555967    1.367473
     78          1           0        5.117367    6.111644    0.471649
     79          1           0        4.053912    5.001874    1.365089
     80          1           0       -3.283690   -4.867361   -1.868780
     81          1           0       -8.180452   -1.886005   -1.882418
 ---------------------------------------------------------------------

 SCF Done:  E(RB3LYP) =  -1949.08954062     A.U. after   16 cycles

 Excitation energies and oscillator strengths:

 Excited State   1:      Singlet-A      2.0751 eV  597.50 nm  f=0.4124  <S**2>=0.000
     156 ->157         0.70428
     156 <-157        -0.10479
 This state for optimization and/or second-order correction.
 Total Energy, E(TD-HF/TD-DFT) =  -1949.01328357
 Copying the excited state density for this state as the 1-particle RhoCI density.

 The electronic state is 1-A.
 Alpha  occ. eigenvalues --  -19.19200 -19.17808 -19.15124 -19.12287 -19.11369
 Alpha  occ. eigenvalues --  -19.10853 -14.37358 -14.37053 -14.35377 -14.28742
 Alpha  occ. eigenvalues --  -10.35044 -10.31604 -10.28654 -10.26865 -10.24243
 Alpha  occ. eigenvalues --  -10.24123 -10.23709 -10.23467 -10.22611 -10.22556
 Alpha  occ. eigenvalues --  -10.22262 -10.22112 -10.21317 -10.21123 -10.21066
 Alpha  occ. eigenvalues --  -10.20710 -10.20708 -10.20695 -10.20525 -10.20343
 Alpha  occ. eigenvalues --  -10.20203 -10.20170 -10.19338 -10.19296 -10.19241
 Alpha  occ. eigenvalues --  -10.19170 -10.18827 -10.18760 -10.18752 -10.18297
 Alpha  occ. eigenvalues --  -10.17992 -10.17605 -10.17068  -1.13025  -1.07772
 Alpha  occ. eigenvalues --   -1.06584  -1.02763  -1.02062  -0.99070  -0.98861
 Alpha  occ. eigenvalues --   -0.98052  -0.94328  -0.90723  -0.83129  -0.82435
 Alpha  occ. eigenvalues --   -0.80893  -0.80577  -0.79530  -0.78858  -0.77914
 Alpha  occ. eigenvalues --   -0.77182  -0.76309  -0.75099  -0.74030  -0.71866
 Alpha  occ. eigenvalues --   -0.71548  -0.70259  -0.69587  -0.68211  -0.67543
 Alpha  occ. eigenvalues --   -0.66982  -0.65495  -0.63861  -0.63132  -0.61917
 Alpha  occ. eigenvalues --   -0.61307  -0.59535  -0.57863  -0.56970  -0.56836
 Alpha  occ. eigenvalues --   -0.55801  -0.55172  -0.54534  -0.53184  -0.52063
 Alpha  occ. eigenvalues --   -0.51546  -0.51442  -0.50860  -0.50076  -0.49640
 Alpha  occ. eigenvalues --   -0.49377  -0.48794  -0.48628  -0.47609  -0.47307
 Alpha  occ. eigenvalues --   -0.46797  -0.46728  -0.45943  -0.45726  -0.45432
 Alpha  occ. eigenvalues --   -0.45135  -0.44523  -0.44037  -0.43893  -0.43705
 Alpha  occ. eigenvalues --   -0.43306  -0.42977  -0.42677  -0.42373  -0.42240
 Alpha  occ. eigenvalues --   -0.41983  -0.41676  -0.41477  -0.41312  -0.41241
 Alpha  occ. eigenvalues --   -0.40818  -0.40738  -0.40225  -0.39542  -0.39445
 Alpha  occ. eigenvalues --   -0.39371  -0.39182  -0.38675  -0.38564  -0.38382
 Alpha  occ. eigenvalues --   -0.38047  -0.37885  -0.37474  -0.37129  -0.36770
 Alpha  occ. eigenvalues --   -0.36270  -0.36164  -0.35450  -0.35026  -0.34802
 Alpha  occ. eigenvalues --   -0.34328  -0.34066  -0.33935  -0.33352  -0.33025
 Alpha  occ. eigenvalues --   -0.32719  -0.32003  -0.31677  -0.30262  -0.29918
 Alpha  occ. eigenvalues --   -0.28292  -0.27797  -0.27090  -0.26569  -0.25777
 Alpha  occ. eigenvalues --   -0.25397  -0.24235  -0.23671  -0.22810  -0.21264
 Alpha  occ. eigenvalues --   -0.17844
 Alpha virt. eigenvalues --   -0.09583  -0.04884  -0.03672  -0.03214   0.00064
 Alpha virt. eigenvalues --    0.00716   0.01924   0.02340   0.03113   0.03550
 Alpha virt. eigenvalues --    0.04307   0.04870   0.05332   0.05461   0.06088

 Mulliken charges:
               1
     1  O   -0.133465
     2  O   -0.084441
     3  O   -0.256143
     4  O   -0.228102
     5  O   -0.226423
     6  O   -0.192105
     7  N   -0.117109
     8  N   -0.013524
     9  N   -0.229189
    10  N   -0.328203
    11  C   -0.076454
    12  C    0.060197
    13  C   -0.208879
    14  C    0.043219
    15  C   -0.111185
    16  C    0.078427
    17  C   -0.057835
    18  C   -0.157650
    19  C    0.034921
    20  C   -0.086465
    21  C    0.129203
    22  C    0.061427
    23  C    0.043724
    24  C    0.156715
    25  C   -0.022855
    26  C    0.114082
    27  C    0.088382
    28  C   -0.012857
    29  C   -0.036307
    30  C    0.171027
    31  C   -0.068317
    32  C    0.148264
    33  C   -0.229399
    34  C    0.044628
    35  C    0.000328
    36  C   -0.203222
    37  C    0.165311
    38  C    0.075648
    39  C    0.132791
    40  C   -0.002700
    41  C    0.166440
    42  C   -0.034681
    43  C    0.037536
    44  H    0.183267
    45  H   -0.005118
    46  H    0.029337
    47  H    0.030618
    48  H    0.051934
    49  H    0.031798
    50  H   -0.012888
    51  H   -0.071030
    52  H    0.059621
    53  H    0.039749
    54  H    0.039796
    55  H   -0.049936
    56  H    0.196920
    57  H    0.051972
    58  H    0.058572
    59  H    0.074771
    60  H    0.050714
    61  H    0.017137
    62  H    0.022256
    63  H    0.009438
    64  H   -0.069656
    65  H   -0.008909
    66  H    0.022503
    67  H   -0.025476
    68  H    0.023644
    69  H    0.049508
    70  H    0.009221
    71  H    0.031101
    72  H    0.026437
    73  H    0.029672
    74  H    0.044313
    75  H    0.027687
    76  H    0.034541
    77  H    0.023766
    78  H    0.034631
    79  H   -0.021308
    80  H    0.102318
    81  H    0.222321
 Sum of Mulliken charges =  -0.00000

 Dipole moment (field-independent basis, Debye):
    X=             -1.9379    Y=             -0.1762    Z=             -0.5703  Tot=              2.0277
 Quadrupole moment (field-independent basis, Debye-Ang):
   XX=           -249.1086   YY=           -243.1831   ZZ=           -250.9832
   XY=             10.6490   XZ=             17.9275   YZ=             -7.4419

 Normal termination of Gaussian 16 at Wed Jul  3 20:12:58 2019.
