 Gaussian 16, Revision A.03,
 Gaussian 16:  ES64L-G16RevA.03 25-Dec-2016

 --------------------------
 # td=(NStates=1) B3LYP/SVP
 --------------------------

 --
 TD
 --
 Symbolic Z-matrix:
 Charge =  0 Multiplicity = 1

                         Standard orientation:
 ---------------------------------------------------------------------
 Center     Atomic      Atomic             Coordinates (Angstroms)
 Number     Number       Type             X           Y           Z
 ---------------------------------------------------------------------
      1          8           0        4.488967   -4.751741   -1.680530
      2          8           0       -2.704814   -4.839177   -1.291166
      3          8           0       -7.163795   -1.442385   -1.911179
      4          8           0       -3.641557   -3.192610   -0.083501
      5          8           0       -7.602218   -0.758042    0.191613
      6          8           0        3.030145    2.637595    0.374543
      7          7           0        0.292988   -0.635407    0.636339
      8          7           0       -1.576766    1.793925    0.323342
      9          7           0        3.349910   -3.129395   -0.530019
     10          7           0        0.747592    2.910906    0.149271
     11          6           0       -0.632311   -2.472318    1.449748
     12          6           0       -0.936823   -1.231321    0.998616
     13          6           0        0.812110   -2.670724    1.293997
     14          6           0        1.377165   -1.495956    0.768314
     15          6           0       -3.709180    1.364144    0.318162
     16          6           0       -2.446118    0.822975    0.613727
     17          6           0       -2.133003   -0.467636    0.888468
     18          6           0       -3.549153    2.677433   -0.175304
     19          6           0       -1.607362   -3.495566    1.925644
     20          6           0        5.512059   -2.653152   -1.392587
     21          6           0        3.660186   -1.815236   -0.139161
     22          6           0       -2.176375    2.887457   -0.132830
     23          6           0        5.030368   -1.473976   -0.497850
     24          6           0       -5.074207    0.712324    0.351375
     25          6           0        2.683416   -1.002099    0.457706
     26          6           0        1.520745   -3.860894    1.717929
     27          6           0        4.428925   -3.637637   -1.308264
     28          6           0       -1.936616   -4.581098    0.970826
     29          6           0       -5.424902   -0.245242   -0.813568
     30          6           0       -4.671976    3.686730   -0.434594
     31          6           0       -1.361975    4.169868   -0.308435
     32          6           0        6.952291   -3.281530   -1.220689
     33          6           0        5.759716   -0.390996   -0.009846
     34          6           0       -0.050712    4.110182   -0.267272
     35          6           0        0.865236    5.292923   -0.490898
     36          6           0        2.137785    4.820479   -0.212399
     37          6           0       -2.877847   -4.117719   -0.206151
     38          6           0        5.435103    0.564499    0.953162
     39          6           0       -6.769776   -0.836539   -0.654905
     40          6           0        3.551583    5.429493   -0.303910
     41          6           0        2.037116    3.383944    0.162158
     42          6           0        0.463396    6.608851   -0.907253
     43          6           0        4.192352    5.505877    1.083404
     44          1           0        0.470260    0.220199    0.011451
     45          1           0       -3.120955   -1.105670    0.992103
     46          1           0       -2.642860   -2.994855    2.240213
     47          1           0       -1.093853   -3.937122    2.831252
     48          1           0        5.476544   -2.290590   -2.347354
     49          1           0       -5.232623   -0.097748    1.158392
     50          1           0       -5.855702    1.486207    0.789618
     51          1           0        2.883263    0.152995    0.485937
     52          1           0       -0.611535    1.881283    0.316672
     53          1           0        1.385713   -4.647746    1.034257
     54          1           0        2.640390   -3.827256    2.086061
     55          1           0        0.854461   -4.292145    2.612755
     56          1           0        2.384690   -3.589723   -0.529190
     57          1           0       -0.897368   -4.779379    0.489103
     58          1           0       -2.232596   -5.431181    1.622729
     59          1           0       -4.670240   -0.903380   -1.020561
     60          1           0       -5.286827    0.298953   -1.648485
     61          1           0       -4.818002    4.673101    0.333418
     62          1           0       -5.677694    3.107076   -0.293487
     63          1           0       -4.578083    4.137789   -1.401046
     64          1           0       -1.931223    5.125676   -0.534524
     65          1           0        7.690513   -2.275014   -1.313752
     66          1           0        7.051297   -4.066809   -1.998852
     67          1           0        6.953299   -3.727679   -0.270321
     68          1           0        6.835661   -0.165348   -0.485866
     69          1           0        4.845869    1.507612    0.504581
     70          1           0        6.282257    0.918236    1.578806
     71          1           0        4.715053    0.222516    1.709366
     72          1           0        3.592311    6.350368   -0.997985
     73          1           0        4.085565    4.800760   -0.966424
     74          1           0       -0.119165    6.662301   -1.878844
     75          1           0        1.360985    7.351249   -0.886879
     76          1           0        0.055053    7.299877   -0.124299
     77          1           0        3.643748    6.168014    1.615329
     78          1           0        5.138005    5.925777    0.783440
     79          1           0        4.111046    4.575553    1.440663
     80          1           0       -3.086359   -4.537132   -2.085000
     81          1           0       -7.918080   -1.851313   -1.567959
 ---------------------------------------------------------------------

 SCF Done:  E(RB3LYP) =  -1949.10631517     A.U. after   24 cycles

 Excitation energies and oscillator strengths:

 Excited State   1:      Singlet-A      1.7529 eV  707.30 nm  f=0.2009  <S**2>=0.000
     155 ->157         0.17441
     156 ->157         0.68059
 This state for optimization and/or second-order correction.
 Total Energy, E(TD-HF/TD-DFT) =  -1949.04189657
 Copying the excited state density for this state as the 1-particle RhoCI density.

 The electronic state is 1-A.
 Alpha  occ. eigenvalues --  -19.20892 -19.16146 -19.15157 -19.15012 -19.11645
 Alpha  occ. eigenvalues --  -19.07273 -14.37330 -14.37140 -14.35685 -14.27276
 Alpha  occ. eigenvalues --  -10.34935 -10.33073 -10.29181 -10.25118 -10.24147
 Alpha  occ. eigenvalues --  -10.23930 -10.23915 -10.23770 -10.23526 -10.23255
 Alpha  occ. eigenvalues --  -10.22722 -10.21844 -10.21817 -10.21718 -10.21559
 Alpha  occ. eigenvalues --  -10.21258 -10.21201 -10.20983 -10.20933 -10.20753
 Alpha  occ. eigenvalues --  -10.20570 -10.20321 -10.20262 -10.20223 -10.20220
 Alpha  occ. eigenvalues --  -10.19429 -10.19367 -10.19168 -10.18888 -10.17823
 Alpha  occ. eigenvalues --  -10.17594 -10.17539 -10.14676  -1.13265  -1.09907
 Alpha  occ. eigenvalues --   -1.06010  -1.03988  -1.01211  -1.00828  -0.97425
 Alpha  occ. eigenvalues --   -0.97016  -0.94968  -0.87160  -0.83404  -0.83073
 Alpha  occ. eigenvalues --   -0.81965  -0.81596  -0.79414  -0.79120  -0.78220
 Alpha  occ. eigenvalues --   -0.77864  -0.77129  -0.75650  -0.74424  -0.73352
 Alpha  occ. eigenvalues --   -0.71309  -0.70282  -0.69824  -0.68906  -0.68218
 Alpha  occ. eigenvalues --   -0.67457  -0.65835  -0.64432  -0.63288  -0.61759
 Alpha  occ. eigenvalues --   -0.60608  -0.59320  -0.58165  -0.57947  -0.57376
 Alpha  occ. eigenvalues --   -0.56488  -0.55558  -0.55060  -0.53978  -0.53543
 Alpha  occ. eigenvalues --   -0.52198  -0.51790  -0.50989  -0.50697  -0.50069
 Alpha  occ. eigenvalues --   -0.49943  -0.49457  -0.49178  -0.48780  -0.48527
 Alpha  occ. eigenvalues --   -0.47668  -0.46476  -0.46207  -0.46023  -0.45678
 Alpha  occ. eigenvalues --   -0.45500  -0.45084  -0.44535  -0.44436  -0.44061
 Alpha  occ. eigenvalues --   -0.43418  -0.43118  -0.42933  -0.42690  -0.42582
 Alpha  occ. eigenvalues --   -0.41923  -0.41555  -0.41328  -0.41246  -0.41094
 Alpha  occ. eigenvalues --   -0.40865  -0.40586  -0.40210  -0.40130  -0.39918
 Alpha  occ. eigenvalues --   -0.39476  -0.39237  -0.38770  -0.38468  -0.38223
 Alpha  occ. eigenvalues --   -0.38065  -0.37543  -0.36756  -0.36632  -0.36302
 Alpha  occ. eigenvalues --   -0.36043  -0.35907  -0.35690  -0.35236  -0.35183
 Alpha  occ. eigenvalues --   -0.34882  -0.34716  -0.33145  -0.32875  -0.32442
 Alpha  occ. eigenvalues --   -0.32135  -0.31982  -0.31499  -0.30486  -0.30002
 Alpha  occ. eigenvalues --   -0.29642  -0.27043  -0.26202  -0.25907  -0.25763
 Alpha  occ. eigenvalues --   -0.25197  -0.24594  -0.22403  -0.22159  -0.20286
 Alpha  occ. eigenvalues --   -0.18652
 Alpha virt. eigenvalues --   -0.11157  -0.05462  -0.04226  -0.02183  -0.01462
 Alpha virt. eigenvalues --    0.00089   0.02141   0.02414   0.03363   0.03591
 Alpha virt. eigenvalues --    0.04273   0.04337   0.04666   0.05451   0.05866

 Mulliken charges:
               1
     1  O   -0.162308
     2  O   -0.122723
     3  O   -0.228140
     4  O   -0.212754
     5  O   -0.186686
     6  O   -0.297233
     7  N   -0.159709
     8  N    0.062393
     9  N   -0.182237
    10  N   -0.363767
    11  C   -0.079398
    12  C    0.088634
    13  C   -0.183932
    14  C    0.106398
    15  C   -0.075452
    16  C    0.088380
    17  C   -0.079466
    18  C   -0.112177
    19  C    0.030624
    20  C    0.017343
    21  C    0.082913
    22  C    0.001529
    23  C   -0.017404
    24  C   -0.050206
    25  C   -0.167855
    26  C    0.051253
    27  C    0.076964
    28  C   -0.004111
    29  C    0.161836
    30  C    0.023525
    31  C   -0.128596
    32  C    0.036021
    33  C   -0.157853
    34  C    0.146365
    35  C   -0.069429
    36  C   -0.169394
    37  C    0.141364
    38  C    0.010113
    39  C    0.165479
    40  C    0.051180
    41  C    0.167997
    42  C    0.042446
    43  C    0.138399
    44  H    0.168081
    45  H    0.047902
    46  H    0.036347
    47  H    0.017254
    48  H    0.010817
    49  H    0.020554
    50  H    0.055829
    51  H    0.071283
    52  H    0.066049
    53  H    0.006741
    54  H    0.066247
    55  H    0.009017
    56  H    0.163366
    57  H    0.032490
    58  H    0.055821
    59  H   -0.002896
    60  H   -0.014988
    61  H    0.048644
    62  H    0.031743
    63  H    0.023504
    64  H   -0.002665
    65  H    0.046816
    66  H    0.046753
    67  H    0.014198
    68  H    0.023842
    69  H    0.119851
    70  H    0.015786
    71  H    0.018965
    72  H   -0.016460
    73  H   -0.011352
    74  H    0.041960
    75  H    0.002960
    76  H    0.017340
    77  H   -0.024306
    78  H    0.001024
    79  H    0.000924
    80  H    0.173933
    81  H    0.136300
 Sum of Mulliken charges =  -0.00000

 Dipole moment (field-independent basis, Debye):
    X=             -2.1983    Y=             -1.9627    Z=             -1.5272  Tot=              3.3192
 Quadrupole moment (field-independent basis, Debye-Ang):
   XX=           -259.6222   YY=           -240.3876   ZZ=           -253.7338
   XY=              7.3906   XZ=              6.1197   YZ=             -9.2416

 Normal termination of Gaussian 16 at Thu Jun 27 07:05:45 2019.
