 Gaussian 16, Revision A.03,
 Gaussian 16:  ES64L-G16RevA.03 25-Dec-2016

 --------------------------
 # td=(NStates=1) B3LYP/SVP
 --------------------------

 --
 TD
 --
 Symbolic Z-matrix:
 Charge =  0 Multiplicity = 1

                         Standard orientation:
 ---------------------------------------------------------------------
 Center     Atomic      Atomic             Coordinates (Angstroms)
 Number     Number       Type             X           Y           Z
 ---------------------------------------------------------------------
      1          8           0       -4.416738   -4.774495    1.885032
      2          8           0        2.866951   -4.767463    1.300210
      3          8           0        7.086993   -1.479954    1.929192
      4          8           0        3.692397   -3.072337    0.108832
      5          8           0        7.497188   -0.916646   -0.213005
      6          8           0       -3.061474    2.507248   -0.427718
      7          7           0       -0.351150   -0.587159   -0.691159
      8          7           0        1.608586    1.806887   -0.262787
      9          7           0       -3.332331   -3.181541    0.562952
     10          7           0       -0.720405    2.894319   -0.073233
     11          6           0        0.736586   -2.375055   -1.390568
     12          6           0        0.877253   -1.066557   -0.966307
     13          6           0       -0.737646   -2.651796   -1.301411
     14          6           0       -1.295032   -1.444926   -0.844254
     15          6           0        3.792832    1.511186   -0.254908
     16          6           0        2.501222    0.804098   -0.562398
     17          6           0        2.227334   -0.459295   -0.851246
     18          6           0        3.599019    2.795403    0.050440
     19          6           0        1.615313   -3.413339   -1.922148
     20          6           0       -5.526376   -2.600923    1.406819
     21          6           0       -3.548964   -1.844366    0.173709
     22          6           0        2.125137    2.942683    0.024167
     23          6           0       -4.999760   -1.539139    0.429023
     24          6           0        5.108502    0.798714   -0.441639
     25          6           0       -2.751270   -1.081384   -0.418146
     26          6           0       -1.503096   -3.798254   -1.775427
     27          6           0       -4.388995   -3.751607    1.315197
     28          6           0        2.008900   -4.578908   -0.933828
     29          6           0        5.507122   -0.084076    0.823072
     30          6           0        4.522965    3.861726    0.308510
     31          6           0        1.356834    4.048750    0.435703
     32          6           0       -6.903848   -3.222285    1.211789
     33          6           0       -5.839406   -0.624462   -0.164486
     34          6           0       -0.006496    3.987323    0.211356
     35          6           0       -0.981063    5.239959    0.462657
     36          6           0       -2.197367    4.694300    0.333711
     37          6           0        2.864605   -4.036532    0.143538
     38          6           0       -5.607460    0.489963   -1.085568
     39          6           0        6.741593   -0.862138    0.695050
     40          6           0       -3.531681    5.419608    0.378922
     41          6           0       -2.106737    3.211931   -0.165519
     42          6           0       -0.511233    6.595461    0.943600
     43          6           0       -4.256101    5.524946   -0.946309
     44          1           0       -0.450280    0.271981   -0.231931
     45          1           0        3.166003   -0.916603   -1.186439
     46          1           0        2.717679   -3.058423   -2.002554
     47          1           0        1.312679   -3.891715   -2.977408
     48          1           0       -5.514999   -2.281722    2.485270
     49          1           0        5.186537    0.037263   -1.300975
     50          1           0        5.914359    1.534257   -0.714080
     51          1           0       -2.852750    0.056506   -0.622169
     52          1           0        0.476410    1.911225   -0.583987
     53          1           0       -1.418427   -4.694803   -1.119925
     54          1           0       -2.624049   -3.583699   -1.985242
     55          1           0       -1.436002   -4.264215   -2.839390
     56          1           0       -2.491432   -3.673200    0.302427
     57          1           0        1.095084   -5.127563   -0.470238
     58          1           0        2.697423   -5.258346   -1.588689
     59          1           0        4.662890   -0.899589    0.798932
     60          1           0        5.614658    0.471964    1.824779
     61          1           0        4.518914    4.486499   -0.609589
     62          1           0        5.663405    3.288207    0.487439
     63          1           0        4.381550    4.400991    1.320797
     64          1           0        1.678019    4.946472    0.786143
     65          1           0       -7.714495   -2.513257    1.295776
     66          1           0       -7.115171   -3.971638    1.927166
     67          1           0       -6.919312   -3.426315    0.302910
     68          1           0       -6.734627   -0.591387    0.422790
     69          1           0       -5.221276    1.531335   -0.685171
     70          1           0       -6.625113    0.855904   -1.480528
     71          1           0       -4.734114    0.179896   -1.828412
     72          1           0       -3.466547    6.467634    1.072900
     73          1           0       -4.076048    4.944998    1.038204
     74          1           0       -0.006779    6.565583    1.842209
     75          1           0       -1.307734    7.180713    1.122825
     76          1           0        0.256070    7.045066    0.175115
     77          1           0       -3.799758    6.187485   -1.499734
     78          1           0       -5.307075    5.955484   -0.967008
     79          1           0       -4.410776    4.651424   -1.439449
     80          1           0        3.708796   -4.448405    1.892873
     81          1           0        8.064730   -1.814400    1.684992
 ---------------------------------------------------------------------

 SCF Done:  E(RB3LYP) =  -1949.06509994     A.U. after   16 cycles

 Excitation energies and oscillator strengths:

 Excited State   1:      Singlet-A      2.3054 eV  537.81 nm  f=0.3003  <S**2>=0.000
     156 ->157         0.70157
 This state for optimization and/or second-order correction.
 Total Energy, E(TD-HF/TD-DFT) =  -1948.98037939
 Copying the excited state density for this state as the 1-particle RhoCI density.

 The electronic state is 1-A.
 Alpha  occ. eigenvalues --  -19.19378 -19.16915 -19.13768 -19.13292 -19.12264
 Alpha  occ. eigenvalues --  -19.11277 -14.38156 -14.35897 -14.35777 -14.30799
 Alpha  occ. eigenvalues --  -10.33838 -10.31566 -10.28763 -10.28594 -10.24583
 Alpha  occ. eigenvalues --  -10.23799 -10.23640 -10.23353 -10.23064 -10.22784
 Alpha  occ. eigenvalues --  -10.22660 -10.22377 -10.22106 -10.21891 -10.21795
 Alpha  occ. eigenvalues --  -10.21585 -10.21060 -10.20485 -10.20467 -10.20241
 Alpha  occ. eigenvalues --  -10.19759 -10.19696 -10.19615 -10.19416 -10.19182
 Alpha  occ. eigenvalues --  -10.19086 -10.19010 -10.18815 -10.18771 -10.18572
 Alpha  occ. eigenvalues --  -10.18294 -10.16037 -10.15745  -1.08544  -1.08373
 Alpha  occ. eigenvalues --   -1.04977  -1.02880  -1.01638  -1.00150  -0.98907
 Alpha  occ. eigenvalues --   -0.98218  -0.93949  -0.91999  -0.82968  -0.82512
 Alpha  occ. eigenvalues --   -0.81909  -0.80450  -0.79982  -0.79101  -0.78068
 Alpha  occ. eigenvalues --   -0.77687  -0.77025  -0.75710  -0.74625  -0.73425
 Alpha  occ. eigenvalues --   -0.71601  -0.69993  -0.69620  -0.68824  -0.68280
 Alpha  occ. eigenvalues --   -0.67318  -0.65708  -0.63341  -0.63187  -0.61247
 Alpha  occ. eigenvalues --   -0.60116  -0.59422  -0.57631  -0.57293  -0.56549
 Alpha  occ. eigenvalues --   -0.56267  -0.54916  -0.54183  -0.54020  -0.52924
 Alpha  occ. eigenvalues --   -0.52584  -0.51912  -0.50768  -0.49528  -0.49136
 Alpha  occ. eigenvalues --   -0.48761  -0.48598  -0.47803  -0.47532  -0.47507
 Alpha  occ. eigenvalues --   -0.47095  -0.46946  -0.46783  -0.46476  -0.45987
 Alpha  occ. eigenvalues --   -0.45391  -0.45020  -0.44534  -0.44383  -0.43924
 Alpha  occ. eigenvalues --   -0.43593  -0.43553  -0.43058  -0.42966  -0.42622
 Alpha  occ. eigenvalues --   -0.42464  -0.42362  -0.41897  -0.41620  -0.41243
 Alpha  occ. eigenvalues --   -0.41069  -0.40920  -0.40727  -0.40537  -0.40128
 Alpha  occ. eigenvalues --   -0.39591  -0.39315  -0.38830  -0.38492  -0.38203
 Alpha  occ. eigenvalues --   -0.37834  -0.37659  -0.37429  -0.37093  -0.36756
 Alpha  occ. eigenvalues --   -0.36279  -0.35515  -0.35375  -0.34595  -0.34431
 Alpha  occ. eigenvalues --   -0.34367  -0.34311  -0.33583  -0.33121  -0.32811
 Alpha  occ. eigenvalues --   -0.32275  -0.31771  -0.31172  -0.30739  -0.28822
 Alpha  occ. eigenvalues --   -0.28500  -0.28410  -0.26606  -0.26109  -0.25793
 Alpha  occ. eigenvalues --   -0.24975  -0.24690  -0.24444  -0.23637  -0.22214
 Alpha  occ. eigenvalues --   -0.19425
 Alpha virt. eigenvalues --   -0.09831  -0.04878  -0.03376  -0.02827   0.00268
 Alpha virt. eigenvalues --    0.01321   0.01899   0.02337   0.02966   0.03673
 Alpha virt. eigenvalues --    0.04129   0.04177   0.04790   0.04990   0.06225

 Mulliken charges:
               1
     1  O   -0.158227
     2  O   -0.240891
     3  O   -0.295268
     4  O   -0.293484
     5  O   -0.197231
     6  O   -0.194091
     7  N    0.089102
     8  N   -0.109771
     9  N   -0.152729
    10  N   -0.342000
    11  C   -0.062653
    12  C    0.029364
    13  C   -0.143749
    14  C   -0.046919
    15  C   -0.023571
    16  C    0.030071
    17  C   -0.010556
    18  C   -0.094964
    19  C    0.003431
    20  C   -0.147341
    21  C    0.238062
    22  C    0.078650
    23  C   -0.036599
    24  C    0.001110
    25  C   -0.187187
    26  C   -0.040393
    27  C    0.131180
    28  C   -0.008348
    29  C   -0.047461
    30  C    0.003643
    31  C   -0.065441
    32  C    0.201070
    33  C   -0.086623
    34  C    0.053895
    35  C   -0.097825
    36  C   -0.224448
    37  C    0.165501
    38  C   -0.007897
    39  C    0.147701
    40  C    0.114113
    41  C    0.210285
    42  C    0.184228
    43  C    0.098505
    44  H    0.105563
    45  H    0.006399
    46  H    0.023651
    47  H    0.042200
    48  H    0.037494
    49  H    0.040218
    50  H    0.019360
    51  H    0.055290
    52  H    0.213894
    53  H    0.025934
    54  H    0.043558
    55  H    0.026168
    56  H    0.111990
    57  H    0.059974
    58  H    0.075582
    59  H    0.086871
    60  H    0.059656
    61  H    0.053427
    62  H    0.038172
    63  H    0.052703
    64  H   -0.078986
    65  H   -0.010783
    66  H    0.017573
    67  H   -0.068504
    68  H   -0.014404
    69  H    0.077400
    70  H    0.015917
    71  H    0.046776
    72  H   -0.003005
    73  H   -0.043830
    74  H    0.003886
    75  H   -0.027340
    76  H    0.032483
    77  H   -0.034498
    78  H   -0.005847
    79  H    0.002165
    80  H    0.241163
    81  H    0.207486
 Sum of Mulliken charges =  -0.00000

 Dipole moment (field-independent basis, Debye):
    X=              3.3719    Y=              2.4840    Z=             -0.3676  Tot=              4.2041
 Quadrupole moment (field-independent basis, Debye-Ang):
   XX=           -256.5121   YY=           -237.0501   ZZ=           -255.3353
   XY=            -11.0923   XZ=             11.0075   YZ=             15.5350

 Normal termination of Gaussian 16 at Fri Jun 28 15:44:01 2019.
