 Gaussian 16, Revision A.03,
 Gaussian 16:  ES64L-G16RevA.03 25-Dec-2016

 --------------------------
 # td=(NStates=1) B3LYP/SVP
 --------------------------

 --
 TD
 --
 Symbolic Z-matrix:
 Charge =  0 Multiplicity = 1

                         Standard orientation:
 ---------------------------------------------------------------------
 Center     Atomic      Atomic             Coordinates (Angstroms)
 Number     Number       Type             X           Y           Z
 ---------------------------------------------------------------------
      1          8           0        4.259615   -4.971737   -1.903020
      2          8           0       -3.333711   -4.805207   -1.175293
      3          8           0       -7.146128   -1.302919   -1.829684
      4          8           0       -3.937144   -2.935849   -0.058098
      5          8           0       -7.670249   -0.117805    0.084490
      6          8           0        3.395849    2.596808    0.092443
      7          7           0        0.252498   -0.621249    0.519911
      8          7           0       -1.425182    1.856475    0.365820
      9          7           0        3.230763   -3.347423   -0.566316
     10          7           0        1.016859    2.886059    0.022950
     11          6           0       -0.845356   -2.473907    1.287871
     12          6           0       -1.076396   -1.128722    0.819384
     13          6           0        0.566120   -2.778661    1.199695
     14          6           0        1.189180   -1.672125    0.732523
     15          6           0       -3.706764    1.620127    0.272713
     16          6           0       -2.397048    0.953015    0.509339
     17          6           0       -2.249127   -0.450667    0.651863
     18          6           0       -3.352119    2.922406   -0.055733
     19          6           0       -1.844278   -3.439360    2.012788
     20          6           0        5.410956   -2.799929   -1.368969
     21          6           0        3.503089   -2.166469   -0.123464
     22          6           0       -1.872733    3.086328    0.016207
     23          6           0        4.907774   -1.839165   -0.330659
     24          6           0       -4.970711    0.921110    0.457471
     25          6           0        2.550759   -1.266140    0.420929
     26          6           0        1.306496   -3.987625    1.750908
     27          6           0        4.237588   -3.897858   -1.330581
     28          6           0       -2.370463   -4.452429    0.977465
     29          6           0       -5.411928    0.097670   -0.813139
     30          6           0       -4.348754    3.986449   -0.216998
     31          6           0       -1.041203    4.138018   -0.203221
     32          6           0        6.776568   -3.438348   -1.139009
     33          6           0        5.807872   -1.014032    0.289755
     34          6           0        0.318940    4.013996   -0.240791
     35          6           0        1.191382    5.233897   -0.317526
     36          6           0        2.519936    4.752490   -0.393384
     37          6           0       -3.261148   -3.953954   -0.088370
     38          6           0        5.491551    0.139054    1.258054
     39          6           0       -6.844501   -0.441083   -0.769445
     40          6           0        3.876245    5.436661   -0.508586
     41          6           0        2.406937    3.207337   -0.058056
     42          6           0        0.708506    6.633574   -0.670323
     43          6           0        4.506780    5.571496    0.878935
     44          1           0        0.399187    0.261153   -0.005578
     45          1           0       -3.214046   -1.006240    0.627785
     46          1           0       -2.582073   -2.706083    2.407862
     47          1           0       -1.435629   -3.980399    2.849681
     48          1           0        5.369695   -2.476031   -2.343352
     49          1           0       -4.997665    0.277813    1.528878
     50          1           0       -5.850978    1.691419    0.501996
     51          1           0        2.824159   -0.157787    0.607167
     52          1           0       -0.470832    1.818619    0.562031
     53          1           0        1.425806   -5.061307    1.204042
     54          1           0        2.259190   -3.737953    2.016735
     55          1           0        0.877879   -4.205935    2.716658
     56          1           0        2.367117   -3.729203   -0.755709
     57          1           0       -1.646086   -5.266018    0.524331
     58          1           0       -3.017657   -5.126082    1.632277
     59          1           0       -4.722138   -0.825908   -0.949923
     60          1           0       -5.288602    0.515030   -1.819257
     61          1           0       -4.214690    4.940351    0.455672
     62          1           0       -5.382325    3.613019   -0.249231
     63          1           0       -4.234389    4.313724   -1.277976
     64          1           0       -1.527862    5.059871   -0.718686
     65          1           0        7.664051   -2.745043   -1.370617
     66          1           0        6.950297   -4.246764   -1.761215
     67          1           0        6.870144   -3.699183   -0.198749
     68          1           0        6.655639   -0.941507   -0.228607
     69          1           0        5.350821    1.197601    0.796942
     70          1           0        6.499129    0.101624    2.045868
     71          1           0        4.719101   -0.042173    1.866897
     72          1           0        3.967212    6.497335   -0.934738
     73          1           0        4.580925    4.789783   -1.089590
     74          1           0        0.035888    6.639784   -1.644834
     75          1           0        1.463170    7.423934   -0.871585
     76          1           0        0.196146    7.193204    0.337781
     77          1           0        3.867836    6.335484    1.386038
     78          1           0        5.634013    6.254987    0.885587
     79          1           0        4.725036    4.565218    1.398048
     80          1           0       -4.062098   -4.440458   -1.743184
     81          1           0       -8.230667   -1.298158   -1.918563
 ---------------------------------------------------------------------

 SCF Done:  E(RB3LYP) =  -1949.12037359     A.U. after   16 cycles

 Excitation energies and oscillator strengths:

 Excited State   1:      Singlet-A      1.8917 eV  655.41 nm  f=0.4511  <S**2>=0.000
     156 ->157         0.70811
     156 <-157        -0.12526
 This state for optimization and/or second-order correction.
 Total Energy, E(TD-HF/TD-DFT) =  -1949.05085489
 Copying the excited state density for this state as the 1-particle RhoCI density.

 The electronic state is 1-A.
 Alpha  occ. eigenvalues --  -19.19357 -19.18712 -19.14652 -19.13128 -19.12423
 Alpha  occ. eigenvalues --  -19.11339 -14.38151 -14.36997 -14.36450 -14.29186
 Alpha  occ. eigenvalues --  -10.33992 -10.32596 -10.29925 -10.27056 -10.24665
 Alpha  occ. eigenvalues --  -10.24117 -10.23360 -10.23332 -10.23304 -10.23275
 Alpha  occ. eigenvalues --  -10.22765 -10.22632 -10.22049 -10.21783 -10.21342
 Alpha  occ. eigenvalues --  -10.20870 -10.20725 -10.20575 -10.20474 -10.20106
 Alpha  occ. eigenvalues --  -10.20063 -10.20033 -10.19948 -10.19824 -10.19800
 Alpha  occ. eigenvalues --  -10.19734 -10.19601 -10.19423 -10.19240 -10.19217
 Alpha  occ. eigenvalues --  -10.19039 -10.18552 -10.17264  -1.10082  -1.06885
 Alpha  occ. eigenvalues --   -1.05084  -1.04297  -1.01308  -0.99831  -0.99136
 Alpha  occ. eigenvalues --   -0.98903  -0.95363  -0.90701  -0.82597  -0.82574
 Alpha  occ. eigenvalues --   -0.81903  -0.81435  -0.79177  -0.77952  -0.77798
 Alpha  occ. eigenvalues --   -0.76947  -0.76484  -0.74539  -0.73799  -0.72492
 Alpha  occ. eigenvalues --   -0.71355  -0.70587  -0.69159  -0.68496  -0.67852
 Alpha  occ. eigenvalues --   -0.66384  -0.65838  -0.65037  -0.62815  -0.60409
 Alpha  occ. eigenvalues --   -0.59987  -0.59385  -0.59098  -0.57968  -0.56980
 Alpha  occ. eigenvalues --   -0.56502  -0.55732  -0.55091  -0.53995  -0.53187
 Alpha  occ. eigenvalues --   -0.52256  -0.51887  -0.50836  -0.50242  -0.49314
 Alpha  occ. eigenvalues --   -0.48978  -0.48438  -0.48042  -0.47828  -0.47499
 Alpha  occ. eigenvalues --   -0.46845  -0.46222  -0.46041  -0.45656  -0.45356
 Alpha  occ. eigenvalues --   -0.44974  -0.44411  -0.44342  -0.43940  -0.43598
 Alpha  occ. eigenvalues --   -0.43383  -0.42978  -0.42684  -0.42665  -0.42237
 Alpha  occ. eigenvalues --   -0.41994  -0.41555  -0.41215  -0.41057  -0.40961
 Alpha  occ. eigenvalues --   -0.40612  -0.40433  -0.40367  -0.40069  -0.39903
 Alpha  occ. eigenvalues --   -0.39099  -0.38955  -0.38663  -0.38605  -0.38438
 Alpha  occ. eigenvalues --   -0.38304  -0.37993  -0.37398  -0.37177  -0.36822
 Alpha  occ. eigenvalues --   -0.36344  -0.36211  -0.35803  -0.35134  -0.34864
 Alpha  occ. eigenvalues --   -0.34210  -0.33802  -0.33737  -0.33683  -0.33591
 Alpha  occ. eigenvalues --   -0.32911  -0.32162  -0.31022  -0.30148  -0.29978
 Alpha  occ. eigenvalues --   -0.28382  -0.28204  -0.27647  -0.26087  -0.25450
 Alpha  occ. eigenvalues --   -0.25167  -0.24976  -0.23347  -0.22565  -0.21685
 Alpha  occ. eigenvalues --   -0.17643
 Alpha virt. eigenvalues --   -0.10378  -0.05711  -0.04256  -0.02464  -0.00881
 Alpha virt. eigenvalues --   -0.00627   0.01509   0.02079   0.03117   0.03673
 Alpha virt. eigenvalues --    0.04036   0.04287   0.04547   0.05316   0.05965

 Mulliken charges:
               1
     1  O   -0.199589
     2  O   -0.213411
     3  O   -0.282610
     4  O   -0.229488
     5  O   -0.239727
     6  O   -0.157134
     7  N   -0.187829
     8  N    0.017071
     9  N    0.032777
    10  N   -0.338803
    11  C   -0.138345
    12  C    0.137155
    13  C   -0.147648
    14  C    0.114093
    15  C   -0.040070
    16  C    0.012628
    17  C   -0.096760
    18  C   -0.126255
    19  C    0.139591
    20  C   -0.073553
    21  C    0.021899
    22  C    0.078169
    23  C   -0.042074
    24  C    0.008905
    25  C   -0.133054
    26  C    0.088922
    27  C    0.077420
    28  C   -0.025635
    29  C   -0.036074
    30  C    0.077752
    31  C   -0.136666
    32  C    0.141521
    33  C   -0.031931
    34  C    0.087327
    35  C   -0.085664
    36  C   -0.158842
    37  C    0.153305
    38  C    0.031304
    39  C    0.178346
    40  C    0.080766
    41  C    0.156839
    42  C   -0.010790
    43  C   -0.099343
    44  H    0.143044
    45  H    0.030351
    46  H    0.027311
    47  H    0.003972
    48  H    0.014189
    49  H    0.072854
    50  H    0.034693
    51  H    0.058128
    52  H    0.096751
    53  H    0.040639
    54  H   -0.008818
    55  H   -0.000880
    56  H    0.111702
    57  H    0.061508
    58  H    0.055380
    59  H    0.058058
    60  H    0.033606
    61  H    0.050758
    62  H    0.004505
    63  H    0.009959
    64  H    0.010771
    65  H    0.013190
    66  H    0.004880
    67  H   -0.035287
    68  H   -0.044871
    69  H    0.092559
    70  H    0.010932
    71  H   -0.004277
    72  H    0.013924
    73  H    0.014644
    74  H    0.050129
    75  H    0.015407
    76  H    0.036848
    77  H    0.019167
    78  H    0.007692
    79  H    0.061391
    80  H    0.197303
    81  H    0.233394
 Sum of Mulliken charges =  -0.00000

 Dipole moment (field-independent basis, Debye):
    X=             -3.4081    Y=             -0.9740    Z=             -0.8158  Tot=              3.6372
 Quadrupole moment (field-independent basis, Debye-Ang):
   XX=           -253.9327   YY=           -244.8659   ZZ=           -251.8394
   XY=             10.3425   XZ=             15.5978   YZ=            -16.3189

 Normal termination of Gaussian 16 at Tue Jul  2 21:58:32 2019.
