 Gaussian 16, Revision A.03,
 Gaussian 16:  ES64L-G16RevA.03 25-Dec-2016

 --------------------------
 # td=(NStates=1) B3LYP/SVP
 --------------------------

 --
 TD
 --
 Symbolic Z-matrix:
 Charge =  0 Multiplicity = 1

                         Standard orientation:
 ---------------------------------------------------------------------
 Center     Atomic      Atomic             Coordinates (Angstroms)
 Number     Number       Type             X           Y           Z
 ---------------------------------------------------------------------
      1          8           0        4.314201   -4.803503   -1.768879
      2          8           0       -2.941322   -4.608934   -1.490302
      3          8           0       -7.163590   -1.627801   -1.582814
      4          8           0       -3.892530   -3.103465   -0.128472
      5          8           0       -7.573535   -0.604123    0.326327
      6          8           0        3.154513    2.464140    0.254792
      7          7           0        0.212508   -0.592564    0.593201
      8          7           0       -1.595367    1.958841    0.388734
      9          7           0        3.315252   -3.221341   -0.605650
     10          7           0        0.866154    2.916991    0.092842
     11          6           0       -0.734463   -2.422907    1.335995
     12          6           0       -0.963282   -1.073898    0.924454
     13          6           0        0.648326   -2.718288    1.222460
     14          6           0        1.267414   -1.497472    0.684172
     15          6           0       -3.780330    1.596370    0.300194
     16          6           0       -2.510270    0.920967    0.497624
     17          6           0       -2.211013   -0.339791    0.897711
     18          6           0       -3.485782    2.876720   -0.162130
     19          6           0       -1.741254   -3.514863    1.898194
     20          6           0        5.439248   -2.784926   -1.303433
     21          6           0        3.526775   -1.920683   -0.200215
     22          6           0       -2.079251    3.085121   -0.079023
     23          6           0        4.912185   -1.638099   -0.434122
     24          6           0       -5.100738    0.932971    0.424611
     25          6           0        2.546791   -1.107591    0.339094
     26          6           0        1.370586   -3.847097    1.753828
     27          6           0        4.361602   -3.724193   -1.299621
     28          6           0       -2.073693   -4.464631    0.739356
     29          6           0       -5.394349   -0.127366   -0.661107
     30          6           0       -4.482225    4.019523   -0.347980
     31          6           0       -1.179635    4.147530   -0.319290
     32          6           0        6.769043   -3.427211   -0.981550
     33          6           0        5.756098   -0.823865    0.292595
     34          6           0        0.223589    4.073939   -0.239158
     35          6           0        1.203268    5.201649   -0.535036
     36          6           0        2.426451    4.701701   -0.381750
     37          6           0       -2.993642   -3.944389   -0.348930
     38          6           0        5.461306    0.189862    1.393707
     39          6           0       -6.788004   -0.802302   -0.562451
     40          6           0        3.859823    5.328438   -0.413672
     41          6           0        2.181003    3.224419    0.066085
     42          6           0        0.756278    6.646070   -1.115061
     43          6           0        4.352000    5.532669    1.029661
     44          1           0        0.423505    0.405667    0.194779
     45          1           0       -3.083950   -0.909555    0.919219
     46          1           0       -2.530327   -2.947770    2.454060
     47          1           0       -1.398104   -3.935439    2.701354
     48          1           0        5.372352   -2.498253   -2.567326
     49          1           0       -5.198282    0.496902    1.473253
     50          1           0       -5.993878    1.688992    0.404527
     51          1           0        2.869596   -0.171125    0.846545
     52          1           0       -0.563554    1.990545    0.229760
     53          1           0        1.645330   -4.561649    0.750727
     54          1           0        2.480184   -3.518306    1.890539
     55          1           0        0.892778   -4.556403    2.319009
     56          1           0        2.265111   -3.587090   -0.645071
     57          1           0       -1.152078   -4.733373    0.401474
     58          1           0       -2.411011   -5.596380    0.978204
     59          1           0       -4.497412   -0.843245   -0.701577
     60          1           0       -5.426306    0.400104   -1.696847
     61          1           0       -4.512781    4.799674    0.434063
     62          1           0       -5.475413    3.643630   -0.246550
     63          1           0       -4.514198    4.717259   -1.310542
     64          1           0       -1.504723    5.171779   -0.603795
     65          1           0        7.428225   -2.580803   -1.046838
     66          1           0        7.078372   -4.102306   -1.881467
     67          1           0        6.790790   -3.852319   -0.057034
     68          1           0        6.781266   -0.825064   -0.005614
     69          1           0        4.762038    0.853317    1.010462
     70          1           0        6.549410    0.685293    1.624396
     71          1           0        5.043593   -0.266804    2.310904
     72          1           0        3.806651    6.248154   -1.128648
     73          1           0        4.521724    4.519387   -0.810316
     74          1           0        0.114764    6.467875   -2.005191
     75          1           0        1.572217    7.194151   -1.347236
     76          1           0        0.139682    7.121471   -0.325457
     77          1           0        3.357044    5.978441    1.779685
     78          1           0        5.383061    6.037184    0.862908
     79          1           0        4.605170    4.426233    1.548172
     80          1           0       -3.698737   -4.216501   -2.095628
     81          1           0       -7.956974   -2.097915   -1.319263
 ---------------------------------------------------------------------

 SCF Done:  E(RB3LYP) =  -1949.11084473     A.U. after   16 cycles

 Excitation energies and oscillator strengths:

 Excited State   1:      Singlet-A      1.9539 eV  634.54 nm  f=0.4281  <S**2>=0.000
     156 ->157         0.70954
     156 <-157        -0.11087
 This state for optimization and/or second-order correction.
 Total Energy, E(TD-HF/TD-DFT) =  -1949.03903894
 Copying the excited state density for this state as the 1-particle RhoCI density.

 The electronic state is 1-A.
 Alpha  occ. eigenvalues --  -19.20785 -19.17414 -19.13553 -19.12305 -19.09868
 Alpha  occ. eigenvalues --  -19.09243 -14.38349 -14.37064 -14.35405 -14.29452
 Alpha  occ. eigenvalues --  -10.33861 -10.32156 -10.27797 -10.26043 -10.24258
 Alpha  occ. eigenvalues --  -10.23891 -10.23627 -10.23510 -10.23468 -10.23355
 Alpha  occ. eigenvalues --  -10.22450 -10.22027 -10.21757 -10.21338 -10.21329
 Alpha  occ. eigenvalues --  -10.21301 -10.21285 -10.21171 -10.20655 -10.20653
 Alpha  occ. eigenvalues --  -10.20613 -10.20508 -10.20274 -10.20049 -10.20002
 Alpha  occ. eigenvalues --  -10.19991 -10.19793 -10.19373 -10.19071 -10.18965
 Alpha  occ. eigenvalues --  -10.18946 -10.18615 -10.18540  -1.10997  -1.09388
 Alpha  occ. eigenvalues --   -1.05594  -1.00074  -1.00001  -0.99984  -0.99272
 Alpha  occ. eigenvalues --   -0.98974  -0.96381  -0.91545  -0.82974  -0.82405
 Alpha  occ. eigenvalues --   -0.82030  -0.81458  -0.79552  -0.78526  -0.78095
 Alpha  occ. eigenvalues --   -0.76845  -0.76688  -0.75180  -0.73584  -0.72570
 Alpha  occ. eigenvalues --   -0.71040  -0.70596  -0.69176  -0.68910  -0.68526
 Alpha  occ. eigenvalues --   -0.67711  -0.66479  -0.65056  -0.62326  -0.61128
 Alpha  occ. eigenvalues --   -0.60411  -0.59461  -0.58434  -0.58407  -0.56790
 Alpha  occ. eigenvalues --   -0.56483  -0.55846  -0.54933  -0.53773  -0.53405
 Alpha  occ. eigenvalues --   -0.52230  -0.51801  -0.51690  -0.49953  -0.49928
 Alpha  occ. eigenvalues --   -0.49560  -0.49102  -0.48693  -0.48240  -0.47342
 Alpha  occ. eigenvalues --   -0.47149  -0.46703  -0.46077  -0.45960  -0.45482
 Alpha  occ. eigenvalues --   -0.45168  -0.44935  -0.44010  -0.43933  -0.43644
 Alpha  occ. eigenvalues --   -0.43036  -0.42618  -0.42448  -0.42355  -0.42184
 Alpha  occ. eigenvalues --   -0.41842  -0.41540  -0.41435  -0.41194  -0.41104
 Alpha  occ. eigenvalues --   -0.40716  -0.40339  -0.39988  -0.39971  -0.39599
 Alpha  occ. eigenvalues --   -0.39280  -0.39156  -0.38794  -0.38707  -0.38168
 Alpha  occ. eigenvalues --   -0.37970  -0.37522  -0.37263  -0.36833  -0.36674
 Alpha  occ. eigenvalues --   -0.36598  -0.36297  -0.36164  -0.35955  -0.34967
 Alpha  occ. eigenvalues --   -0.34098  -0.34060  -0.33753  -0.33095  -0.32793
 Alpha  occ. eigenvalues --   -0.32749  -0.32029  -0.30883  -0.29855  -0.29144
 Alpha  occ. eigenvalues --   -0.28337  -0.27789  -0.26804  -0.25959  -0.25518
 Alpha  occ. eigenvalues --   -0.25182  -0.24710  -0.24103  -0.23301  -0.21767
 Alpha  occ. eigenvalues --   -0.18228
 Alpha virt. eigenvalues --   -0.10529  -0.05558  -0.04199  -0.02385  -0.00462
 Alpha virt. eigenvalues --    0.00406   0.01442   0.02087   0.02581   0.04202
 Alpha virt. eigenvalues --    0.04455   0.04781   0.05005   0.05415   0.06137

 Mulliken charges:
               1
     1  O   -0.170690
     2  O   -0.183896
     3  O   -0.195946
     4  O   -0.276280
     5  O   -0.221571
     6  O   -0.254564
     7  N   -0.062223
     8  N   -0.057459
     9  N   -0.131029
    10  N   -0.282748
    11  C   -0.189027
    12  C    0.035648
    13  C   -0.161918
    14  C    0.066046
    15  C   -0.040239
    16  C    0.029834
    17  C    0.014759
    18  C   -0.098295
    19  C    0.221333
    20  C   -0.148959
    21  C    0.036363
    22  C    0.088847
    23  C    0.022197
    24  C    0.043724
    25  C   -0.117604
    26  C    0.121115
    27  C    0.047569
    28  C    0.057300
    29  C   -0.052501
    30  C    0.051137
    31  C   -0.098774
    32  C    0.134345
    33  C   -0.144090
    34  C    0.026796
    35  C   -0.110490
    36  C   -0.207377
    37  C    0.149621
    38  C    0.046206
    39  C    0.155275
    40  C    0.089423
    41  C    0.144283
    42  C    0.145010
    43  C   -0.120451
    44  H    0.173253
    45  H   -0.020879
    46  H    0.008963
    47  H   -0.061783
    48  H    0.068863
    49  H    0.037762
    50  H    0.025887
    51  H    0.036040
    52  H    0.137699
    53  H   -0.004784
    54  H    0.051527
    55  H   -0.007844
    56  H    0.179866
    57  H   -0.018132
    58  H    0.057347
    59  H    0.073147
    60  H    0.043316
    61  H    0.021497
    62  H   -0.014488
    63  H    0.031160
    64  H   -0.028685
    65  H    0.006011
    66  H    0.042346
    67  H   -0.001273
    68  H   -0.007959
    69  H    0.073136
    70  H    0.029202
    71  H    0.034944
    72  H    0.023183
    73  H    0.019247
    74  H    0.029681
    75  H   -0.015316
    76  H    0.024670
    77  H    0.047923
    78  H    0.038445
    79  H    0.061369
    80  H    0.227029
    81  H    0.176927
 Sum of Mulliken charges =  -0.00000

 Dipole moment (field-independent basis, Debye):
    X=             -1.3482    Y=             -0.5886    Z=             -0.6796  Tot=              1.6205
 Quadrupole moment (field-independent basis, Debye-Ang):
   XX=           -252.1892   YY=           -243.1016   ZZ=           -254.2580
   XY=             11.8060   XZ=             14.0618   YZ=            -13.7564

 Normal termination of Gaussian 16 at Mon Jul  1 13:14:45 2019.
