 Gaussian 16, Revision A.03,
 Gaussian 16:  ES64L-G16RevA.03 25-Dec-2016

 --------------------------
 # td=(NStates=1) B3LYP/SVP
 --------------------------

 --
 TD
 --
 Symbolic Z-matrix:
 Charge =  0 Multiplicity = 1

                         Standard orientation:
 ---------------------------------------------------------------------
 Center     Atomic      Atomic             Coordinates (Angstroms)
 Number     Number       Type             X           Y           Z
 ---------------------------------------------------------------------
      1          8           0       -4.396237   -4.671242    2.087110
      2          8           0        3.104904   -4.841907    1.359546
      3          8           0        7.167664   -1.186676    1.905571
      4          8           0        3.710824   -3.119270    0.017602
      5          8           0        7.558104   -0.483525   -0.290702
      6          8           0       -3.063239    2.434138   -0.328939
      7          7           0       -0.257654   -0.581572   -0.562032
      8          7           0        1.547550    1.812602   -0.398989
      9          7           0       -3.241344   -3.067851    0.789929
     10          7           0       -0.802219    2.911842   -0.170299
     11          6           0        0.698463   -2.483948   -1.346800
     12          6           0        1.010595   -1.174314   -0.955619
     13          6           0       -0.767149   -2.677727   -1.288967
     14          6           0       -1.280835   -1.504721   -0.783136
     15          6           0        3.772384    1.455843   -0.213430
     16          6           0        2.495591    0.846144   -0.506663
     17          6           0        2.274474   -0.496460   -0.807375
     18          6           0        3.480655    2.777931   -0.038796
     19          6           0        1.722195   -3.474386   -1.857681
     20          6           0       -5.517854   -2.687410    1.195247
     21          6           0       -3.602180   -1.839452    0.119193
     22          6           0        2.046895    2.908487   -0.054560
     23          6           0       -5.032139   -1.610484    0.253297
     24          6           0        5.065285    0.806290   -0.475409
     25          6           0       -2.639698   -1.149873   -0.523832
     26          6           0       -1.354062   -3.972701   -1.781308
     27          6           0       -4.333158   -3.686707    1.375087
     28          6           0        2.102523   -4.562239   -0.751564
     29          6           0        5.488144    0.040261    0.776251
     30          6           0        4.461651    3.815348    0.249243
     31          6           0        1.281961    4.163399    0.163748
     32          6           0       -6.922883   -3.252220    1.120150
     33          6           0       -5.767689   -0.722614   -0.353177
     34          6           0       -0.150144    4.056117    0.268139
     35          6           0       -1.080199    5.179497    0.356984
     36          6           0       -2.376556    4.699624    0.357902
     37          6           0        3.040147   -4.090886    0.220780
     38          6           0       -5.428069    0.151002   -1.421055
     39          6           0        6.854190   -0.589536    0.744075
     40          6           0       -3.649708    5.317341    0.695987
     41          6           0       -2.190458    3.192493   -0.059371
     42          6           0       -0.754718    6.628281    0.798955
     43          6           0       -4.473388    5.676598   -0.665809
     44          1           0       -0.402421    0.171962    0.008766
     45          1           0        3.178016   -1.249417   -0.837408
     46          1           0        2.573239   -3.027250   -2.166135
     47          1           0        1.221607   -3.948940   -2.852462
     48          1           0       -5.414740   -2.101402    2.244120
     49          1           0        4.975619    0.083349   -1.304749
     50          1           0        6.019033    1.597484   -0.740527
     51          1           0       -3.008422   -0.263397   -0.693151
     52          1           0        0.366470    1.901861   -0.375155
     53          1           0       -1.557033   -4.656322   -1.002168
     54          1           0       -2.429955   -3.572086   -1.867295
     55          1           0       -0.824389   -4.249304   -2.576591
     56          1           0       -2.459491   -3.518811    0.939674
     57          1           0        1.285486   -5.007942   -0.170178
     58          1           0        2.460526   -5.445296   -1.365913
     59          1           0        4.879154   -0.759902    0.941806
     60          1           0        5.405777    0.556403    1.631257
     61          1           0        4.238035    4.822169   -0.165417
     62          1           0        5.539502    3.545765   -0.156399
     63          1           0        4.693512    3.993697    1.408243
     64          1           0        1.815896    5.131567    0.299509
     65          1           0       -7.609847   -2.395633    1.032504
     66          1           0       -7.508837   -4.133696    1.769555
     67          1           0       -7.052847   -3.773516    0.088140
     68          1           0       -6.818322   -0.804510   -0.082268
     69          1           0       -4.767587    1.020959   -0.941410
     70          1           0       -6.306852    0.749297   -1.712738
     71          1           0       -4.918754   -0.317504   -2.353914
     72          1           0       -3.530725    6.132533    1.333662
     73          1           0       -4.498721    4.609433    1.331797
     74          1           0       -0.115744    6.554537    1.827456
     75          1           0       -1.522361    7.185992    1.048630
     76          1           0        0.082682    6.912045    0.131150
     77          1           0       -3.880410    6.371090   -1.139858
     78          1           0       -5.455991    6.184167   -0.618315
     79          1           0       -4.755827    4.742295   -1.302137
     80          1           0        3.780968   -4.489392    2.220971
     81          1           0        8.097656   -1.563467    1.692265
 ---------------------------------------------------------------------

 SCF Done:  E(RB3LYP) =  -1949.06355718     A.U. after   16 cycles

 Excitation energies and oscillator strengths:

 Excited State   1:      Singlet-A      2.0740 eV  597.81 nm  f=0.3712  <S**2>=0.000
     156 ->157         0.70372
 This state for optimization and/or second-order correction.
 Total Energy, E(TD-HF/TD-DFT) =  -1948.98734019
 Copying the excited state density for this state as the 1-particle RhoCI density.

 The electronic state is 1-A.
 Alpha  occ. eigenvalues --  -19.20520 -19.19986 -19.14116 -19.12692 -19.10616
 Alpha  occ. eigenvalues --  -19.10233 -14.36474 -14.36111 -14.35294 -14.29428
 Alpha  occ. eigenvalues --  -10.33372 -10.32375 -10.28714 -10.26595 -10.24544
 Alpha  occ. eigenvalues --  -10.23418 -10.23259 -10.23216 -10.23105 -10.23022
 Alpha  occ. eigenvalues --  -10.22221 -10.22098 -10.21778 -10.21230 -10.21048
 Alpha  occ. eigenvalues --  -10.20584 -10.20512 -10.20318 -10.20017 -10.19924
 Alpha  occ. eigenvalues --  -10.19614 -10.19609 -10.19560 -10.19511 -10.19381
 Alpha  occ. eigenvalues --  -10.19102 -10.19055 -10.18953 -10.18710 -10.18606
 Alpha  occ. eigenvalues --  -10.18564 -10.18178 -10.17477  -1.09749  -1.09614
 Alpha  occ. eigenvalues --   -1.02827  -1.02739  -1.01101  -1.00879  -0.99417
 Alpha  occ. eigenvalues --   -0.96267  -0.94957  -0.90422  -0.83264  -0.82951
 Alpha  occ. eigenvalues --   -0.82060  -0.80847  -0.79300  -0.78877  -0.78199
 Alpha  occ. eigenvalues --   -0.77884  -0.76147  -0.75212  -0.74217  -0.72345
 Alpha  occ. eigenvalues --   -0.71070  -0.70269  -0.69281  -0.68198  -0.67674
 Alpha  occ. eigenvalues --   -0.67144  -0.65557  -0.64915  -0.62859  -0.61306
 Alpha  occ. eigenvalues --   -0.59991  -0.59699  -0.58619  -0.57137  -0.56697
 Alpha  occ. eigenvalues --   -0.55905  -0.55366  -0.55096  -0.54014  -0.53060
 Alpha  occ. eigenvalues --   -0.52529  -0.52016  -0.51148  -0.50245  -0.49779
 Alpha  occ. eigenvalues --   -0.49237  -0.49128  -0.49016  -0.48736  -0.48244
 Alpha  occ. eigenvalues --   -0.47334  -0.46773  -0.46336  -0.45764  -0.45553
 Alpha  occ. eigenvalues --   -0.45058  -0.44921  -0.44474  -0.43679  -0.43508
 Alpha  occ. eigenvalues --   -0.43010  -0.42793  -0.42570  -0.42382  -0.42051
 Alpha  occ. eigenvalues --   -0.41963  -0.41555  -0.41251  -0.40938  -0.40700
 Alpha  occ. eigenvalues --   -0.40324  -0.40141  -0.39941  -0.39720  -0.39520
 Alpha  occ. eigenvalues --   -0.39357  -0.39184  -0.38999  -0.38818  -0.38248
 Alpha  occ. eigenvalues --   -0.38162  -0.37786  -0.37487  -0.37241  -0.36777
 Alpha  occ. eigenvalues --   -0.36574  -0.35612  -0.35477  -0.34755  -0.34588
 Alpha  occ. eigenvalues --   -0.34120  -0.33775  -0.33585  -0.33184  -0.32827
 Alpha  occ. eigenvalues --   -0.32756  -0.32432  -0.32105  -0.29833  -0.29717
 Alpha  occ. eigenvalues --   -0.28330  -0.27890  -0.26447  -0.25652  -0.25170
 Alpha  occ. eigenvalues --   -0.24576  -0.24261  -0.23737  -0.22785  -0.21317
 Alpha  occ. eigenvalues --   -0.18395
 Alpha virt. eigenvalues --   -0.09999  -0.05505  -0.03894  -0.02342  -0.01325
 Alpha virt. eigenvalues --   -0.00032   0.00541   0.02280   0.03134   0.03727
 Alpha virt. eigenvalues --    0.03972   0.04478   0.04833   0.05508   0.06097

 Mulliken charges:
               1
     1  O   -0.217625
     2  O   -0.293316
     3  O   -0.193025
     4  O   -0.213199
     5  O   -0.273927
     6  O   -0.165719
     7  N   -0.099392
     8  N   -0.033034
     9  N   -0.097266
    10  N   -0.370957
    11  C   -0.128174
    12  C    0.081475
    13  C   -0.183734
    14  C    0.119879
    15  C   -0.042108
    16  C    0.077908
    17  C   -0.116493
    18  C   -0.110471
    19  C    0.107575
    20  C   -0.069868
    21  C    0.057813
    22  C   -0.004127
    23  C    0.072871
    24  C    0.048697
    25  C   -0.024163
    26  C    0.194243
    27  C    0.109958
    28  C    0.003717
    29  C    0.092884
    30  C    0.007368
    31  C   -0.095513
    32  C   -0.010874
    33  C   -0.180747
    34  C    0.120358
    35  C   -0.132363
    36  C   -0.135780
    37  C    0.166797
    38  C    0.022375
    39  C    0.145241
    40  C    0.019409
    41  C    0.159770
    42  C    0.126331
    43  C   -0.014575
    44  H    0.099614
    45  H    0.071039
    46  H   -0.019589
    47  H    0.029772
    48  H    0.065649
    49  H    0.023541
    50  H    0.055631
    51  H   -0.099703
    52  H    0.215582
    53  H    0.002454
    54  H    0.020618
    55  H   -0.010249
    56  H    0.069617
    57  H    0.031845
    58  H    0.061078
    59  H   -0.004986
    60  H   -0.017188
    61  H    0.023374
    62  H    0.020528
    63  H    0.039483
    64  H   -0.010101
    65  H    0.016703
    66  H    0.064987
    67  H    0.011946
    68  H   -0.021796
    69  H    0.097990
    70  H   -0.000235
    71  H    0.056029
    72  H   -0.010572
    73  H    0.037671
    74  H    0.021685
    75  H   -0.022213
    76  H    0.027043
    77  H   -0.002532
    78  H    0.004688
    79  H    0.047964
    80  H    0.269905
    81  H    0.204514
 Sum of Mulliken charges =  -0.00000

 Dipole moment (field-independent basis, Debye):
    X=              3.0763    Y=             -0.2474    Z=              1.5000  Tot=              3.4314
 Quadrupole moment (field-independent basis, Debye-Ang):
   XX=           -246.2352   YY=           -239.7146   ZZ=           -255.3879
   XY=            -22.0103   XZ=             23.1616   YZ=             13.4837

 Normal termination of Gaussian 16 at Thu Jun 27 03:12:56 2019.
