 Gaussian 16, Revision A.03,
 Gaussian 16:  ES64L-G16RevA.03 25-Dec-2016

 --------------------------
 # td=(NStates=1) B3LYP/SVP
 --------------------------

 --
 TD
 --
 Symbolic Z-matrix:
 Charge =  0 Multiplicity = 1

                         Standard orientation:
 ---------------------------------------------------------------------
 Center     Atomic      Atomic             Coordinates (Angstroms)
 Number     Number       Type             X           Y           Z
 ---------------------------------------------------------------------
      1          8           0       -4.668876   -4.641107    1.789294
      2          8           0        2.775029   -4.749432    1.370946
      3          8           0        7.020511   -1.568063    1.832196
      4          8           0        3.697249   -3.146172    0.055018
      5          8           0        7.681197   -0.581018   -0.091251
      6          8           0       -2.896509    2.559643   -0.180965
      7          7           0       -0.318793   -0.673988   -0.563807
      8          7           0        1.500573    1.769204   -0.387608
      9          7           0       -3.466202   -3.059680    0.622590
     10          7           0       -0.632315    2.897925   -0.156377
     11          6           0        0.537665   -2.513421   -1.318594
     12          6           0        0.924883   -1.177305   -0.962518
     13          6           0       -0.924742   -2.715347   -1.304327
     14          6           0       -1.393622   -1.487080   -0.788431
     15          6           0        3.769010    1.318612   -0.333809
     16          6           0        2.425208    0.762113   -0.473388
     17          6           0        2.187272   -0.554283   -0.863470
     18          6           0        3.721388    2.591867   -0.033061
     19          6           0        1.497270   -3.503417   -1.784657
     20          6           0       -5.578681   -2.513828    1.366811
     21          6           0       -3.689507   -1.707522    0.100477
     22          6           0        2.225581    2.909561   -0.090685
     23          6           0       -5.066210   -1.399914    0.352721
     24          6           0        5.142270    0.598719   -0.390331
     25          6           0       -2.753318   -0.950150   -0.473733
     26          6           0       -1.626382   -3.965861   -1.729433
     27          6           0       -4.538228   -3.525453    1.361236
     28          6           0        1.970800   -4.570370   -0.824406
     29          6           0        5.429133   -0.237790    0.767008
     30          6           0        4.685214    3.601608    0.220520
     31          6           0        1.554415    4.054013    0.127045
     32          6           0       -7.052005   -2.941639    1.095235
     33          6           0       -5.807171   -0.391881   -0.258020
     34          6           0        0.049151    4.034116    0.164436
     35          6           0       -0.822838    5.163782    0.504233
     36          6           0       -2.055415    4.695885    0.283003
     37          6           0        2.948150   -4.023032    0.220654
     38          6           0       -5.287863    0.566835   -1.338853
     39          6           0        6.832660   -0.857181    0.747063
     40          6           0       -3.387683    5.301109    0.539914
     41          6           0       -1.966010    3.261935   -0.002659
     42          6           0       -0.387792    6.637539    0.860966
     43          6           0       -4.439045    5.590696   -0.659203
     44          1           0       -0.476544    0.217048   -0.074923
     45          1           0        2.933649   -1.210118   -1.198177
     46          1           0        2.501659   -2.984830   -1.969354
     47          1           0        1.073580   -4.032589   -2.704276
     48          1           0       -5.855640   -2.090787    2.478960
     49          1           0        5.217683    0.014089   -1.371266
     50          1           0        5.648253    1.478249   -0.445461
     51          1           0       -2.895062    0.124711   -0.779368
     52          1           0        0.517306    1.763686   -0.506192
     53          1           0       -1.998481   -4.541676   -0.705623
     54          1           0       -2.719179   -3.689456   -2.092137
     55          1           0       -0.936615   -4.762413   -2.488492
     56          1           0       -2.589027   -3.664812    0.432834
     57          1           0        1.143727   -5.097678   -0.355714
     58          1           0        2.649554   -5.344843   -1.311983
     59          1           0        4.846752   -1.146808    0.639992
     60          1           0        5.306155    0.325402    1.651255
     61          1           0        4.316554    4.591726   -0.084484
     62          1           0        5.916581    3.556985   -0.517930
     63          1           0        4.807327    3.603305    1.329705
     64          1           0        2.127618    4.926540    0.230013
     65          1           0       -7.725841   -1.926058    1.112529
     66          1           0       -7.258225   -3.754304    1.906328
     67          1           0       -7.106904   -3.348546    0.012886
     68          1           0       -6.823156   -0.041673    0.216307
     69          1           0       -4.629000    1.288722   -0.773497
     70          1           0       -6.041908    1.167333   -1.818918
     71          1           0       -4.714362    0.270444   -2.023659
     72          1           0       -3.180337    6.421031    0.958742
     73          1           0       -3.762189    4.674044    1.326705
     74          1           0        0.343941    6.383227    1.689537
     75          1           0       -1.221420    7.453246    1.130240
     76          1           0        0.353464    6.874018    0.011317
     77          1           0       -3.877126    6.151095   -1.539606
     78          1           0       -5.299465    6.280724   -0.316543
     79          1           0       -5.029565    4.546980   -1.238923
     80          1           0        3.289621   -4.389083    2.185051
     81          1           0        7.953614   -1.929462    1.708171
 ---------------------------------------------------------------------

 SCF Done:  E(RB3LYP) =  -1949.05863163     A.U. after   16 cycles

 Excitation energies and oscillator strengths:

 Excited State   1:      Singlet-A      1.9063 eV  650.40 nm  f=0.3182  <S**2>=0.000
     156 ->157         0.70464
     156 <-157        -0.11314
 This state for optimization and/or second-order correction.
 Total Energy, E(TD-HF/TD-DFT) =  -1948.98857766
 Copying the excited state density for this state as the 1-particle RhoCI density.

 The electronic state is 1-A.
 Alpha  occ. eigenvalues --  -19.19735 -19.18814 -19.14849 -19.12242 -19.11493
 Alpha  occ. eigenvalues --  -19.09784 -14.37150 -14.36332 -14.35680 -14.29646
 Alpha  occ. eigenvalues --  -10.32975 -10.31656 -10.27989 -10.26500 -10.24856
 Alpha  occ. eigenvalues --  -10.24216 -10.23795 -10.23743 -10.23329 -10.23324
 Alpha  occ. eigenvalues --  -10.22790 -10.22646 -10.22483 -10.21884 -10.21320
 Alpha  occ. eigenvalues --  -10.20928 -10.20890 -10.20815 -10.20739 -10.20633
 Alpha  occ. eigenvalues --  -10.20474 -10.20241 -10.20154 -10.20103 -10.19801
 Alpha  occ. eigenvalues --  -10.19793 -10.19458 -10.19086 -10.19083 -10.19032
 Alpha  occ. eigenvalues --  -10.18780 -10.18553 -10.16484  -1.11027  -1.10858
 Alpha  occ. eigenvalues --   -1.04852  -1.03105  -1.02591  -1.00262  -0.98523
 Alpha  occ. eigenvalues --   -0.97148  -0.93181  -0.92938  -0.83990  -0.82016
 Alpha  occ. eigenvalues --   -0.81246  -0.80131  -0.80028  -0.79113  -0.78137
 Alpha  occ. eigenvalues --   -0.76930  -0.76448  -0.74422  -0.73841  -0.72266
 Alpha  occ. eigenvalues --   -0.71363  -0.69256  -0.69043  -0.68056  -0.67432
 Alpha  occ. eigenvalues --   -0.66930  -0.64903  -0.64565  -0.62113  -0.61795
 Alpha  occ. eigenvalues --   -0.60476  -0.59765  -0.58809  -0.57198  -0.55954
 Alpha  occ. eigenvalues --   -0.55285  -0.55045  -0.54336  -0.53603  -0.52914
 Alpha  occ. eigenvalues --   -0.51841  -0.51773  -0.51180  -0.50867  -0.49595
 Alpha  occ. eigenvalues --   -0.49490  -0.48983  -0.48942  -0.48388  -0.47925
 Alpha  occ. eigenvalues --   -0.47614  -0.46593  -0.46241  -0.45486  -0.45414
 Alpha  occ. eigenvalues --   -0.45013  -0.44664  -0.44515  -0.43927  -0.43534
 Alpha  occ. eigenvalues --   -0.43283  -0.43064  -0.42396  -0.42095  -0.42039
 Alpha  occ. eigenvalues --   -0.41683  -0.41427  -0.41207  -0.40932  -0.40895
 Alpha  occ. eigenvalues --   -0.40643  -0.40515  -0.39920  -0.39704  -0.39658
 Alpha  occ. eigenvalues --   -0.39545  -0.38986  -0.38884  -0.38595  -0.38172
 Alpha  occ. eigenvalues --   -0.37871  -0.37360  -0.36936  -0.36733  -0.36598
 Alpha  occ. eigenvalues --   -0.36198  -0.35828  -0.35500  -0.34786  -0.34387
 Alpha  occ. eigenvalues --   -0.34137  -0.33995  -0.33611  -0.32741  -0.32592
 Alpha  occ. eigenvalues --   -0.32490  -0.32385  -0.32324  -0.30231  -0.29763
 Alpha  occ. eigenvalues --   -0.29466  -0.27621  -0.26696  -0.25932  -0.25524
 Alpha  occ. eigenvalues --   -0.24967  -0.24791  -0.23942  -0.23646  -0.21853
 Alpha  occ. eigenvalues --   -0.17817
 Alpha virt. eigenvalues --   -0.10323  -0.05876  -0.03954  -0.00221   0.00104
 Alpha virt. eigenvalues --    0.00946   0.01058   0.01952   0.02625   0.03009
 Alpha virt. eigenvalues --    0.03461   0.03886   0.04101   0.04924   0.05292

 Mulliken charges:
               1
     1  O   -0.206630
     2  O   -0.239735
     3  O   -0.159750
     4  O   -0.160240
     5  O   -0.246040
     6  O   -0.144858
     7  N   -0.098064
     8  N   -0.044190
     9  N   -0.212065
    10  N   -0.309809
    11  C   -0.101695
    12  C    0.041734
    13  C   -0.116198
    14  C    0.032915
    15  C   -0.178048
    16  C    0.128074
    17  C   -0.015549
    18  C   -0.033586
    19  C    0.026572
    20  C   -0.120318
    21  C    0.174265
    22  C    0.098289
    23  C    0.008973
    24  C    0.197359
    25  C   -0.142890
    26  C   -0.038039
    27  C    0.159614
    28  C    0.031310
    29  C    0.060488
    30  C   -0.018175
    31  C   -0.118402
    32  C   -0.036075
    33  C   -0.170954
    34  C    0.076465
    35  C   -0.095513
    36  C   -0.174304
    37  C    0.107264
    38  C    0.114346
    39  C    0.104668
    40  C    0.040479
    41  C    0.135364
    42  C    0.057572
    43  C   -0.101888
    44  H    0.131506
    45  H   -0.036883
    46  H    0.019221
    47  H    0.015150
    48  H    0.061901
    49  H    0.018754
    50  H   -0.056163
    51  H    0.039673
    52  H    0.105484
    53  H    0.028492
    54  H    0.053129
    55  H    0.067681
    56  H    0.156466
    57  H    0.020907
    58  H    0.043096
    59  H    0.036819
    60  H    0.015216
    61  H    0.034583
    62  H    0.068613
    63  H    0.046284
    64  H   -0.066116
    65  H    0.041641
    66  H    0.058561
    67  H    0.025844
    68  H    0.027701
    69  H    0.075738
    70  H   -0.004334
    71  H   -0.040227
    72  H    0.007623
    73  H    0.027821
    74  H    0.028586
    75  H    0.070064
    76  H    0.041051
    77  H    0.034122
    78  H    0.038000
    79  H    0.051317
    80  H    0.208855
    81  H    0.191089
 Sum of Mulliken charges =  -0.00000

 Dipole moment (field-independent basis, Debye):
    X=              3.1725    Y=              2.7906    Z=              1.3438  Tot=              4.4337
 Quadrupole moment (field-independent basis, Debye-Ang):
   XX=           -260.4347   YY=           -239.1077   ZZ=           -253.6183
   XY=            -23.0583   XZ=             18.7447   YZ=             11.4832

 Normal termination of Gaussian 16 at Wed Jul  3 13:46:00 2019.
