 Gaussian 16, Revision A.03,
 Gaussian 16:  ES64L-G16RevA.03 25-Dec-2016

 --------------------------
 # td=(NStates=1) B3LYP/SVP
 --------------------------

 --
 TD
 --
 Symbolic Z-matrix:
 Charge =  0 Multiplicity = 1

                         Standard orientation:
 ---------------------------------------------------------------------
 Center     Atomic      Atomic             Coordinates (Angstroms)
 Number     Number       Type             X           Y           Z
 ---------------------------------------------------------------------
      1          8           0        4.648016   -4.723409   -1.860984
      2          8           0       -2.754179   -4.650311   -1.515815
      3          8           0       -7.052883   -1.778996   -1.562777
      4          8           0       -3.770642   -3.129913   -0.116602
      5          8           0       -7.666728   -0.525819    0.073427
      6          8           0        3.020238    2.560404    0.299881
      7          7           0        0.331860   -0.612704    0.640899
      8          7           0       -1.605759    1.779841    0.304633
      9          7           0        3.563173   -3.143734   -0.531882
     10          7           0        0.720943    2.954150    0.096673
     11          6           0       -0.663127   -2.478270    1.355235
     12          6           0       -0.983714   -1.149239    0.906686
     13          6           0        0.747490   -2.668721    1.432776
     14          6           0        1.320816   -1.517964    0.859775
     15          6           0       -3.888652    1.425297    0.265339
     16          6           0       -2.466223    0.746543    0.422989
     17          6           0       -2.273208   -0.580184    0.771173
     18          6           0       -3.579052    2.724434   -0.178900
     19          6           0       -1.739731   -3.510142    1.901831
     20          6           0        5.573397   -2.555006   -1.450881
     21          6           0        3.677319   -1.876095   -0.109527
     22          6           0       -2.137754    2.919360   -0.124958
     23          6           0        5.110150   -1.474845   -0.353310
     24          6           0       -4.985793    0.664686    0.547577
     25          6           0        2.652777   -1.132384    0.440299
     26          6           0        1.524835   -3.782586    1.968787
     27          6           0        4.584080   -3.559557   -1.314411
     28          6           0       -2.175200   -4.573799    0.853413
     29          6           0       -5.352314   -0.307127   -0.672943
     30          6           0       -4.653052    3.734279   -0.567568
     31          6           0       -1.448086    4.128937   -0.388051
     32          6           0        7.019180   -3.200379   -1.118837
     33          6           0        5.878087   -0.375613    0.052466
     34          6           0       -0.030843    4.020269   -0.204326
     35          6           0        0.912029    5.227856   -0.458934
     36          6           0        2.200891    4.779587   -0.336165
     37          6           0       -2.878282   -3.981599   -0.335475
     38          6           0        5.373115    0.549390    1.146503
     39          6           0       -6.793371   -0.831988   -0.642619
     40          6           0        3.566980    5.386521   -0.432969
     41          6           0        2.079343    3.353531    0.078096
     42          6           0        0.391538    6.595776   -0.685358
     43          6           0        4.152193    5.648021    0.972863
     44          1           0        0.426350    0.305621    0.189737
     45          1           0       -3.312176   -1.176565    1.129338
     46          1           0       -2.459144   -2.772898    2.290017
     47          1           0       -1.106160   -4.031623    2.710165
     48          1           0        5.424616   -2.200021   -2.352334
     49          1           0       -4.674725    0.107148    1.404111
     50          1           0       -5.818794    1.225145    0.470723
     51          1           0        2.919164   -0.059073    0.446628
     52          1           0       -0.548462    1.800018    0.294649
     53          1           0        1.352191   -4.827867    1.461619
     54          1           0        2.678803   -3.575325    2.093521
     55          1           0        0.985935   -4.232755    2.978483
     56          1           0        2.783388   -3.635035   -0.485374
     57          1           0       -1.211120   -5.006493    0.363548
     58          1           0       -2.784834   -5.239862    1.407005
     59          1           0       -4.752021   -1.227356   -0.785597
     60          1           0       -5.243916    0.164933   -1.793550
     61          1           0       -4.766749    4.563726    0.304129
     62          1           0       -5.622226    3.232671   -0.891317
     63          1           0       -4.319335    4.364945   -1.368590
     64          1           0       -1.852652    5.169395   -0.442836
     65          1           0        7.856515   -2.547100   -1.330046
     66          1           0        7.203250   -4.027413   -1.480028
     67          1           0        7.089676   -3.508142   -0.116118
     68          1           0        6.987301   -0.629385   -0.167908
     69          1           0        4.791294    1.381709    0.524662
     70          1           0        6.253575    1.059621    1.434091
     71          1           0        4.823534    0.020101    2.153486
     72          1           0        3.320293    6.243762   -1.053648
     73          1           0        4.247950    4.774835   -0.980032
     74          1           0       -0.523726    6.513027   -1.370583
     75          1           0        1.382443    7.328685   -1.266684
     76          1           0        0.008503    7.075056    0.295415
     77          1           0        3.399093    6.300619    1.528626
     78          1           0        5.370372    5.894008    0.870917
     79          1           0        4.187510    4.697972    1.425200
     80          1           0       -3.314126   -4.287506   -2.186163
     81          1           0       -7.938595   -2.191025   -1.418018
 ---------------------------------------------------------------------

 SCF Done:  E(RB3LYP) =  -1949.03826239     A.U. after   17 cycles

 Excitation energies and oscillator strengths:

 Excited State   1:      Singlet-A      1.8765 eV  660.71 nm  f=0.3603  <S**2>=0.000
     156 ->157         0.70711
     156 <-157        -0.10583
 This state for optimization and/or second-order correction.
 Total Energy, E(TD-HF/TD-DFT) =  -1948.96930166
 Copying the excited state density for this state as the 1-particle RhoCI density.

 The electronic state is 1-A.
 Alpha  occ. eigenvalues --  -19.20657 -19.16854 -19.14395 -19.11940 -19.10789
 Alpha  occ. eigenvalues --  -19.09639 -14.37901 -14.37172 -14.36809 -14.29705
 Alpha  occ. eigenvalues --  -10.34479 -10.31241 -10.28370 -10.26920 -10.24722
 Alpha  occ. eigenvalues --  -10.24649 -10.23861 -10.23622 -10.23574 -10.23565
 Alpha  occ. eigenvalues --  -10.22896 -10.22762 -10.22702 -10.22319 -10.22018
 Alpha  occ. eigenvalues --  -10.21890 -10.21016 -10.21001 -10.20930 -10.20765
 Alpha  occ. eigenvalues --  -10.20606 -10.20409 -10.20329 -10.19965 -10.19952
 Alpha  occ. eigenvalues --  -10.19622 -10.19585 -10.19219 -10.19136 -10.19039
 Alpha  occ. eigenvalues --  -10.18891 -10.18453 -10.16999  -1.10825  -1.10315
 Alpha  occ. eigenvalues --   -1.02652  -1.01298  -1.00349  -1.00341  -0.99380
 Alpha  occ. eigenvalues --   -0.97237  -0.95035  -0.91351  -0.83805  -0.81748
 Alpha  occ. eigenvalues --   -0.81547  -0.81242  -0.79933  -0.78977  -0.78037
 Alpha  occ. eigenvalues --   -0.76952  -0.76443  -0.75168  -0.74319  -0.72445
 Alpha  occ. eigenvalues --   -0.71370  -0.70804  -0.69017  -0.68895  -0.68493
 Alpha  occ. eigenvalues --   -0.67712  -0.65869  -0.64257  -0.63027  -0.62223
 Alpha  occ. eigenvalues --   -0.61515  -0.60940  -0.59981  -0.59356  -0.57215
 Alpha  occ. eigenvalues --   -0.56877  -0.55421  -0.54310  -0.53957  -0.53292
 Alpha  occ. eigenvalues --   -0.52359  -0.51835  -0.51292  -0.50781  -0.49851
 Alpha  occ. eigenvalues --   -0.49360  -0.49332  -0.48833  -0.48424  -0.47204
 Alpha  occ. eigenvalues --   -0.47136  -0.46601  -0.46173  -0.45827  -0.45313
 Alpha  occ. eigenvalues --   -0.44839  -0.44352  -0.44080  -0.43821  -0.43757
 Alpha  occ. eigenvalues --   -0.43262  -0.42955  -0.42563  -0.42219  -0.41996
 Alpha  occ. eigenvalues --   -0.41641  -0.41393  -0.41350  -0.40922  -0.40775
 Alpha  occ. eigenvalues --   -0.40301  -0.40084  -0.39866  -0.39825  -0.39494
 Alpha  occ. eigenvalues --   -0.39380  -0.39145  -0.38912  -0.38477  -0.38229
 Alpha  occ. eigenvalues --   -0.38167  -0.37543  -0.37488  -0.37232  -0.36902
 Alpha  occ. eigenvalues --   -0.36606  -0.36374  -0.36020  -0.35278  -0.34577
 Alpha  occ. eigenvalues --   -0.34376  -0.33917  -0.33530  -0.33312  -0.33063
 Alpha  occ. eigenvalues --   -0.32223  -0.32083  -0.31919  -0.30202  -0.29228
 Alpha  occ. eigenvalues --   -0.27668  -0.27416  -0.26061  -0.25498  -0.24760
 Alpha  occ. eigenvalues --   -0.24707  -0.24536  -0.24429  -0.23630  -0.21901
 Alpha  occ. eigenvalues --   -0.17928
 Alpha virt. eigenvalues --   -0.10393  -0.06142  -0.04702  -0.03807  -0.00524
 Alpha virt. eigenvalues --    0.01290   0.01486   0.02502   0.02806   0.03167
 Alpha virt. eigenvalues --    0.03649   0.04018   0.04256   0.05040   0.05521

 Mulliken charges:
               1
     1  O   -0.295338
     2  O   -0.160986
     3  O   -0.208722
     4  O   -0.266207
     5  O   -0.190935
     6  O   -0.235702
     7  N   -0.114093
     8  N   -0.034347
     9  N    0.048715
    10  N   -0.315277
    11  C   -0.192721
    12  C    0.104619
    13  C   -0.095567
    14  C    0.107392
    15  C   -0.123688
    16  C    0.015767
    17  C   -0.116741
    18  C   -0.155232
    19  C    0.071529
    20  C    0.033770
    21  C    0.014919
    22  C    0.120350
    23  C   -0.064024
    24  C    0.275897
    25  C   -0.104508
    26  C   -0.037286
    27  C    0.064812
    28  C    0.067724
    29  C   -0.111120
    30  C    0.070245
    31  C   -0.142911
    32  C    0.192841
    33  C   -0.135495
    34  C    0.060750
    35  C   -0.093325
    36  C   -0.193906
    37  C    0.163806
    38  C   -0.009096
    39  C    0.101943
    40  C    0.145864
    41  C    0.173062
    42  C   -0.036715
    43  C   -0.013138
    44  H    0.131453
    45  H    0.097807
    46  H    0.030349
    47  H    0.016369
    48  H   -0.000237
    49  H    0.019376
    50  H   -0.039985
    51  H    0.024604
    52  H    0.147696
    53  H    0.026577
    54  H    0.067544
    55  H    0.024764
    56  H    0.072545
    57  H    0.043943
    58  H    0.050927
    59  H    0.049421
    60  H    0.057043
    61  H    0.037919
    62  H    0.038841
    63  H    0.004139
    64  H    0.008140
    65  H    0.010626
    66  H   -0.060123
    67  H   -0.018425
    68  H    0.029016
    69  H    0.104266
    70  H   -0.008285
    71  H    0.072851
    72  H   -0.020546
    73  H   -0.005099
    74  H    0.044420
    75  H    0.053402
    76  H    0.058498
    77  H    0.028389
    78  H    0.029480
    79  H    0.014187
    80  H    0.182903
    81  H    0.188285
 Sum of Mulliken charges =  -0.00000

 Dipole moment (field-independent basis, Debye):
    X=             -2.8491    Y=              0.2864    Z=             -0.3108  Tot=              2.8803
 Quadrupole moment (field-independent basis, Debye-Ang):
   XX=           -258.0823   YY=           -245.0027   ZZ=           -255.5295
   XY=             17.6913   XZ=             15.3125   YZ=            -13.5855

 Normal termination of Gaussian 16 at Fri Jul  5 14:40:15 2019.
