 Gaussian 16, Revision A.03,
 Gaussian 16:  ES64L-G16RevA.03 25-Dec-2016

 --------------------------
 # td=(NStates=1) B3LYP/SVP
 --------------------------

 --
 TD
 --
 Symbolic Z-matrix:
 Charge =  0 Multiplicity = 1

                         Standard orientation:
 ---------------------------------------------------------------------
 Center     Atomic      Atomic             Coordinates (Angstroms)
 Number     Number       Type             X           Y           Z
 ---------------------------------------------------------------------
      1          8           0        4.543672   -4.738534   -1.646670
      2          8           0       -3.100478   -4.971272   -1.242976
      3          8           0       -6.938227   -1.661646   -1.821196
      4          8           0       -3.656069   -2.959619   -0.148190
      5          8           0       -7.497205   -1.054207    0.328562
      6          8           0        2.988496    2.441227   -0.001725
      7          7           0        0.302845   -0.574739    0.507616
      8          7           0       -1.591593    1.691645    0.332033
      9          7           0        3.564153   -3.166419   -0.538542
     10          7           0        0.721992    3.009662    0.004621
     11          6           0       -0.609744   -2.375405    1.356586
     12          6           0       -0.928913   -1.080775    0.876587
     13          6           0        0.708768   -2.569200    1.185296
     14          6           0        1.348311   -1.382169    0.697387
     15          6           0       -3.805521    1.426797    0.269080
     16          6           0       -2.581515    0.748675    0.455271
     17          6           0       -2.274487   -0.575376    0.896661
     18          6           0       -3.598839    2.723837    0.063874
     19          6           0       -1.562453   -3.399759    1.801125
     20          6           0        5.668752   -2.608993   -1.293305
     21          6           0        3.677238   -1.878072   -0.057056
     22          6           0       -2.170722    2.914220   -0.015194
     23          6           0        5.179861   -1.581233   -0.378005
     24          6           0       -5.161405    0.715109    0.463575
     25          6           0        2.691087   -0.978421    0.463618
     26          6           0        1.503165   -3.829378    1.598918
     27          6           0        4.583748   -3.664456   -1.218387
     28          6           0       -1.914834   -4.532737    0.770023
     29          6           0       -5.494165   -0.156828   -0.752982
     30          6           0       -4.543914    3.811122   -0.269713
     31          6           0       -1.396880    4.141234   -0.314668
     32          6           0        6.986384   -3.085001   -0.999242
     33          6           0        5.835386   -0.582388    0.222398
     34          6           0       -0.022221    4.132382   -0.205963
     35          6           0        0.861880    5.249922   -0.526481
     36          6           0        2.116659    4.773946   -0.474676
     37          6           0       -2.958424   -4.084420   -0.225697
     38          6           0        5.437504    0.383916    1.318060
     39          6           0       -6.719112   -0.964903   -0.653036
     40          6           0        3.535773    5.431492   -0.407996
     41          6           0        2.085510    3.267603   -0.076432
     42          6           0        0.281830    6.662884   -0.735306
     43          6           0        3.996274    5.837895    0.929645
     44          1           0        0.581203    0.301538    0.222797
     45          1           0       -2.959432   -1.445014    1.237870
     46          1           0       -2.491115   -3.029646    2.290027
     47          1           0       -1.104601   -3.894856    2.679229
     48          1           0        5.743945   -2.300891   -2.469900
     49          1           0       -5.050678    0.047042    1.334999
     50          1           0       -6.134351    1.369984    0.596067
     51          1           0        3.071207    0.069660    0.530548
     52          1           0       -0.472916    1.623078    0.364171
     53          1           0        1.546355   -4.511590    0.766211
     54          1           0        2.504918   -3.414145    1.750636
     55          1           0        1.131042   -4.266968    2.566455
     56          1           0        2.591402   -3.619056   -0.932662
     57          1           0       -1.137186   -4.768584    0.156480
     58          1           0       -2.427516   -5.461991    1.339639
     59          1           0       -4.748233   -0.959729   -0.897279
     60          1           0       -5.265309    0.516032   -1.683443
     61          1           0       -4.481508    4.485770    0.437386
     62          1           0       -5.602802    3.562056   -0.470948
     63          1           0       -4.343422    4.311976   -1.131640
     64          1           0       -2.044648    5.025881   -0.531922
     65          1           0        7.655144   -2.164087   -1.173809
     66          1           0        7.397537   -3.867516   -1.546096
     67          1           0        7.247726   -3.196870    0.187324
     68          1           0        6.795187   -0.617784   -0.121884
     69          1           0        5.096842    1.259156    0.568050
     70          1           0        6.226375    0.700727    1.866313
     71          1           0        4.730130   -0.016145    1.872647
     72          1           0        3.687378    6.404894   -1.150501
     73          1           0        4.238536    4.881353   -0.935560
     74          1           0       -0.482136    6.487630   -1.498692
     75          1           0        1.154127    7.475098   -1.145869
     76          1           0       -0.055938    7.100377    0.311172
     77          1           0        3.502236    6.628323    1.191903
     78          1           0        5.106050    5.918514    0.781424
     79          1           0        3.982457    4.968470    1.776516
     80          1           0       -3.514558   -4.242790   -1.912767
     81          1           0       -7.906639   -1.877634   -1.691221
 ---------------------------------------------------------------------

 SCF Done:  E(RB3LYP) =  -1949.06323804     A.U. after   17 cycles

 Excitation energies and oscillator strengths:

 Excited State   1:      Singlet-A      1.9136 eV  647.90 nm  f=0.4056  <S**2>=0.000
     156 ->157         0.70831
     156 <-157        -0.12627
 This state for optimization and/or second-order correction.
 Total Energy, E(TD-HF/TD-DFT) =  -1948.99291313
 Copying the excited state density for this state as the 1-particle RhoCI density.

 The electronic state is 1-A.
 Alpha  occ. eigenvalues --  -19.22141 -19.18059 -19.15208 -19.12668 -19.11453
 Alpha  occ. eigenvalues --  -19.09645 -14.38078 -14.38024 -14.36011 -14.27269
 Alpha  occ. eigenvalues --  -10.35298 -10.32141 -10.28638 -10.25889 -10.25550
 Alpha  occ. eigenvalues --  -10.23921 -10.23745 -10.23521 -10.23234 -10.22794
 Alpha  occ. eigenvalues --  -10.22537 -10.21661 -10.21530 -10.21458 -10.20995
 Alpha  occ. eigenvalues --  -10.20439 -10.20392 -10.20303 -10.20290 -10.19708
 Alpha  occ. eigenvalues --  -10.19599 -10.19571 -10.19324 -10.19223 -10.19058
 Alpha  occ. eigenvalues --  -10.19039 -10.18935 -10.18555 -10.18316 -10.18049
 Alpha  occ. eigenvalues --  -10.18029 -10.17426 -10.17037  -1.10350  -1.07984
 Alpha  occ. eigenvalues --   -1.07947  -1.00516  -0.99919  -0.98486  -0.98416
 Alpha  occ. eigenvalues --   -0.96994  -0.96871  -0.90096  -0.83899  -0.83619
 Alpha  occ. eigenvalues --   -0.81698  -0.80791  -0.79181  -0.78874  -0.77883
 Alpha  occ. eigenvalues --   -0.77759  -0.76523  -0.75192  -0.74388  -0.72376
 Alpha  occ. eigenvalues --   -0.71977  -0.70436  -0.69904  -0.68662  -0.67443
 Alpha  occ. eigenvalues --   -0.66591  -0.66312  -0.65161  -0.62500  -0.60648
 Alpha  occ. eigenvalues --   -0.60123  -0.59263  -0.58000  -0.57180  -0.57007
 Alpha  occ. eigenvalues --   -0.56277  -0.55156  -0.54310  -0.54173  -0.52535
 Alpha  occ. eigenvalues --   -0.52188  -0.51690  -0.51039  -0.50869  -0.49800
 Alpha  occ. eigenvalues --   -0.49356  -0.49264  -0.48610  -0.48469  -0.48022
 Alpha  occ. eigenvalues --   -0.47641  -0.46690  -0.46482  -0.45917  -0.45588
 Alpha  occ. eigenvalues --   -0.45178  -0.45123  -0.44420  -0.44289  -0.43556
 Alpha  occ. eigenvalues --   -0.43410  -0.43257  -0.43067  -0.42860  -0.42723
 Alpha  occ. eigenvalues --   -0.42312  -0.42191  -0.41755  -0.41675  -0.41416
 Alpha  occ. eigenvalues --   -0.41103  -0.40581  -0.40487  -0.40134  -0.39742
 Alpha  occ. eigenvalues --   -0.39234  -0.39144  -0.38751  -0.38443  -0.38141
 Alpha  occ. eigenvalues --   -0.37983  -0.37659  -0.37260  -0.37075  -0.36722
 Alpha  occ. eigenvalues --   -0.36488  -0.35906  -0.35717  -0.35247  -0.34849
 Alpha  occ. eigenvalues --   -0.34475  -0.33773  -0.33377  -0.33078  -0.32605
 Alpha  occ. eigenvalues --   -0.32513  -0.31617  -0.30556  -0.30294  -0.29376
 Alpha  occ. eigenvalues --   -0.27994  -0.27420  -0.26397  -0.26202  -0.25963
 Alpha  occ. eigenvalues --   -0.25567  -0.25272  -0.22915  -0.22619  -0.21169
 Alpha  occ. eigenvalues --   -0.17596
 Alpha virt. eigenvalues --   -0.10149  -0.05241  -0.04914  -0.03322  -0.01225
 Alpha virt. eigenvalues --   -0.00931   0.01072   0.01899   0.02975   0.04413
 Alpha virt. eigenvalues --    0.04714   0.05080   0.05359   0.05705   0.06562

 Mulliken charges:
               1
     1  O   -0.143046
     2  O   -0.208473
     3  O   -0.217743
     4  O   -0.321180
     5  O   -0.269244
     6  O   -0.232748
     7  N    0.007306
     8  N   -0.152338
     9  N   -0.122686
    10  N   -0.342152
    11  C   -0.080881
    12  C    0.024748
    13  C   -0.217783
    14  C    0.041519
    15  C   -0.091488
    16  C    0.117847
    17  C   -0.063244
    18  C   -0.140963
    19  C    0.086940
    20  C   -0.019568
    21  C    0.043679
    22  C    0.035022
    23  C   -0.078909
    24  C    0.101625
    25  C   -0.089864
    26  C    0.126810
    27  C    0.042210
    28  C    0.065480
    29  C   -0.057472
    30  C    0.221131
    31  C   -0.120528
    32  C    0.012383
    33  C   -0.133206
    34  C    0.136746
    35  C   -0.076667
    36  C   -0.192644
    37  C    0.167927
    38  C    0.179791
    39  C    0.182954
    40  C    0.049633
    41  C    0.171726
    42  C    0.015055
    43  C    0.056581
    44  H    0.094929
    45  H    0.058791
    46  H    0.015048
    47  H   -0.003031
    48  H    0.064039
    49  H    0.016245
    50  H    0.034537
    51  H    0.041106
    52  H    0.180364
    53  H    0.007792
    54  H    0.021261
    55  H    0.025939
    56  H    0.181976
    57  H    0.010244
    58  H    0.081043
    59  H    0.049501
    60  H    0.051246
    61  H   -0.029391
    62  H    0.002532
    63  H   -0.014001
    64  H   -0.015483
    65  H    0.016761
    66  H    0.015402
    67  H    0.025372
    68  H   -0.060612
    69  H    0.099690
    70  H   -0.012107
    71  H   -0.007962
    72  H   -0.014915
    73  H   -0.024126
    74  H    0.040780
    75  H    0.037864
    76  H    0.054758
    77  H   -0.018977
    78  H    0.010382
    79  H    0.025619
    80  H    0.235414
    81  H    0.187680
 Sum of Mulliken charges =  -0.00000

 Dipole moment (field-independent basis, Debye):
    X=             -0.5869    Y=             -1.2422    Z=             -0.8848  Tot=              1.6342
 Quadrupole moment (field-independent basis, Debye-Ang):
   XX=           -250.8680   YY=           -248.5070   ZZ=           -251.7568
   XY=              4.4428   XZ=             15.3961   YZ=             -6.7742

 Normal termination of Gaussian 16 at Sun Jun 30 10:02:36 2019.
