 Gaussian 16, Revision A.03,
 Gaussian 16:  ES64L-G16RevA.03 25-Dec-2016

 --------------------------
 # td=(NStates=1) B3LYP/SVP
 --------------------------

 --
 TD
 --
 Symbolic Z-matrix:
 Charge =  0 Multiplicity = 1

                         Standard orientation:
 ---------------------------------------------------------------------
 Center     Atomic      Atomic             Coordinates (Angstroms)
 Number     Number       Type             X           Y           Z
 ---------------------------------------------------------------------
      1          8           0       -4.489579   -4.842387    1.704211
      2          8           0        2.917343   -4.695380    1.429844
      3          8           0        7.097746   -1.441696    1.873949
      4          8           0        3.842804   -3.082483    0.133660
      5          8           0        7.488032   -0.644741   -0.240527
      6          8           0       -3.098953    2.500529   -0.349320
      7          7           0       -0.215576   -0.538606   -0.625131
      8          7           0        1.553173    1.763280   -0.314775
      9          7           0       -3.416688   -3.105560    0.553124
     10          7           0       -0.798868    2.916958   -0.254442
     11          6           0        0.703661   -2.462218   -1.360368
     12          6           0        0.946564   -1.096395   -0.944203
     13          6           0       -0.716248   -2.628754   -1.263758
     14          6           0       -1.273401   -1.509769   -0.768472
     15          6           0        3.832065    1.468914   -0.406737
     16          6           0        2.521738    0.839222   -0.472150
     17          6           0        2.189914   -0.463862   -0.830621
     18          6           0        3.518155    2.756378   -0.003109
     19          6           0        1.723539   -3.396358   -1.954010
     20          6           0       -5.577125   -2.574591    1.415869
     21          6           0       -3.640157   -1.856611    0.075008
     22          6           0        2.134696    2.946105    0.071855
     23          6           0       -5.048836   -1.558830    0.377570
     24          6           0        5.134743    0.802242   -0.449836
     25          6           0       -2.564841   -0.968766   -0.359471
     26          6           0       -1.559375   -3.851266   -1.687993
     27          6           0       -4.390709   -3.730518    1.235950
     28          6           0        2.104779   -4.523328   -0.877863
     29          6           0        5.360101   -0.136837    0.790198
     30          6           0        4.597332    3.818778    0.223914
     31          6           0        1.335467    4.025645    0.433065
     32          6           0       -7.017364   -3.098432    1.165583
     33          6           0       -5.700370   -0.524229   -0.150876
     34          6           0       -0.048900    4.056510    0.155278
     35          6           0       -1.035623    5.135313    0.466146
     36          6           0       -2.346372    4.629011    0.364603
     37          6           0        3.021658   -4.020596    0.195225
     38          6           0       -5.452859    0.401670   -1.260573
     39          6           0        6.730940   -0.717721    0.719835
     40          6           0       -3.676856    5.227106    0.512889
     41          6           0       -2.134410    3.176468   -0.092036
     42          6           0       -0.535524    6.423046    0.986782
     43          6           0       -4.357270    5.514503   -0.786939
     44          1           0       -0.128832    0.354806   -0.354169
     45          1           0        3.330507   -0.943780   -1.016404
     46          1           0        2.484143   -2.756896   -2.106189
     47          1           0        1.328722   -3.848179   -2.749157
     48          1           0       -5.485552   -2.070178    2.557680
     49          1           0        5.324350    0.108300   -1.261273
     50          1           0        6.137567    1.357548   -0.396682
     51          1           0       -2.492053    0.258053   -0.178083
     52          1           0        0.453594    1.666664   -0.589602
     53          1           0       -1.870682   -4.805073   -1.179611
     54          1           0       -2.455500   -3.475707   -1.785357
     55          1           0       -1.211367   -4.529830   -2.422010
     56          1           0       -2.459111   -3.535665    0.632013
     57          1           0        1.167773   -5.113290   -0.535246
     58          1           0        2.892772   -5.212853   -1.382540
     59          1           0        4.647118   -0.983040    0.871442
     60          1           0        5.506604    0.493376    1.878535
     61          1           0        4.116232    4.741888   -0.475173
     62          1           0        5.537546    3.422054   -0.378277
     63          1           0        4.726469    4.145315    1.394174
     64          1           0        1.638851    5.030387    0.751478
     65          1           0       -7.760707   -2.488999    1.410025
     66          1           0       -7.093876   -4.098194    1.841902
     67          1           0       -7.137746   -3.430123    0.089808
     68          1           0       -6.752762   -0.541069    0.005095
     69          1           0       -4.808986    1.441755   -0.977410
     70          1           0       -6.362271    0.788814   -1.619226
     71          1           0       -4.839730    0.005498   -2.259619
     72          1           0       -3.591862    6.242773    0.860955
     73          1           0       -4.319196    4.513486    1.159450
     74          1           0        0.243989    6.259754    1.814726
     75          1           0       -1.233265    7.175658    1.365657
     76          1           0       -0.181526    7.156803    0.104785
     77          1           0       -3.759346    6.168663   -1.361264
     78          1           0       -5.465210    5.749201   -0.862057
     79          1           0       -4.319211    4.682526   -1.664259
     80          1           0        3.631700   -4.337645    2.037260
     81          1           0        7.972777   -1.807034    1.728103
 ---------------------------------------------------------------------

 SCF Done:  E(RB3LYP) =  -1949.02495956     A.U. after   17 cycles

 Excitation energies and oscillator strengths:

 Excited State   1:      Singlet-A      1.7594 eV  704.71 nm  f=0.3810  <S**2>=0.000
     156 ->157         0.70760
     156 <-157        -0.12967
 This state for optimization and/or second-order correction.
 Total Energy, E(TD-HF/TD-DFT) =  -1948.96030424
 Copying the excited state density for this state as the 1-particle RhoCI density.

 The electronic state is 1-A.
 Alpha  occ. eigenvalues --  -19.18817 -19.17588 -19.14640 -19.13404 -19.12215
 Alpha  occ. eigenvalues --  -19.09660 -14.38917 -14.37006 -14.36307 -14.28607
 Alpha  occ. eigenvalues --  -10.34565 -10.32541 -10.30115 -10.25668 -10.25573
 Alpha  occ. eigenvalues --  -10.24419 -10.24349 -10.24024 -10.23642 -10.23243
 Alpha  occ. eigenvalues --  -10.23107 -10.22789 -10.22461 -10.22329 -10.22317
 Alpha  occ. eigenvalues --  -10.21318 -10.21294 -10.20983 -10.20929 -10.20896
 Alpha  occ. eigenvalues --  -10.20577 -10.20165 -10.20133 -10.19880 -10.19799
 Alpha  occ. eigenvalues --  -10.19511 -10.19306 -10.19167 -10.18949 -10.18934
 Alpha  occ. eigenvalues --  -10.18710 -10.18613 -10.17753  -1.08375  -1.08014
 Alpha  occ. eigenvalues --   -1.04501  -1.01550  -1.00035  -0.99998  -0.99672
 Alpha  occ. eigenvalues --   -0.98527  -0.97638  -0.89552  -0.83651  -0.82553
 Alpha  occ. eigenvalues --   -0.82091  -0.81201  -0.79888  -0.79153  -0.77759
 Alpha  occ. eigenvalues --   -0.77368  -0.75988  -0.75040  -0.74040  -0.73712
 Alpha  occ. eigenvalues --   -0.71989  -0.70629  -0.69843  -0.68096  -0.67914
 Alpha  occ. eigenvalues --   -0.67317  -0.65640  -0.63620  -0.63006  -0.61208
 Alpha  occ. eigenvalues --   -0.60234  -0.59702  -0.58751  -0.58428  -0.57674
 Alpha  occ. eigenvalues --   -0.56767  -0.55665  -0.55346  -0.53444  -0.53142
 Alpha  occ. eigenvalues --   -0.52668  -0.52213  -0.50537  -0.50447  -0.49517
 Alpha  occ. eigenvalues --   -0.48861  -0.48410  -0.47956  -0.47889  -0.47744
 Alpha  occ. eigenvalues --   -0.47145  -0.46600  -0.46018  -0.45830  -0.45118
 Alpha  occ. eigenvalues --   -0.44830  -0.44543  -0.44347  -0.44225  -0.44011
 Alpha  occ. eigenvalues --   -0.43771  -0.43606  -0.43276  -0.42860  -0.42476
 Alpha  occ. eigenvalues --   -0.42305  -0.42021  -0.41210  -0.40890  -0.40763
 Alpha  occ. eigenvalues --   -0.40077  -0.39986  -0.39809  -0.39508  -0.39327
 Alpha  occ. eigenvalues --   -0.39294  -0.38844  -0.38648  -0.38461  -0.38003
 Alpha  occ. eigenvalues --   -0.37806  -0.37306  -0.36894  -0.36633  -0.36457
 Alpha  occ. eigenvalues --   -0.36082  -0.35861  -0.35761  -0.35535  -0.34942
 Alpha  occ. eigenvalues --   -0.34528  -0.33979  -0.33818  -0.33062  -0.32787
 Alpha  occ. eigenvalues --   -0.32330  -0.32134  -0.30728  -0.30094  -0.29610
 Alpha  occ. eigenvalues --   -0.28525  -0.27119  -0.26811  -0.26618  -0.25772
 Alpha  occ. eigenvalues --   -0.25396  -0.24902  -0.23328  -0.22178  -0.21297
 Alpha  occ. eigenvalues --   -0.17827
 Alpha virt. eigenvalues --   -0.11001  -0.06267  -0.04736  -0.02801  -0.00885
 Alpha virt. eigenvalues --   -0.00725   0.01714   0.02882   0.03258   0.03972
 Alpha virt. eigenvalues --    0.04112   0.04649   0.05021   0.05675   0.06126

 Mulliken charges:
               1
     1  O   -0.196836
     2  O   -0.242504
     3  O   -0.227872
     4  O   -0.257703
     5  O   -0.242564
     6  O   -0.217028
     7  N    0.001944
     8  N   -0.150874
     9  N   -0.076658
    10  N   -0.356490
    11  C   -0.174121
    12  C    0.040497
    13  C   -0.127778
    14  C    0.112977
    15  C    0.053273
    16  C   -0.057117
    17  C   -0.068697
    18  C   -0.140692
    19  C    0.295744
    20  C   -0.147049
    21  C    0.061880
    22  C    0.178046
    23  C   -0.025733
    24  C    0.040579
    25  C   -0.111981
    26  C    0.103885
    27  C    0.121473
    28  C   -0.033110
    29  C   -0.086558
    30  C   -0.027135
    31  C   -0.114052
    32  C    0.056035
    33  C   -0.076839
    34  C    0.063773
    35  C   -0.070429
    36  C   -0.179820
    37  C    0.159800
    38  C   -0.043372
    39  C    0.160532
    40  C    0.154627
    41  C    0.152095
    42  C    0.016805
    43  C   -0.049664
    44  H    0.033424
    45  H    0.065771
    46  H   -0.027401
    47  H   -0.030825
    48  H    0.071733
    49  H    0.022867
    50  H    0.032560
    51  H    0.107174
    52  H    0.204759
    53  H    0.012079
    54  H   -0.017984
    55  H   -0.009242
    56  H    0.157996
    57  H    0.067557
    58  H    0.066587
    59  H    0.078102
    60  H    0.064105
    61  H    0.047457
    62  H    0.052035
    63  H    0.066839
    64  H   -0.021605
    65  H   -0.004781
    66  H    0.044728
    67  H    0.020429
    68  H   -0.017861
    69  H    0.109723
    70  H   -0.007550
    71  H    0.040447
    72  H   -0.012664
    73  H    0.031035
    74  H    0.048715
    75  H   -0.001764
    76  H    0.030065
    77  H   -0.011620
    78  H    0.025046
    79  H    0.010573
    80  H    0.204746
    81  H    0.175454
 Sum of Mulliken charges =  -0.00000

 Dipole moment (field-independent basis, Debye):
    X=              2.8369    Y=             -0.6340    Z=              0.2281  Tot=              2.9158
 Quadrupole moment (field-independent basis, Debye-Ang):
   XX=           -254.5040   YY=           -241.7158   ZZ=           -255.3180
   XY=            -13.9422   XZ=             13.3891   YZ=             15.7620

 Normal termination of Gaussian 16 at Sat Jul  6 00:13:03 2019.
