 Gaussian 16, Revision A.03,
 Gaussian 16:  ES64L-G16RevA.03 25-Dec-2016

 --------------------------
 # td=(NStates=1) B3LYP/SVP
 --------------------------

 --
 TD
 --
 Symbolic Z-matrix:
 Charge =  0 Multiplicity = 1

                         Standard orientation:
 ---------------------------------------------------------------------
 Center     Atomic      Atomic             Coordinates (Angstroms)
 Number     Number       Type             X           Y           Z
 ---------------------------------------------------------------------
      1          8           0        4.474186   -4.802008   -1.719115
      2          8           0       -3.208550   -4.702302   -1.347267
      3          8           0       -7.022115   -1.403962   -1.704116
      4          8           0       -3.988595   -3.017058   -0.021302
      5          8           0       -7.533018   -0.501162    0.312512
      6          8           0        3.134136    2.349183    0.195467
      7          7           0        0.220286   -0.565266    0.446506
      8          7           0       -1.541486    1.771715    0.270848
      9          7           0        3.335048   -3.219366   -0.611983
     10          7           0        0.771825    2.879324    0.080928
     11          6           0       -0.711172   -2.402598    1.398395
     12          6           0       -1.039311   -1.100162    0.888914
     13          6           0        0.615087   -2.615290    1.292197
     14          6           0        1.214659   -1.527082    0.689155
     15          6           0       -3.735537    1.467693    0.267566
     16          6           0       -2.559042    0.852184    0.495952
     17          6           0       -2.289204   -0.524367    0.747787
     18          6           0       -3.445983    2.869709   -0.004465
     19          6           0       -1.737853   -3.470807    1.789579
     20          6           0        5.580587   -2.709620   -1.199359
     21          6           0        3.530631   -2.009623   -0.034076
     22          6           0       -2.085405    3.069510    0.005926
     23          6           0        4.975788   -1.720025   -0.304222
     24          6           0       -5.074490    1.017892    0.373837
     25          6           0        2.543141   -1.135111    0.517176
     26          6           0        1.393564   -3.933055    1.703374
     27          6           0        4.360611   -3.763618   -1.308887
     28          6           0       -2.174327   -4.485963    0.732239
     29          6           0       -5.413358   -0.006131   -0.819604
     30          6           0       -4.326894    4.017886   -0.428670
     31          6           0       -1.187146    4.125155   -0.155290
     32          6           0        6.890484   -3.352053   -1.048588
     33          6           0        5.727048   -0.707771    0.253257
     34          6           0        0.199361    3.990544   -0.238710
     35          6           0        1.215934    5.155277   -0.523432
     36          6           0        2.359829    4.610329   -0.389682
     37          6           0       -3.193438   -3.892214   -0.212033
     38          6           0        5.419964    0.393048    1.224329
     39          6           0       -6.766887   -0.683787   -0.594029
     40          6           0        3.782854    5.255258   -0.491628
     41          6           0        2.229354    3.135223    0.011873
     42          6           0        0.780551    6.520647   -0.852461
     43          6           0        4.369807    5.595646    0.900023
     44          1           0        0.470858    0.360299   -0.039788
     45          1           0       -3.038826   -1.191258    1.065752
     46          1           0       -2.589579   -2.860780    2.128094
     47          1           0       -1.353915   -4.072131    2.504421
     48          1           0        5.384767   -2.265977   -2.236765
     49          1           0       -5.374597    0.605749    1.410534
     50          1           0       -5.799462    1.914089    0.453896
     51          1           0        2.878284   -0.203538    0.693148
     52          1           0       -0.373040    1.951617    0.312422
     53          1           0        1.638664   -4.538444    0.903665
     54          1           0        2.403729   -3.438669    1.795263
     55          1           0        0.909931   -4.356758    2.633922
     56          1           0        2.451138   -3.654713   -0.691073
     57          1           0       -1.366893   -4.698368    0.254488
     58          1           0       -2.563600   -5.473477    1.091558
     59          1           0       -4.763781   -0.877456   -0.795435
     60          1           0       -5.588553    0.638846   -1.685118
     61          1           0       -4.099266    4.926903    0.180024
     62          1           0       -5.311121    3.805426   -0.093127
     63          1           0       -4.028849    4.230026   -1.473545
     64          1           0       -1.568488    5.088134   -0.373003
     65          1           0        7.684353   -2.532351   -1.381595
     66          1           0        7.021773   -4.213750   -1.858338
     67          1           0        7.019655   -3.857474   -0.089931
     68          1           0        6.619778   -0.801860   -0.142788
     69          1           0        4.777526    1.308597    0.825838
     70          1           0        6.144867    0.651918    1.839642
     71          1           0        4.708352   -0.128585    1.752095
     72          1           0        3.927340    6.190779   -0.757523
     73          1           0        4.529571    4.565422   -0.984256
     74          1           0       -0.204890    6.742857   -1.501549
     75          1           0        1.613680    7.144755   -1.308186
     76          1           0        0.510967    6.880749    0.241816
     77          1           0        4.059275    6.407258    1.558073
     78          1           0        5.449393    5.852907    0.841871
     79          1           0        4.483085    4.483492    1.362324
     80          1           0       -3.796654   -4.546910   -2.000464
     81          1           0       -7.908790   -1.704033   -1.588538
 ---------------------------------------------------------------------

 SCF Done:  E(RB3LYP) =  -1949.05967721     A.U. after   17 cycles

 Excitation energies and oscillator strengths:

 Excited State   1:      Singlet-A      1.8601 eV  666.53 nm  f=0.4348  <S**2>=0.000
     156 ->157         0.71245
     156 <-157        -0.14159
 This state for optimization and/or second-order correction.
 Total Energy, E(TD-HF/TD-DFT) =  -1948.99131814
 Copying the excited state density for this state as the 1-particle RhoCI density.

 The electronic state is 1-A.
 Alpha  occ. eigenvalues --  -19.17829 -19.17783 -19.15391 -19.12619 -19.12404
 Alpha  occ. eigenvalues --  -19.12037 -14.37890 -14.37532 -14.31811 -14.30048
 Alpha  occ. eigenvalues --  -10.34127 -10.31099 -10.29221 -10.28302 -10.25518
 Alpha  occ. eigenvalues --  -10.23297 -10.23113 -10.22090 -10.21513 -10.21494
 Alpha  occ. eigenvalues --  -10.20929 -10.20900 -10.20559 -10.20543 -10.20394
 Alpha  occ. eigenvalues --  -10.20223 -10.20098 -10.19952 -10.19867 -10.19697
 Alpha  occ. eigenvalues --  -10.19645 -10.19377 -10.19318 -10.18776 -10.18729
 Alpha  occ. eigenvalues --  -10.18520 -10.18513 -10.18333 -10.18327 -10.18031
 Alpha  occ. eigenvalues --  -10.17739 -10.17073 -10.16433  -1.10451  -1.10017
 Alpha  occ. eigenvalues --   -1.09828  -1.03074  -1.02802  -1.00988  -0.98588
 Alpha  occ. eigenvalues --   -0.96509  -0.94390  -0.92221  -0.83188  -0.82615
 Alpha  occ. eigenvalues --   -0.81361  -0.80781  -0.79921  -0.78910  -0.78357
 Alpha  occ. eigenvalues --   -0.76432  -0.75483  -0.75389  -0.74845  -0.72468
 Alpha  occ. eigenvalues --   -0.71403  -0.70508  -0.69762  -0.68996  -0.67832
 Alpha  occ. eigenvalues --   -0.66143  -0.65820  -0.65388  -0.63124  -0.61749
 Alpha  occ. eigenvalues --   -0.60746  -0.59606  -0.58866  -0.58550  -0.57121
 Alpha  occ. eigenvalues --   -0.55734  -0.55400  -0.54383  -0.53862  -0.53380
 Alpha  occ. eigenvalues --   -0.52389  -0.51523  -0.50403  -0.50019  -0.49783
 Alpha  occ. eigenvalues --   -0.49221  -0.49087  -0.48439  -0.48140  -0.48088
 Alpha  occ. eigenvalues --   -0.47673  -0.46852  -0.46662  -0.46564  -0.45962
 Alpha  occ. eigenvalues --   -0.45349  -0.45262  -0.44712  -0.44289  -0.44225
 Alpha  occ. eigenvalues --   -0.43937  -0.43247  -0.43042  -0.42688  -0.42105
 Alpha  occ. eigenvalues --   -0.42005  -0.41579  -0.41323  -0.41200  -0.40900
 Alpha  occ. eigenvalues --   -0.40748  -0.40649  -0.40558  -0.40047  -0.39769
 Alpha  occ. eigenvalues --   -0.39646  -0.39580  -0.38876  -0.38707  -0.38310
 Alpha  occ. eigenvalues --   -0.37991  -0.37684  -0.37410  -0.37197  -0.36766
 Alpha  occ. eigenvalues --   -0.36497  -0.35847  -0.35789  -0.35530  -0.35025
 Alpha  occ. eigenvalues --   -0.34438  -0.34254  -0.33808  -0.33550  -0.32856
 Alpha  occ. eigenvalues --   -0.32669  -0.32197  -0.30779  -0.30567  -0.29630
 Alpha  occ. eigenvalues --   -0.28658  -0.27556  -0.27192  -0.26222  -0.25986
 Alpha  occ. eigenvalues --   -0.25128  -0.24927  -0.24171  -0.21715  -0.21408
 Alpha  occ. eigenvalues --   -0.17116
 Alpha virt. eigenvalues --   -0.10106  -0.05221  -0.03745  -0.02101   0.01245
 Alpha virt. eigenvalues --    0.01579   0.02767   0.03730   0.04633   0.05200
 Alpha virt. eigenvalues --    0.05413   0.05608   0.05884   0.06356   0.06786

 Mulliken charges:
               1
     1  O   -0.092662
     2  O   -0.189575
     3  O   -0.165587
     4  O   -0.189079
     5  O   -0.215675
     6  O   -0.192345
     7  N   -0.166489
     8  N   -0.273960
     9  N   -0.056527
    10  N   -0.321364
    11  C   -0.123566
    12  C    0.092500
    13  C   -0.163543
    14  C    0.108731
    15  C   -0.013421
    16  C    0.132977
    17  C   -0.043626
    18  C   -0.177169
    19  C    0.167519
    20  C   -0.065823
    21  C    0.027710
    22  C    0.113614
    23  C   -0.106215
    24  C   -0.005012
    25  C   -0.025023
    26  C    0.116067
    27  C    0.022626
    28  C    0.117444
    29  C    0.023707
    30  C    0.140839
    31  C   -0.082441
    32  C    0.040160
    33  C   -0.064357
    34  C    0.038827
    35  C   -0.035452
    36  C   -0.170953
    37  C    0.134811
    38  C    0.151097
    39  C    0.103118
    40  C    0.150615
    41  C    0.209898
    42  C    0.001741
    43  C   -0.094386
    44  H    0.169333
    45  H   -0.023063
    46  H    0.016250
    47  H   -0.048167
    48  H    0.038410
    49  H    0.028951
    50  H    0.006232
    51  H   -0.064350
    52  H    0.207504
    53  H   -0.005096
    54  H    0.023650
    55  H    0.048457
    56  H    0.113117
    57  H   -0.042227
    58  H    0.055456
    59  H    0.058037
    60  H    0.042893
    61  H    0.008971
    62  H   -0.013370
    63  H    0.037036
    64  H   -0.069594
    65  H    0.040427
    66  H    0.042041
    67  H    0.025362
    68  H   -0.085679
    69  H    0.105017
    70  H   -0.028736
    71  H   -0.014677
    72  H   -0.045312
    73  H    0.019051
    74  H    0.054999
    75  H    0.037295
    76  H    0.052275
    77  H    0.025532
    78  H   -0.000948
    79  H    0.031316
    80  H    0.141658
    81  H    0.152197
 Sum of Mulliken charges =  -0.00000

 Dipole moment (field-independent basis, Debye):
    X=             -0.4944    Y=             -1.2521    Z=             -1.5989  Tot=              2.0901
 Quadrupole moment (field-independent basis, Debye-Ang):
   XX=           -254.4177   YY=           -228.1876   ZZ=           -253.6393
   XY=             16.6124   XZ=             14.4042   YZ=             -8.4019

 Normal termination of Gaussian 16 at Tue Jul  2 10:16:06 2019.
