 Gaussian 16, Revision A.03,
 Gaussian 16:  ES64L-G16RevA.03 25-Dec-2016

 --------------------------
 # td=(NStates=1) B3LYP/SVP
 --------------------------

 --
 TD
 --
 Symbolic Z-matrix:
 Charge =  0 Multiplicity = 1

                         Standard orientation:
 ---------------------------------------------------------------------
 Center     Atomic      Atomic             Coordinates (Angstroms)
 Number     Number       Type             X           Y           Z
 ---------------------------------------------------------------------
      1          8           0        4.695013   -4.478419   -2.012854
      2          8           0       -2.681957   -5.064393   -1.148882
      3          8           0       -6.975703   -1.905356   -1.893138
      4          8           0       -3.571496   -3.382831    0.033239
      5          8           0       -7.704348   -0.661006   -0.000162
      6          8           0        2.805876    2.546774    0.121705
      7          7           0        0.425463   -0.580487    0.576118
      8          7           0       -1.637135    1.753138    0.311438
      9          7           0        3.672874   -3.033523   -0.588395
     10          7           0        0.603670    2.937123    0.051377
     11          6           0       -0.536984   -2.459561    1.383560
     12          6           0       -0.850529   -1.122723    0.855403
     13          6           0        0.869149   -2.690339    1.239729
     14          6           0        1.400931   -1.451387    0.670835
     15          6           0       -3.867962    1.326448    0.315446
     16          6           0       -2.536538    0.732609    0.522446
     17          6           0       -2.189889   -0.563960    0.847928
     18          6           0       -3.710572    2.608302    0.024063
     19          6           0       -1.429161   -3.532909    1.892367
     20          6           0        5.691661   -2.298536   -1.331233
     21          6           0        3.730004   -1.732459   -0.106163
     22          6           0       -2.277443    2.916233   -0.089184
     23          6           0        5.235979   -1.345885   -0.402587
     24          6           0       -5.218305    0.577391    0.406300
     25          6           0        2.721587   -0.987592    0.400751
     26          6           0        1.682302   -3.858076    1.780318
     27          6           0        4.667900   -3.476294   -1.347735
     28          6           0       -1.694936   -4.675806    0.904272
     29          6           0       -5.379277   -0.486561   -0.766483
     30          6           0       -4.754181    3.612949   -0.366822
     31          6           0       -1.526330    4.026694   -0.248890
     32          6           0        7.093276   -2.877048   -1.050090
     33          6           0        5.895589   -0.335899    0.230985
     34          6           0       -0.129104    4.046521   -0.194882
     35          6           0        0.726044    5.337364   -0.379659
     36          6           0        1.962050    4.845713   -0.302161
     37          6           0       -2.690211   -4.242100   -0.052567
     38          6           0        5.299778    0.653161    1.229794
     39          6           0       -6.771786   -1.020803   -0.786575
     40          6           0        3.339777    5.494719   -0.504467
     41          6           0        1.896886    3.335949   -0.041744
     42          6           0        0.158605    6.651128   -0.649427
     43          6           0        3.819528    5.882382    0.874433
     44          1           0        0.515506    0.137509   -0.237703
     45          1           0       -2.991551   -1.231634    1.124838
     46          1           0       -2.315091   -3.014207    2.374919
     47          1           0       -0.957636   -4.013408    2.727602
     48          1           0        5.637776   -1.872519   -2.428878
     49          1           0       -5.256216   -0.075514    1.220781
     50          1           0       -6.109844    1.182729    0.418969
     51          1           0        2.991577    0.187214    0.435938
     52          1           0       -0.641291    1.794313    0.463752
     53          1           0        1.730571   -4.669702    1.166580
     54          1           0        2.882412   -3.561330    1.924245
     55          1           0        1.340226   -4.475776    2.755337
     56          1           0        2.832512   -3.535980   -0.503746
     57          1           0       -0.608899   -4.979629    0.500983
     58          1           0       -2.167653   -5.442760    1.487265
     59          1           0       -4.561111   -1.395670   -0.874841
     60          1           0       -5.042453    0.041244   -1.654968
     61          1           0       -4.878411    4.408561    0.383248
     62          1           0       -5.781511    3.039207   -0.289649
     63          1           0       -4.545302    4.143692   -1.302802
     64          1           0       -2.127402    5.070191   -0.412650
     65          1           0        7.813706   -2.228301   -1.331080
     66          1           0        7.603456   -3.852932   -1.527141
     67          1           0        7.035122   -3.164631    0.131582
     68          1           0        6.893359   -0.169256   -0.096696
     69          1           0        4.608590    1.679807    0.702804
     70          1           0        6.003897    1.185313    1.997902
     71          1           0        4.556192    0.153112    1.739106
     72          1           0        3.303478    6.506589   -1.152076
     73          1           0        4.001601    4.966701   -1.162926
     74          1           0       -0.711120    6.709216   -1.428071
     75          1           0        0.846329    7.399669   -0.872874
     76          1           0       -0.544096    6.828372    0.298527
     77          1           0        3.370142    6.487812    1.684795
     78          1           0        4.796894    6.413846    0.777029
     79          1           0        4.035573    4.877798    1.216549
     80          1           0       -3.456918   -4.635940   -1.596004
     81          1           0       -7.862623   -2.203376   -1.661440
 ---------------------------------------------------------------------

 SCF Done:  E(RB3LYP) =  -1949.11612583     A.U. after   16 cycles

 Excitation energies and oscillator strengths:

 Excited State   1:      Singlet-A      1.9768 eV  627.19 nm  f=0.3960  <S**2>=0.000
     156 ->157         0.70711
     156 <-157        -0.11267
 This state for optimization and/or second-order correction.
 Total Energy, E(TD-HF/TD-DFT) =  -1949.04347918
 Copying the excited state density for this state as the 1-particle RhoCI density.

 The electronic state is 1-A.
 Alpha  occ. eigenvalues --  -19.19368 -19.18511 -19.15173 -19.14231 -19.10663
 Alpha  occ. eigenvalues --  -19.10594 -14.38723 -14.37134 -14.35480 -14.29093
 Alpha  occ. eigenvalues --  -10.33974 -10.33574 -10.28628 -10.26571 -10.24671
 Alpha  occ. eigenvalues --  -10.24012 -10.23913 -10.23902 -10.23528 -10.23388
 Alpha  occ. eigenvalues --  -10.23049 -10.21926 -10.21768 -10.21637 -10.20903
 Alpha  occ. eigenvalues --  -10.20860 -10.20770 -10.20706 -10.20698 -10.20624
 Alpha  occ. eigenvalues --  -10.20406 -10.20387 -10.20354 -10.20060 -10.20058
 Alpha  occ. eigenvalues --  -10.19961 -10.19761 -10.19572 -10.19536 -10.19490
 Alpha  occ. eigenvalues --  -10.19182 -10.18920 -10.17670  -1.11141  -1.07282
 Alpha  occ. eigenvalues --   -1.04320  -1.02362  -1.01209  -0.99195  -0.99185
 Alpha  occ. eigenvalues --   -0.97892  -0.96535  -0.92108  -0.83564  -0.82388
 Alpha  occ. eigenvalues --   -0.82249  -0.81342  -0.80290  -0.79191  -0.78451
 Alpha  occ. eigenvalues --   -0.77614  -0.76579  -0.75651  -0.74051  -0.72373
 Alpha  occ. eigenvalues --   -0.71143  -0.69655  -0.69207  -0.68625  -0.68068
 Alpha  occ. eigenvalues --   -0.67950  -0.65680  -0.64553  -0.62369  -0.61379
 Alpha  occ. eigenvalues --   -0.59826  -0.59382  -0.58405  -0.57960  -0.56886
 Alpha  occ. eigenvalues --   -0.55982  -0.55828  -0.54649  -0.54202  -0.53686
 Alpha  occ. eigenvalues --   -0.52813  -0.52281  -0.51740  -0.50697  -0.50413
 Alpha  occ. eigenvalues --   -0.50170  -0.49562  -0.48764  -0.48459  -0.48380
 Alpha  occ. eigenvalues --   -0.47605  -0.46703  -0.46444  -0.46010  -0.45490
 Alpha  occ. eigenvalues --   -0.44974  -0.44593  -0.44387  -0.43664  -0.43181
 Alpha  occ. eigenvalues --   -0.43153  -0.42977  -0.42834  -0.42630  -0.42504
 Alpha  occ. eigenvalues --   -0.42219  -0.41690  -0.41519  -0.41131  -0.41004
 Alpha  occ. eigenvalues --   -0.40675  -0.40355  -0.40132  -0.39919  -0.39664
 Alpha  occ. eigenvalues --   -0.39357  -0.39189  -0.39046  -0.38781  -0.38300
 Alpha  occ. eigenvalues --   -0.38066  -0.37900  -0.37678  -0.37333  -0.37113
 Alpha  occ. eigenvalues --   -0.37006  -0.35849  -0.35560  -0.34755  -0.34541
 Alpha  occ. eigenvalues --   -0.34040  -0.33608  -0.33423  -0.32958  -0.32732
 Alpha  occ. eigenvalues --   -0.32368  -0.32358  -0.31289  -0.30755  -0.29978
 Alpha  occ. eigenvalues --   -0.29157  -0.28144  -0.26588  -0.26326  -0.26178
 Alpha  occ. eigenvalues --   -0.25846  -0.24950  -0.24458  -0.23864  -0.22224
 Alpha  occ. eigenvalues --   -0.17939
 Alpha virt. eigenvalues --   -0.10172  -0.05432  -0.03613  -0.03013  -0.02577
 Alpha virt. eigenvalues --    0.00174   0.01402   0.02434   0.03181   0.03618
 Alpha virt. eigenvalues --    0.04348   0.04623   0.05432   0.05603   0.06421

 Mulliken charges:
               1
     1  O   -0.196834
     2  O   -0.189104
     3  O   -0.220709
     4  O   -0.252248
     5  O   -0.275177
     6  O   -0.198278
     7  N   -0.060247
     8  N   -0.091807
     9  N   -0.041331
    10  N   -0.257377
    11  C   -0.148468
    12  C    0.058077
    13  C   -0.101735
    14  C    0.033735
    15  C   -0.069058
    16  C    0.081105
    17  C   -0.058400
    18  C   -0.123936
    19  C    0.094689
    20  C   -0.072858
    21  C    0.038093
    22  C    0.103696
    23  C   -0.013335
    24  C    0.168859
    25  C   -0.162256
    26  C   -0.001526
    27  C    0.092446
    28  C    0.046981
    29  C   -0.107200
    30  C    0.082656
    31  C   -0.173763
    32  C    0.008695
    33  C   -0.076419
    34  C    0.063002
    35  C   -0.038416
    36  C   -0.213949
    37  C    0.139752
    38  C   -0.046103
    39  C    0.217925
    40  C    0.057619
    41  C    0.145714
    42  C    0.084671
    43  C   -0.000380
    44  H    0.184612
    45  H   -0.001317
    46  H    0.021035
    47  H   -0.017003
    48  H    0.060131
    49  H   -0.003749
    50  H    0.019276
    51  H    0.087822
    52  H    0.118028
    53  H    0.000240
    54  H    0.059725
    55  H    0.036890
    56  H    0.100684
    57  H    0.077083
    58  H    0.046843
    59  H    0.091737
    60  H    0.040078
    61  H    0.015769
    62  H    0.023974
    63  H    0.032148
    64  H    0.003298
    65  H   -0.007388
    66  H    0.040550
    67  H    0.032179
    68  H   -0.026749
    69  H    0.117477
    70  H    0.027853
    71  H    0.011165
    72  H   -0.009371
    73  H    0.016357
    74  H    0.032886
    75  H    0.010794
    76  H    0.035938
    77  H    0.028348
    78  H   -0.002087
    79  H    0.016108
    80  H    0.180089
    81  H    0.171748
 Sum of Mulliken charges =  -0.00000

 Dipole moment (field-independent basis, Debye):
    X=             -2.3190    Y=              0.8927    Z=              0.3776  Tot=              2.5134
 Quadrupole moment (field-independent basis, Debye-Ang):
   XX=           -265.4341   YY=           -234.3045   ZZ=           -258.2610
   XY=             14.8182   XZ=             10.7801   YZ=            -17.8412

 Normal termination of Gaussian 16 at Wed Jul  3 08:22:53 2019.
