 Gaussian 16, Revision A.03,
 Gaussian 16:  ES64L-G16RevA.03 25-Dec-2016

 --------------------------
 # td=(NStates=1) B3LYP/SVP
 --------------------------

 --
 TD
 --
 Symbolic Z-matrix:
 Charge =  0 Multiplicity = 1

                         Standard orientation:
 ---------------------------------------------------------------------
 Center     Atomic      Atomic             Coordinates (Angstroms)
 Number     Number       Type             X           Y           Z
 ---------------------------------------------------------------------
      1          8           0       -4.633101   -4.623659    1.925211
      2          8           0        2.570806   -4.855362    1.390180
      3          8           0        7.063744   -1.641861    1.772009
      4          8           0        3.558672   -3.238221    0.224931
      5          8           0        7.720734   -0.664744   -0.135784
      6          8           0       -3.056185    2.727808   -0.421287
      7          7           0       -0.231189   -0.612349   -0.597544
      8          7           0        1.619663    1.784426   -0.397795
      9          7           0       -3.470924   -3.006528    0.789523
     10          7           0       -0.715672    2.961098   -0.149525
     11          6           0        0.599511   -2.507275   -1.358279
     12          6           0        0.916684   -1.201214   -1.001926
     13          6           0       -0.765994   -2.705284   -1.197588
     14          6           0       -1.204481   -1.433726   -0.729178
     15          6           0        3.826921    1.344074   -0.511673
     16          6           0        2.518184    0.762473   -0.854521
     17          6           0        2.146548   -0.596413   -1.054535
     18          6           0        3.651163    2.661726   -0.011683
     19          6           0        1.479044   -3.537619   -1.831641
     20          6           0       -5.666288   -2.452007    1.298281
     21          6           0       -3.660755   -1.710662    0.139058
     22          6           0        2.243661    2.936779    0.090790
     23          6           0       -5.111745   -1.383443    0.402966
     24          6           0        5.145727    0.609979   -0.509927
     25          6           0       -2.678389   -1.020200   -0.440849
     26          6           0       -1.588981   -3.834069   -1.642181
     27          6           0       -4.553746   -3.582918    1.378278
     28          6           0        1.922103   -4.644820   -0.835097
     29          6           0        5.345085   -0.346577    0.712489
     30          6           0        4.730776    3.544589    0.481757
     31          6           0        1.395513    4.041200    0.355180
     32          6           0       -7.044567   -3.094851    0.930239
     33          6           0       -5.751553   -0.484758   -0.208300
     34          6           0        0.002008    4.004442    0.297622
     35          6           0       -0.835213    5.266577    0.503245
     36          6           0       -2.020709    4.903117    0.238238
     37          6           0        2.783770   -4.133813    0.251955
     38          6           0       -5.299787    0.489412   -1.233187
     39          6           0        6.808468   -0.834214    0.739909
     40          6           0       -3.377394    5.552367    0.448975
     41          6           0       -2.046748    3.359066   -0.176271
     42          6           0       -0.315557    6.523493    1.108987
     43          6           0       -4.079705    5.768137   -0.861697
     44          1           0       -0.534590    0.438692   -0.354664
     45          1           0        2.984663   -1.068709   -1.116418
     46          1           0        2.366892   -3.081633   -2.244887
     47          1           0        0.874642   -4.239889   -2.522363
     48          1           0       -6.060599   -2.170975    2.337024
     49          1           0        5.248681    0.019701   -1.397156
     50          1           0        6.062964    1.282123   -0.347768
     51          1           0       -3.013595    0.011235   -0.506738
     52          1           0        0.473798    1.866405   -0.450852
     53          1           0       -1.860815   -4.660666   -0.885200
     54          1           0       -2.550473   -3.587494   -2.148701
     55          1           0       -1.125425   -4.312972   -2.598470
     56          1           0       -2.570778   -3.468439    0.771673
     57          1           0        1.065013   -5.412166   -0.623312
     58          1           0        2.559057   -5.295448   -1.515121
     59          1           0        4.556824   -1.347649    0.637240
     60          1           0        5.330455    0.134152    1.597924
     61          1           0        4.891119    4.385006   -0.202149
     62          1           0        5.682242    3.263491    0.472475
     63          1           0        4.685110    4.070488    1.386880
     64          1           0        1.851901    4.927798    0.834635
     65          1           0       -7.928876   -2.505680    0.917634
     66          1           0       -7.457607   -3.777544    1.576816
     67          1           0       -6.950056   -3.470829    0.039164
     68          1           0       -6.752105   -0.090984   -0.038675
     69          1           0       -4.594943    1.176388   -0.711896
     70          1           0       -6.201202    0.915682   -1.752212
     71          1           0       -4.609337   -0.091137   -1.910288
     72          1           0       -3.333549    6.499524    1.167700
     73          1           0       -4.098149    4.942419    0.998688
     74          1           0       -0.142282    6.312244    2.247740
     75          1           0       -0.979237    7.393475    0.924237
     76          1           0        0.629769    6.977057    0.373029
     77          1           0       -3.511859    6.321709   -1.808186
     78          1           0       -5.050105    6.308399   -0.821107
     79          1           0       -4.237110    4.691593   -1.128786
     80          1           0        3.066118   -4.336686    2.039769
     81          1           0        7.941609   -2.118323    1.690998
 ---------------------------------------------------------------------

 SCF Done:  E(RB3LYP) =  -1949.08917133     A.U. after   16 cycles

 Excitation energies and oscillator strengths:

 Excited State   1:      Singlet-A      2.1081 eV  588.13 nm  f=0.4418  <S**2>=0.000
     156 ->157         0.70756
     156 <-157        -0.11274
 This state for optimization and/or second-order correction.
 Total Energy, E(TD-HF/TD-DFT) =  -1949.01170033
 Copying the excited state density for this state as the 1-particle RhoCI density.

 The electronic state is 1-A.
 Alpha  occ. eigenvalues --  -19.19287 -19.18581 -19.15595 -19.11826 -19.11269
 Alpha  occ. eigenvalues --  -19.11058 -14.40002 -14.36787 -14.34983 -14.30322
 Alpha  occ. eigenvalues --  -10.34008 -10.32318 -10.28929 -10.27400 -10.25220
 Alpha  occ. eigenvalues --  -10.25114 -10.24108 -10.23846 -10.23492 -10.23125
 Alpha  occ. eigenvalues --  -10.23088 -10.21611 -10.21590 -10.21511 -10.21469
 Alpha  occ. eigenvalues --  -10.21353 -10.21208 -10.20568 -10.20408 -10.20388
 Alpha  occ. eigenvalues --  -10.20150 -10.20092 -10.19981 -10.19516 -10.19053
 Alpha  occ. eigenvalues --  -10.18733 -10.18674 -10.18535 -10.18005 -10.17929
 Alpha  occ. eigenvalues --  -10.17915 -10.17795 -10.16151  -1.12478  -1.08724
 Alpha  occ. eigenvalues --   -1.04972  -1.03439  -1.02787  -1.02207  -0.97059
 Alpha  occ. eigenvalues --   -0.95110  -0.94568  -0.92237  -0.84779  -0.82719
 Alpha  occ. eigenvalues --   -0.82216  -0.81115  -0.80110  -0.79385  -0.78644
 Alpha  occ. eigenvalues --   -0.77390  -0.76825  -0.75564  -0.74790  -0.73197
 Alpha  occ. eigenvalues --   -0.71923  -0.70442  -0.69906  -0.69278  -0.68299
 Alpha  occ. eigenvalues --   -0.67402  -0.65756  -0.64989  -0.62108  -0.61560
 Alpha  occ. eigenvalues --   -0.60430  -0.59767  -0.59098  -0.58643  -0.58197
 Alpha  occ. eigenvalues --   -0.56401  -0.55887  -0.54498  -0.53807  -0.53425
 Alpha  occ. eigenvalues --   -0.53335  -0.52398  -0.51921  -0.51335  -0.50017
 Alpha  occ. eigenvalues --   -0.49192  -0.49157  -0.48687  -0.48042  -0.47481
 Alpha  occ. eigenvalues --   -0.47231  -0.47118  -0.46861  -0.46634  -0.45597
 Alpha  occ. eigenvalues --   -0.45157  -0.45020  -0.44497  -0.44305  -0.44166
 Alpha  occ. eigenvalues --   -0.43926  -0.43659  -0.43323  -0.42958  -0.42905
 Alpha  occ. eigenvalues --   -0.42716  -0.42362  -0.41506  -0.41416  -0.41025
 Alpha  occ. eigenvalues --   -0.40975  -0.40733  -0.40456  -0.40357  -0.39917
 Alpha  occ. eigenvalues --   -0.39636  -0.39219  -0.39091  -0.38980  -0.38574
 Alpha  occ. eigenvalues --   -0.38050  -0.37616  -0.37542  -0.37253  -0.36175
 Alpha  occ. eigenvalues --   -0.35915  -0.35741  -0.35467  -0.35133  -0.34926
 Alpha  occ. eigenvalues --   -0.34621  -0.33955  -0.33877  -0.33558  -0.32832
 Alpha  occ. eigenvalues --   -0.31889  -0.31429  -0.31187  -0.30956  -0.30580
 Alpha  occ. eigenvalues --   -0.28897  -0.27071  -0.26829  -0.26552  -0.26183
 Alpha  occ. eigenvalues --   -0.25687  -0.24847  -0.24351  -0.23794  -0.22836
 Alpha  occ. eigenvalues --   -0.18785
 Alpha virt. eigenvalues --   -0.10537  -0.04889  -0.03270  -0.02197  -0.00947
 Alpha virt. eigenvalues --    0.00861   0.01647   0.02684   0.03870   0.04072
 Alpha virt. eigenvalues --    0.04423   0.04563   0.04868   0.05225   0.05663

 Mulliken charges:
               1
     1  O   -0.168734
     2  O   -0.181215
     3  O   -0.190819
     4  O   -0.187729
     5  O   -0.297237
     6  O   -0.210270
     7  N   -0.000327
     8  N   -0.259224
     9  N   -0.151101
    10  N   -0.315955
    11  C   -0.065409
    12  C    0.155310
    13  C   -0.110685
    14  C   -0.009686
    15  C   -0.081896
    16  C    0.069627
    17  C    0.004553
    18  C   -0.094648
    19  C    0.079419
    20  C   -0.135850
    21  C    0.085751
    22  C    0.119799
    23  C    0.179005
    24  C    0.078664
    25  C   -0.079368
    26  C   -0.000878
    27  C    0.135114
    28  C   -0.020244
    29  C   -0.037444
    30  C    0.188882
    31  C   -0.109142
    32  C    0.139857
    33  C   -0.249073
    34  C    0.065283
    35  C   -0.089838
    36  C   -0.147776
    37  C    0.139026
    38  C    0.014984
    39  C    0.144278
    40  C    0.079127
    41  C    0.183253
    42  C    0.016057
    43  C   -0.082298
    44  H    0.198785
    45  H   -0.106378
    46  H    0.008906
    47  H    0.011244
    48  H    0.044287
    49  H    0.014366
    50  H    0.034748
    51  H   -0.010005
    52  H    0.196263
    53  H    0.044314
    54  H    0.031046
    55  H    0.022598
    56  H    0.118445
    57  H    0.052988
    58  H    0.053098
    59  H    0.120301
    60  H   -0.003828
    61  H   -0.005359
    62  H   -0.060112
    63  H   -0.004209
    64  H   -0.017034
    65  H   -0.015899
    66  H   -0.009468
    67  H   -0.041533
    68  H   -0.006291
    69  H    0.097813
    70  H    0.023615
    71  H    0.022316
    72  H   -0.002865
    73  H    0.006889
    74  H    0.064066
    75  H    0.024777
    76  H    0.040869
    77  H    0.020729
    78  H    0.011879
    79  H    0.042051
    80  H    0.171176
    81  H    0.204267
 Sum of Mulliken charges =  -0.00000

 Dipole moment (field-independent basis, Debye):
    X=              1.7874    Y=             -1.1731    Z=              0.6576  Tot=              2.2369
 Quadrupole moment (field-independent basis, Debye-Ang):
   XX=           -259.8372   YY=           -245.2794   ZZ=           -254.3226
   XY=            -14.4354   XZ=             17.6343   YZ=             18.8230

 Normal termination of Gaussian 16 at Sat Jun 29 04:34:10 2019.
