 Gaussian 16, Revision A.03,
 Gaussian 16:  ES64L-G16RevA.03 25-Dec-2016

 --------------------------
 # td=(NStates=1) B3LYP/SVP
 --------------------------

 --
 TD
 --
 Symbolic Z-matrix:
 Charge =  0 Multiplicity = 1

                         Standard orientation:
 ---------------------------------------------------------------------
 Center     Atomic      Atomic             Coordinates (Angstroms)
 Number     Number       Type             X           Y           Z
 ---------------------------------------------------------------------
      1          8           0       -4.798481   -4.628867    1.862997
      2          8           0        2.973093   -5.267586    1.206858
      3          8           0        7.150866   -1.408372    2.070192
      4          8           0        3.688774   -3.296105    0.128394
      5          8           0        7.640116   -0.689785   -0.104688
      6          8           0       -2.908329    2.442583   -0.093173
      7          7           0       -0.329406   -0.641337   -0.622747
      8          7           0        1.607807    1.788122   -0.354366
      9          7           0       -3.621581   -3.137997    0.616602
     10          7           0       -0.596684    2.934410   -0.145727
     11          6           0        0.574878   -2.467399   -1.286274
     12          6           0        0.882631   -1.150583   -0.991834
     13          6           0       -0.869351   -2.640342   -1.153227
     14          6           0       -1.447075   -1.435646   -0.739209
     15          6           0        3.837795    1.269301   -0.341299
     16          6           0        2.587773    0.675868   -0.564708
     17          6           0        2.148476   -0.543671   -0.835446
     18          6           0        3.691707    2.673429   -0.099867
     19          6           0        1.440438   -3.511630   -1.964352
     20          6           0       -5.671932   -2.469479    1.360923
     21          6           0       -3.704641   -1.819986    0.086246
     22          6           0        2.283088    2.951038   -0.129811
     23          6           0       -5.106850   -1.341388    0.381348
     24          6           0        5.132378    0.531799   -0.441122
     25          6           0       -2.747626   -1.027816   -0.345783
     26          6           0       -1.639740   -3.784471   -1.676414
     27          6           0       -4.667068   -3.548851    1.368776
     28          6           0        2.002024   -4.634061   -0.983424
     29          6           0        5.467067   -0.144460    0.929926
     30          6           0        4.751166    3.805418    0.079581
     31          6           0        1.421158    4.052754    0.196980
     32          6           0       -7.066319   -2.872514    1.005730
     33          6           0       -5.835749   -0.276110   -0.122384
     34          6           0        0.083530    4.113451    0.044949
     35          6           0       -0.861247    5.249677    0.481316
     36          6           0       -2.097355    4.786128    0.439073
     37          6           0        2.958470   -4.261546    0.192166
     38          6           0       -5.422427    0.572136   -1.268980
     39          6           0        6.831981   -0.697395    0.818557
     40          6           0       -3.517786    5.449262    0.517152
     41          6           0       -2.050336    3.196664    0.008791
     42          6           0       -0.365471    6.610709    0.939790
     43          6           0       -4.195361    5.574592   -0.890358
     44          1           0       -0.508362    0.254651   -0.380903
     45          1           0        3.009421   -1.142613   -1.260611
     46          1           0        2.418382   -3.044235   -2.279575
     47          1           0        1.047035   -3.812554   -2.928465
     48          1           0       -5.676716   -2.084155    2.262547
     49          1           0        5.204332   -0.262619   -1.218966
     50          1           0        5.983420    1.317554   -0.530166
     51          1           0       -2.794179    0.317408   -0.069546
     52          1           0        0.429432    1.782832   -0.343994
     53          1           0       -1.888372   -4.584246   -0.976246
     54          1           0       -2.667097   -3.659170   -1.985014
     55          1           0       -0.955818   -4.185522   -2.537192
     56          1           0       -2.560438   -3.276555    0.386012
     57          1           0        1.227220   -5.230158   -0.579600
     58          1           0        2.633027   -5.272153   -1.772081
     59          1           0        4.786652   -1.034142    1.226496
     60          1           0        5.382467    0.689061    1.668334
     61          1           0        4.413035    4.668369   -0.598640
     62          1           0        5.750226    3.496786   -0.301027
     63          1           0        4.968698    3.965318    1.153134
     64          1           0        2.028704    5.060498    0.253782
     65          1           0       -7.909702   -2.077331    0.915732
     66          1           0       -7.486857   -3.594438    1.791155
     67          1           0       -6.856644   -3.210226   -0.047845
     68          1           0       -7.003627   -0.455650    0.261345
     69          1           0       -4.756493    1.243246   -0.733482
     70          1           0       -6.362976    0.891874   -1.709260
     71          1           0       -4.954235   -0.120139   -1.861688
     72          1           0       -3.365303    6.295734    0.943278
     73          1           0       -4.183040    4.703616    1.304970
     74          1           0        0.322402    6.560248    1.634100
     75          1           0       -1.225109    7.520954    1.020159
     76          1           0        0.295212    7.014105    0.077026
     77          1           0       -3.581035    6.472696   -1.335670
     78          1           0       -5.191030    5.788366   -0.746805
     79          1           0       -4.118658    4.719004   -1.427084
     80          1           0        3.612803   -5.100523    1.697078
     81          1           0        8.174609   -1.742488    1.906865
 ---------------------------------------------------------------------

 SCF Done:  E(RB3LYP) =  -1948.97690604     A.U. after   16 cycles

 Excitation energies and oscillator strengths:

 Excited State   1:      Singlet-A      2.0441 eV  606.55 nm  f=0.3942  <S**2>=0.000
     156 ->157         0.70439
 This state for optimization and/or second-order correction.
 Total Energy, E(TD-HF/TD-DFT) =  -1948.90178704
 Copying the excited state density for this state as the 1-particle RhoCI density.

 The electronic state is 1-A.
 Alpha  occ. eigenvalues --  -19.18432 -19.17057 -19.15745 -19.14443 -19.13180
 Alpha  occ. eigenvalues --  -19.10498 -14.37443 -14.36993 -14.34082 -14.29451
 Alpha  occ. eigenvalues --  -10.34914 -10.32802 -10.29108 -10.28069 -10.24219
 Alpha  occ. eigenvalues --  -10.23928 -10.23689 -10.23526 -10.22903 -10.22870
 Alpha  occ. eigenvalues --  -10.22804 -10.22043 -10.21977 -10.21911 -10.21399
 Alpha  occ. eigenvalues --  -10.21359 -10.21356 -10.21335 -10.20978 -10.20547
 Alpha  occ. eigenvalues --  -10.20432 -10.20272 -10.20263 -10.19975 -10.19876
 Alpha  occ. eigenvalues --  -10.19659 -10.19634 -10.19625 -10.19161 -10.18944
 Alpha  occ. eigenvalues --  -10.18744 -10.17788 -10.17452  -1.11164  -1.07120
 Alpha  occ. eigenvalues --   -1.06131  -1.04373  -1.04059  -0.99608  -0.97433
 Alpha  occ. eigenvalues --   -0.95452  -0.94972  -0.89615  -0.82856  -0.81980
 Alpha  occ. eigenvalues --   -0.81806  -0.81212  -0.79653  -0.79012  -0.77694
 Alpha  occ. eigenvalues --   -0.77025  -0.76818  -0.75488  -0.74891  -0.73119
 Alpha  occ. eigenvalues --   -0.71515  -0.69914  -0.69601  -0.68733  -0.68241
 Alpha  occ. eigenvalues --   -0.66664  -0.65793  -0.64395  -0.62688  -0.62155
 Alpha  occ. eigenvalues --   -0.61465  -0.59857  -0.58108  -0.56837  -0.56672
 Alpha  occ. eigenvalues --   -0.55727  -0.55149  -0.54312  -0.53027  -0.52652
 Alpha  occ. eigenvalues --   -0.51518  -0.51370  -0.50804  -0.50068  -0.49451
 Alpha  occ. eigenvalues --   -0.48913  -0.48757  -0.48573  -0.47969  -0.47593
 Alpha  occ. eigenvalues --   -0.47228  -0.46895  -0.46465  -0.45886  -0.45757
 Alpha  occ. eigenvalues --   -0.45213  -0.44542  -0.44480  -0.43973  -0.43813
 Alpha  occ. eigenvalues --   -0.43542  -0.43458  -0.43024  -0.42691  -0.42515
 Alpha  occ. eigenvalues --   -0.42150  -0.42035  -0.41733  -0.41442  -0.41018
 Alpha  occ. eigenvalues --   -0.40879  -0.40671  -0.40042  -0.39895  -0.39672
 Alpha  occ. eigenvalues --   -0.39366  -0.39138  -0.38943  -0.38597  -0.38188
 Alpha  occ. eigenvalues --   -0.38105  -0.37820  -0.37369  -0.37265  -0.36908
 Alpha  occ. eigenvalues --   -0.36192  -0.36013  -0.35700  -0.35357  -0.35031
 Alpha  occ. eigenvalues --   -0.34746  -0.34703  -0.34415  -0.34216  -0.33490
 Alpha  occ. eigenvalues --   -0.33249  -0.31446  -0.31286  -0.30998  -0.30152
 Alpha  occ. eigenvalues --   -0.29077  -0.28814  -0.26977  -0.26335  -0.25241
 Alpha  occ. eigenvalues --   -0.24713  -0.24473  -0.24037  -0.23614  -0.21561
 Alpha  occ. eigenvalues --   -0.18819
 Alpha virt. eigenvalues --   -0.10536  -0.05488  -0.03987  -0.03113  -0.01811
 Alpha virt. eigenvalues --    0.00800   0.01932   0.03207   0.03419   0.03540
 Alpha virt. eigenvalues --    0.03977   0.04280   0.04752   0.05311   0.05862

 Mulliken charges:
               1
     1  O   -0.181214
     2  O   -0.135220
     3  O   -0.327893
     4  O   -0.207004
     5  O   -0.225892
     6  O   -0.125316
     7  N   -0.011353
     8  N   -0.275237
     9  N   -0.142933
    10  N   -0.416411
    11  C   -0.073054
    12  C    0.065905
    13  C   -0.209252
    14  C    0.042327
    15  C   -0.039875
    16  C    0.109667
    17  C   -0.034830
    18  C   -0.134347
    19  C    0.061162
    20  C    0.043841
    21  C    0.041925
    22  C    0.086180
    23  C   -0.078653
    24  C    0.045100
    25  C   -0.144842
    26  C    0.062999
    27  C    0.116623
    28  C   -0.007613
    29  C   -0.032176
    30  C    0.076489
    31  C   -0.123169
    32  C   -0.019739
    33  C   -0.210727
    34  C    0.131358
    35  C   -0.069663
    36  C   -0.246414
    37  C    0.165938
    38  C    0.138648
    39  C    0.194524
    40  C    0.089433
    41  C    0.182667
    42  C    0.118664
    43  C    0.074656
    44  H    0.059242
    45  H    0.016206
    46  H    0.000851
    47  H    0.025494
    48  H   -0.013428
    49  H    0.038048
    50  H    0.027754
    51  H    0.124154
    52  H    0.225228
    53  H    0.015647
    54  H    0.015646
    55  H    0.028428
    56  H    0.168779
    57  H    0.023371
    58  H    0.064573
    59  H    0.085600
    60  H    0.053400
    61  H    0.053721
    62  H    0.008496
    63  H    0.038221
    64  H   -0.011834
    65  H    0.033442
    66  H    0.041967
    67  H    0.024008
    68  H    0.023887
    69  H    0.074030
    70  H    0.016281
    71  H    0.010407
    72  H   -0.061777
    73  H    0.026337
    74  H   -0.018722
    75  H    0.049522
    76  H    0.011671
    77  H    0.023324
    78  H    0.000605
    79  H    0.004202
    80  H    0.097667
    81  H    0.220278
 Sum of Mulliken charges =  -0.00000

 Dipole moment (field-independent basis, Debye):
    X=              2.4162    Y=              1.7753    Z=             -1.0874  Tot=              3.1894
 Quadrupole moment (field-independent basis, Debye-Ang):
   XX=           -250.6375   YY=           -246.0482   ZZ=           -256.2872
   XY=            -17.0199   XZ=             13.0633   YZ=             13.9101

 Normal termination of Gaussian 16 at Thu Jun 27 09:45:49 2019.
