 Gaussian 16, Revision A.03,
 Gaussian 16:  ES64L-G16RevA.03 25-Dec-2016

 --------------------------
 # td=(NStates=1) B3LYP/SVP
 --------------------------

 --
 TD
 --
 Symbolic Z-matrix:
 Charge =  0 Multiplicity = 1

                         Standard orientation:
 ---------------------------------------------------------------------
 Center     Atomic      Atomic             Coordinates (Angstroms)
 Number     Number       Type             X           Y           Z
 ---------------------------------------------------------------------
      1          8           0        4.576434   -4.805292   -1.720352
      2          8           0       -2.899518   -4.828639   -1.200342
      3          8           0       -7.151797   -1.619965   -1.819328
      4          8           0       -3.658439   -3.006504    0.066815
      5          8           0       -7.956305   -0.517094    0.046391
      6          8           0        2.989858    2.540321    0.139640
      7          7           0        0.367706   -0.613554    0.422009
      8          7           0       -1.523082    1.750522    0.258454
      9          7           0        3.404282   -3.054951   -0.641564
     10          7           0        0.720154    2.940701    0.134093
     11          6           0       -0.451794   -2.422971    1.391638
     12          6           0       -0.851682   -1.156230    0.879725
     13          6           0        0.879744   -2.645212    1.207074
     14          6           0        1.402110   -1.441362    0.637458
     15          6           0       -3.808245    1.317832    0.324704
     16          6           0       -2.433649    0.697431    0.570919
     17          6           0       -2.100458   -0.560384    0.816234
     18          6           0       -3.640639    2.659011   -0.005382
     19          6           0       -1.484203   -3.471672    2.025092
     20          6           0        5.601587   -2.574375   -1.437574
     21          6           0        3.693181   -1.740951   -0.161136
     22          6           0       -2.266985    2.882090    0.020311
     23          6           0        5.151582   -1.490701   -0.402840
     24          6           0       -5.029680    0.513903    0.439252
     25          6           0        2.755528   -0.936225    0.427255
     26          6           0        1.648569   -3.777491    1.873005
     27          6           0        4.519277   -3.637739   -1.317360
     28          6           0       -1.950768   -4.560822    1.012516
     29          6           0       -5.576339   -0.448071   -0.763774
     30          6           0       -4.602724    3.651956   -0.470813
     31          6           0       -1.426605    4.052065   -0.268819
     32          6           0        7.074138   -3.038414   -1.348882
     33          6           0        5.916734   -0.605339    0.298489
     34          6           0       -0.086783    3.975442   -0.129859
     35          6           0        0.847772    5.162134   -0.478059
     36          6           0        2.067761    4.744553   -0.329309
     37          6           0       -2.902582   -3.991264   -0.118704
     38          6           0        5.450267    0.447856    1.144744
     39          6           0       -7.008361   -0.801105   -0.789232
     40          6           0        3.495541    5.415711   -0.429613
     41          6           0        2.071297    3.245119    0.013921
     42          6           0        0.457043    6.592081   -0.710542
     43          6           0        4.053221    5.892096    1.018522
     44          1           0        0.389601    0.441976    0.108891
     45          1           0       -3.080740   -1.125288    1.322934
     46          1           0       -2.386903   -3.147067    2.446041
     47          1           0       -0.964823   -3.830959    2.875113
     48          1           0        5.120021   -2.074288   -2.384544
     49          1           0       -4.942726   -0.049817    1.347006
     50          1           0       -5.949623    1.106595    0.636694
     51          1           0        2.910031    0.027887    0.449288
     52          1           0       -0.369441    1.887114    0.450127
     53          1           0        1.701843   -4.599572    0.891721
     54          1           0        2.581937   -3.648996    2.377547
     55          1           0        1.134690   -4.279864    2.601740
     56          1           0        2.532900   -3.619099   -0.524150
     57          1           0       -1.151615   -5.042372    0.455153
     58          1           0       -2.350187   -5.249089    1.436970
     59          1           0       -4.978449   -1.386014   -0.800693
     60          1           0       -5.438136    0.233621   -1.810974
     61          1           0       -4.663024    4.557610    0.257091
     62          1           0       -5.536601    3.274189   -0.552532
     63          1           0       -4.066185    4.029892   -1.289326
     64          1           0       -1.885287    4.912450   -0.511014
     65          1           0        7.570867   -1.930258   -1.454656
     66          1           0        7.493060   -3.746425   -2.105388
     67          1           0        7.225681   -3.398818   -0.400759
     68          1           0        6.921306   -0.678822    0.147968
     69          1           0        4.899474    1.194489    0.470756
     70          1           0        6.229102    1.006553    1.556569
     71          1           0        4.660957    0.130533    1.891422
     72          1           0        3.406406    6.300408   -1.205310
     73          1           0        4.080103    4.694392   -0.974202
     74          1           0       -0.075400    6.963024   -1.731173
     75          1           0        1.276161    7.233680   -0.877338
     76          1           0       -0.214739    6.913604    0.059747
     77          1           0        3.496147    6.579095    1.499879
     78          1           0        5.044777    6.427169    0.653965
     79          1           0        4.267194    5.068989    1.656994
     80          1           0       -3.495738   -4.255991   -1.923200
     81          1           0       -8.161062   -1.875887   -1.995654
 ---------------------------------------------------------------------

 SCF Done:  E(RB3LYP) =  -1949.05820162     A.U. after   16 cycles

 Excitation energies and oscillator strengths:

 Excited State   1:      Singlet-A      2.1189 eV  585.14 nm  f=0.4279  <S**2>=0.000
     156 ->157         0.70601
 This state for optimization and/or second-order correction.
 Total Energy, E(TD-HF/TD-DFT) =  -1948.98033381
 Copying the excited state density for this state as the 1-particle RhoCI density.

 The electronic state is 1-A.
 Alpha  occ. eigenvalues --  -19.21794 -19.19759 -19.15382 -19.12189 -19.10997
 Alpha  occ. eigenvalues --  -19.10622 -14.38249 -14.36916 -14.34373 -14.28734
 Alpha  occ. eigenvalues --  -10.34825 -10.32655 -10.29309 -10.26113 -10.24719
 Alpha  occ. eigenvalues --  -10.23897 -10.23299 -10.22472 -10.22279 -10.22151
 Alpha  occ. eigenvalues --  -10.22125 -10.22049 -10.21375 -10.21057 -10.20972
 Alpha  occ. eigenvalues --  -10.20736 -10.20576 -10.20519 -10.20204 -10.20189
 Alpha  occ. eigenvalues --  -10.20074 -10.19749 -10.19664 -10.19468 -10.19087
 Alpha  occ. eigenvalues --  -10.19002 -10.18870 -10.18411 -10.18022 -10.17879
 Alpha  occ. eigenvalues --  -10.17547 -10.17309 -10.17031  -1.09421  -1.09005
 Alpha  occ. eigenvalues --   -1.04409  -1.01834  -1.01034  -0.98333  -0.96766
 Alpha  occ. eigenvalues --   -0.95562  -0.93448  -0.91469  -0.81999  -0.81767
 Alpha  occ. eigenvalues --   -0.81503  -0.81292  -0.78973  -0.78332  -0.78291
 Alpha  occ. eigenvalues --   -0.77209  -0.76470  -0.75319  -0.73386  -0.72443
 Alpha  occ. eigenvalues --   -0.71870  -0.69844  -0.68769  -0.68650  -0.67793
 Alpha  occ. eigenvalues --   -0.67669  -0.65541  -0.64275  -0.62118  -0.61573
 Alpha  occ. eigenvalues --   -0.60431  -0.59333  -0.58776  -0.57595  -0.57139
 Alpha  occ. eigenvalues --   -0.55621  -0.55022  -0.54385  -0.54206  -0.52786
 Alpha  occ. eigenvalues --   -0.52262  -0.51561  -0.50775  -0.50497  -0.49256
 Alpha  occ. eigenvalues --   -0.49043  -0.48910  -0.47976  -0.47790  -0.47491
 Alpha  occ. eigenvalues --   -0.47098  -0.46542  -0.46434  -0.46009  -0.45804
 Alpha  occ. eigenvalues --   -0.45063  -0.44801  -0.44366  -0.43932  -0.43542
 Alpha  occ. eigenvalues --   -0.43349  -0.42995  -0.42908  -0.42749  -0.42246
 Alpha  occ. eigenvalues --   -0.42019  -0.41823  -0.41691  -0.41551  -0.40971
 Alpha  occ. eigenvalues --   -0.40711  -0.40168  -0.40079  -0.40039  -0.39769
 Alpha  occ. eigenvalues --   -0.39418  -0.39055  -0.38757  -0.38539  -0.38089
 Alpha  occ. eigenvalues --   -0.37926  -0.37382  -0.37274  -0.36936  -0.36632
 Alpha  occ. eigenvalues --   -0.36403  -0.35959  -0.35443  -0.35391  -0.35286
 Alpha  occ. eigenvalues --   -0.34529  -0.34333  -0.34108  -0.33866  -0.33387
 Alpha  occ. eigenvalues --   -0.33012  -0.31890  -0.31060  -0.30362  -0.29759
 Alpha  occ. eigenvalues --   -0.27361  -0.27217  -0.26565  -0.26024  -0.25251
 Alpha  occ. eigenvalues --   -0.24749  -0.24278  -0.23566  -0.23335  -0.21591
 Alpha  occ. eigenvalues --   -0.18074
 Alpha virt. eigenvalues --   -0.09526  -0.04501  -0.03152  -0.02837  -0.01391
 Alpha virt. eigenvalues --    0.00067   0.00555   0.01708   0.02199   0.02545
 Alpha virt. eigenvalues --    0.04291   0.04583   0.05138   0.05601   0.06007

 Mulliken charges:
               1
     1  O   -0.232354
     2  O   -0.232573
     3  O   -0.209335
     4  O   -0.255268
     5  O   -0.305121
     6  O   -0.149634
     7  N   -0.104455
     8  N   -0.242075
     9  N   -0.183890
    10  N   -0.329882
    11  C   -0.095021
    12  C    0.062778
    13  C   -0.160127
    14  C    0.068026
    15  C   -0.065523
    16  C    0.059536
    17  C   -0.070427
    18  C   -0.148101
    19  C    0.145649
    20  C   -0.045062
    21  C    0.112974
    22  C    0.097495
    23  C   -0.046333
    24  C    0.083870
    25  C   -0.008008
    26  C    0.092989
    27  C    0.122769
    28  C    0.145058
    29  C   -0.067023
    30  C    0.188729
    31  C   -0.090376
    32  C    0.066090
    33  C   -0.129240
    34  C    0.134985
    35  C   -0.078028
    36  C   -0.207639
    37  C    0.174250
    38  C    0.098940
    39  C    0.173862
    40  C    0.050421
    41  C    0.143756
    42  C    0.078096
    43  C    0.038054
    44  H    0.165697
    45  H    0.066877
    46  H   -0.010908
    47  H   -0.011390
    48  H    0.063109
    49  H    0.008420
    50  H    0.008737
    51  H   -0.086527
    52  H    0.216305
    53  H    0.022750
    54  H    0.033580
    55  H   -0.022298
    56  H    0.146141
    57  H    0.014573
    58  H   -0.056750
    59  H    0.065261
    60  H    0.061821
    61  H    0.024171
    62  H   -0.012183
    63  H    0.015594
    64  H   -0.089739
    65  H    0.042350
    66  H    0.049952
    67  H    0.007972
    68  H   -0.052192
    69  H    0.077358
    70  H   -0.013105
    71  H    0.039943
    72  H    0.002013
    73  H    0.008725
    74  H    0.011706
    75  H   -0.009419
    76  H    0.019349
    77  H   -0.004513
    78  H    0.021352
    79  H    0.024791
    80  H    0.241450
    81  H    0.226195
 Sum of Mulliken charges =  -0.00000

 Dipole moment (field-independent basis, Debye):
    X=             -1.9675    Y=             -0.5954    Z=             -0.7112  Tot=              2.1752
 Quadrupole moment (field-independent basis, Debye-Ang):
   XX=           -253.7916   YY=           -246.5723   ZZ=           -247.7344
   XY=             18.4293   XZ=             22.8694   YZ=            -10.8642

 Normal termination of Gaussian 16 at Thu Jun 27 14:18:00 2019.
