 Gaussian 16, Revision A.03,
 Gaussian 16:  ES64L-G16RevA.03 25-Dec-2016

 --------------------------
 # td=(NStates=1) B3LYP/SVP
 --------------------------

 --
 TD
 --
 Symbolic Z-matrix:
 Charge =  0 Multiplicity = 1

                         Standard orientation:
 ---------------------------------------------------------------------
 Center     Atomic      Atomic             Coordinates (Angstroms)
 Number     Number       Type             X           Y           Z
 ---------------------------------------------------------------------
      1          8           0       -4.427228   -4.698839    1.864106
      2          8           0        3.031982   -4.763095    1.403106
      3          8           0        7.117537   -1.385603    1.878772
      4          8           0        3.758607   -3.034011    0.133515
      5          8           0        7.434564   -0.841487   -0.360248
      6          8           0       -3.031155    2.380053   -0.154222
      7          7           0       -0.273235   -0.626192   -0.756140
      8          7           0        1.510900    1.820108   -0.267979
      9          7           0       -3.415268   -3.185371    0.641749
     10          7           0       -0.760728    2.961788   -0.174061
     11          6           0        0.654198   -2.475052   -1.372143
     12          6           0        0.921106   -1.117634   -0.908103
     13          6           0       -0.656369   -2.739714   -1.158869
     14          6           0       -1.265532   -1.460449   -0.840202
     15          6           0        3.729166    1.459177   -0.336635
     16          6           0        2.516869    0.827158   -0.494071
     17          6           0        2.218500   -0.464126   -0.929973
     18          6           0        3.583074    2.822968   -0.028511
     19          6           0        1.698239   -3.451904   -1.792092
     20          6           0       -5.591026   -2.654741    1.280567
     21          6           0       -3.634617   -1.803526    0.095793
     22          6           0        2.135086    3.048119   -0.037688
     23          6           0       -5.114359   -1.552236    0.365333
     24          6           0        5.074966    0.717901   -0.475475
     25          6           0       -2.655332   -1.079270   -0.501130
     26          6           0       -1.491045   -3.877950   -1.731076
     27          6           0       -4.458275   -3.618827    1.271732
     28          6           0        2.059649   -4.474171   -0.656670
     29          6           0        5.520493   -0.005097    0.773098
     30          6           0        4.534085    3.882250    0.360047
     31          6           0        1.312075    4.131839    0.239290
     32          6           0       -6.928703   -3.186108    1.127326
     33          6           0       -5.896026   -0.669306   -0.334188
     34          6           0       -0.087224    4.021937    0.240727
     35          6           0       -1.037447    5.156729    0.459614
     36          6           0       -2.320578    4.601855    0.370244
     37          6           0        3.067011   -4.005935    0.289273
     38          6           0       -5.464875    0.458576   -1.255522
     39          6           0        6.808517   -0.875823    0.639255
     40          6           0       -3.632617    5.315414    0.583707
     41          6           0       -2.157331    3.251081   -0.074482
     42          6           0       -0.456044    6.549429    0.900450
     43          6           0       -4.277514    5.592505   -0.819965
     44          1           0       -0.406338    0.285506   -0.242851
     45          1           0        3.061193   -1.112754   -1.158609
     46          1           0        2.582227   -3.024277   -1.998296
     47          1           0        1.370292   -4.047320   -2.748578
     48          1           0       -5.339760   -2.154793    2.433555
     49          1           0        4.953597   -0.080349   -1.200651
     50          1           0        5.997191    1.326077   -0.938294
     51          1           0       -2.797974    0.041529   -0.846406
     52          1           0        0.394211    1.963372   -0.491432
     53          1           0       -1.360230   -4.790688   -1.180080
     54          1           0       -2.484488   -3.526104   -2.186086
     55          1           0       -1.036820   -4.142101   -2.763331
     56          1           0       -2.468067   -3.665308    0.745313
     57          1           0        0.979469   -5.037228   -0.406802
     58          1           0        2.479414   -5.153985   -1.349085
     59          1           0        4.700720   -0.711990    1.006218
     60          1           0        5.527324    0.732753    1.622277
     61          1           0        4.564990    4.572895   -0.210522
     62          1           0        5.472849    3.640764    0.083296
     63          1           0        4.525963    4.110572    1.469492
     64          1           0        1.869386    4.945365    0.503871
     65          1           0       -7.798777   -2.442978    1.391233
     66          1           0       -7.193287   -4.052484    1.729005
     67          1           0       -6.920069   -3.589722    0.108190
     68          1           0       -7.007594   -0.499043   -0.133723
     69          1           0       -5.192664    1.492937   -0.605783
     70          1           0       -6.206839    0.753888   -1.831751
     71          1           0       -4.683168    0.349022   -1.901746
     72          1           0       -3.511371    6.270294    1.132850
     73          1           0       -4.113518    4.517828    1.106044
     74          1           0        0.079921    6.323159    1.875255
     75          1           0       -1.107664    7.328100    1.181592
     76          1           0        0.111430    6.919788    0.085906
     77          1           0       -3.767096    6.505676   -1.165933
     78          1           0       -5.472835    5.650204   -1.073147
     79          1           0       -4.007076    4.619573   -1.388566
     80          1           0        3.549426   -4.410617    2.045098
     81          1           0        7.901178   -1.906449    1.579301
 ---------------------------------------------------------------------

 SCF Done:  E(RB3LYP) =  -1949.06901990     A.U. after   16 cycles

 Excitation energies and oscillator strengths:

 Excited State   1:      Singlet-A      1.9106 eV  648.93 nm  f=0.3578  <S**2>=0.000
     156 ->157         0.70786
     156 <-157        -0.12042
 This state for optimization and/or second-order correction.
 Total Energy, E(TD-HF/TD-DFT) =  -1948.99880705
 Copying the excited state density for this state as the 1-particle RhoCI density.

 The electronic state is 1-A.
 Alpha  occ. eigenvalues --  -19.19450 -19.19391 -19.15133 -19.14286 -19.10856
 Alpha  occ. eigenvalues --  -19.07883 -14.39012 -14.36748 -14.33883 -14.29209
 Alpha  occ. eigenvalues --  -10.34284 -10.32594 -10.26909 -10.26861 -10.25378
 Alpha  occ. eigenvalues --  -10.23768 -10.23133 -10.22821 -10.22644 -10.22466
 Alpha  occ. eigenvalues --  -10.22163 -10.22028 -10.21377 -10.20960 -10.20777
 Alpha  occ. eigenvalues --  -10.20686 -10.20597 -10.20531 -10.20519 -10.20227
 Alpha  occ. eigenvalues --  -10.20088 -10.19965 -10.19712 -10.19700 -10.19621
 Alpha  occ. eigenvalues --  -10.19347 -10.19284 -10.19001 -10.18843 -10.18764
 Alpha  occ. eigenvalues --  -10.17777 -10.17192 -10.16967  -1.12568  -1.10573
 Alpha  occ. eigenvalues --   -1.03935  -1.03197  -1.02557  -1.02160  -1.01185
 Alpha  occ. eigenvalues --   -0.95264  -0.92779  -0.91871  -0.83252  -0.81682
 Alpha  occ. eigenvalues --   -0.81657  -0.80933  -0.79433  -0.79111  -0.78634
 Alpha  occ. eigenvalues --   -0.77039  -0.76488  -0.75063  -0.74204  -0.72597
 Alpha  occ. eigenvalues --   -0.72094  -0.70583  -0.69649  -0.69331  -0.68619
 Alpha  occ. eigenvalues --   -0.66353  -0.65223  -0.64865  -0.62980  -0.61954
 Alpha  occ. eigenvalues --   -0.61001  -0.59135  -0.58079  -0.57822  -0.56942
 Alpha  occ. eigenvalues --   -0.55834  -0.55482  -0.54740  -0.53494  -0.53229
 Alpha  occ. eigenvalues --   -0.53030  -0.52872  -0.51164  -0.50487  -0.50010
 Alpha  occ. eigenvalues --   -0.49673  -0.49352  -0.48958  -0.48341  -0.47855
 Alpha  occ. eigenvalues --   -0.47371  -0.47113  -0.46719  -0.46289  -0.46097
 Alpha  occ. eigenvalues --   -0.45192  -0.45070  -0.44675  -0.44390  -0.44199
 Alpha  occ. eigenvalues --   -0.43496  -0.43325  -0.42714  -0.42348  -0.42207
 Alpha  occ. eigenvalues --   -0.42063  -0.41805  -0.41312  -0.41167  -0.41053
 Alpha  occ. eigenvalues --   -0.40563  -0.40472  -0.40373  -0.39722  -0.39608
 Alpha  occ. eigenvalues --   -0.39173  -0.38703  -0.38425  -0.38280  -0.38116
 Alpha  occ. eigenvalues --   -0.37354  -0.37185  -0.37069  -0.36841  -0.36588
 Alpha  occ. eigenvalues --   -0.35612  -0.35387  -0.35206  -0.34993  -0.34640
 Alpha  occ. eigenvalues --   -0.34574  -0.34124  -0.33848  -0.33472  -0.33246
 Alpha  occ. eigenvalues --   -0.33080  -0.32398  -0.31472  -0.30963  -0.29656
 Alpha  occ. eigenvalues --   -0.28917  -0.27761  -0.26247  -0.25960  -0.25190
 Alpha  occ. eigenvalues --   -0.24799  -0.24488  -0.23599  -0.23225  -0.21792
 Alpha  occ. eigenvalues --   -0.18000
 Alpha virt. eigenvalues --   -0.10485  -0.06365  -0.03816  -0.02339   0.00003
 Alpha virt. eigenvalues --    0.00481   0.02350   0.02739   0.03683   0.04157
 Alpha virt. eigenvalues --    0.04733   0.05140   0.05694   0.06184   0.06504

 Mulliken charges:
               1
     1  O   -0.258804
     2  O   -0.125384
     3  O   -0.191704
     4  O   -0.209112
     5  O   -0.183271
     6  O   -0.229801
     7  N    0.079590
     8  N   -0.247594
     9  N   -0.097047
    10  N   -0.317826
    11  C   -0.078580
    12  C   -0.035987
    13  C   -0.189556
    14  C   -0.030967
    15  C   -0.073604
    16  C    0.128889
    17  C   -0.027103
    18  C   -0.166232
    19  C    0.096705
    20  C   -0.054763
    21  C    0.130079
    22  C    0.049501
    23  C    0.030635
    24  C    0.063724
    25  C   -0.129561
    26  C    0.059456
    27  C    0.023175
    28  C   -0.014615
    29  C   -0.034095
    30  C    0.338273
    31  C   -0.074948
    32  C    0.072591
    33  C   -0.173134
    34  C    0.117539
    35  C   -0.113482
    36  C   -0.209781
    37  C    0.155810
    38  C    0.092586
    39  C    0.161316
    40  C    0.135999
    41  C    0.169553
    42  C    0.126328
    43  C   -0.067182
    44  H    0.156240
    45  H    0.008583
    46  H   -0.038744
    47  H    0.015513
    48  H    0.066543
    49  H   -0.004044
    50  H    0.031467
    51  H    0.075441
    52  H    0.197346
    53  H    0.019297
    54  H    0.051872
    55  H    0.009074
    56  H    0.158015
    57  H    0.066789
    58  H    0.029948
    59  H    0.031333
    60  H    0.033680
    61  H   -0.095724
    62  H   -0.061406
    63  H    0.042252
    64  H   -0.076494
    65  H    0.033168
    66  H    0.023480
    67  H    0.011876
    68  H    0.016505
    69  H    0.080618
    70  H   -0.041625
    71  H   -0.007906
    72  H    0.004930
    73  H    0.008937
    74  H    0.040945
    75  H   -0.007975
    76  H    0.023922
    77  H    0.017349
    78  H    0.033441
    79  H    0.035986
    80  H    0.142098
    81  H    0.169655
 Sum of Mulliken charges =  -0.00000

 Dipole moment (field-independent basis, Debye):
    X=              3.6810    Y=              1.1434    Z=             -0.3105  Tot=              3.8670
 Quadrupole moment (field-independent basis, Debye-Ang):
   XX=           -248.6854   YY=           -240.5880   ZZ=           -254.8868
   XY=            -18.6325   XZ=             17.5367   YZ=             15.0857

 Normal termination of Gaussian 16 at Tue Jul  2 03:17:35 2019.
