 Gaussian 16, Revision A.03,
 Gaussian 16:  ES64L-G16RevA.03 25-Dec-2016

 --------------------------
 # td=(NStates=1) B3LYP/SVP
 --------------------------

 --
 TD
 --
 Symbolic Z-matrix:
 Charge =  0 Multiplicity = 1

                         Standard orientation:
 ---------------------------------------------------------------------
 Center     Atomic      Atomic             Coordinates (Angstroms)
 Number     Number       Type             X           Y           Z
 ---------------------------------------------------------------------
      1          8           0        4.292645   -4.713380   -1.949069
      2          8           0       -2.971780   -4.863158   -1.215805
      3          8           0       -7.066672   -1.585009   -1.761611
      4          8           0       -3.657692   -3.125582   -0.092705
      5          8           0       -7.722383   -0.286443    0.006246
      6          8           0        3.039308    2.395442    0.419469
      7          7           0        0.260758   -0.490064    0.639459
      8          7           0       -1.552440    1.782785    0.437904
      9          7           0        3.287830   -3.155812   -0.595934
     10          7           0        0.805068    2.848634    0.271061
     11          6           0       -0.570778   -2.409451    1.509346
     12          6           0       -1.002032   -1.162053    0.963544
     13          6           0        0.844787   -2.547325    1.324635
     14          6           0        1.258164   -1.405021    0.725480
     15          6           0       -3.782907    1.505802    0.129617
     16          6           0       -2.567827    0.893062    0.530411
     17          6           0       -2.273084   -0.420555    0.995812
     18          6           0       -3.481973    2.856122   -0.072724
     19          6           0       -1.603934   -3.462555    2.011525
     20          6           0        5.452918   -2.597456   -1.454156
     21          6           0        3.573899   -1.916759   -0.068484
     22          6           0       -2.072565    2.968071   -0.039819
     23          6           0        5.003829   -1.539335   -0.479707
     24          6           0       -5.064130    0.777200    0.317063
     25          6           0        2.630443   -1.058365    0.424464
     26          6           0        1.575959   -3.791219    1.911252
     27          6           0        4.314514   -3.623126   -1.425693
     28          6           0       -1.967075   -4.525170    0.874557
     29          6           0       -5.416641   -0.232943   -0.781603
     30          6           0       -4.561371    3.903468   -0.559932
     31          6           0       -1.270782    4.094886   -0.226436
     32          6           0        6.876517   -3.274966   -1.161916
     33          6           0        5.739707   -0.585921    0.005104
     34          6           0        0.175518    4.079980   -0.124822
     35          6           0        1.045797    5.149888   -0.544651
     36          6           0        2.297105    4.672247   -0.298746
     37          6           0       -2.929428   -4.147182   -0.100203
     38          6           0        5.388516    0.425673    1.032272
     39          6           0       -6.927841   -0.669875   -0.724663
     40          6           0        3.662349    5.199659   -0.387538
     41          6           0        2.110128    3.142109    0.199728
     42          6           0        0.602823    6.514737   -0.945211
     43          6           0        4.371752    5.526704    0.934633
     44          1           0        0.647118    0.279369    0.415606
     45          1           0       -3.057955   -1.138940    1.246759
     46          1           0       -2.636621   -3.107208    2.129083
     47          1           0       -1.361490   -4.051325    3.001503
     48          1           0        5.545157   -2.178918   -2.614725
     49          1           0       -5.071431    0.100598    1.242761
     50          1           0       -5.943619    1.466927    0.580584
     51          1           0        2.832507   -0.012268    0.343837
     52          1           0       -0.471369    1.938758    0.696374
     53          1           0        1.660413   -4.513025    1.294073
     54          1           0        2.647802   -3.640943    2.186958
     55          1           0        1.087661   -4.013709    2.853625
     56          1           0        2.469871   -3.838639   -0.538258
     57          1           0       -1.103694   -5.094728    0.380742
     58          1           0       -2.664409   -5.209903    1.417019
     59          1           0       -4.744005   -1.197957   -0.716827
     60          1           0       -4.963423    0.123350   -1.820813
     61          1           0       -4.292773    4.915905   -0.168503
     62          1           0       -5.566500    3.741770   -0.279016
     63          1           0       -4.609583    3.961181   -1.653967
     64          1           0       -1.758791    4.971571   -0.563603
     65          1           0        7.677630   -2.653248   -1.818929
     66          1           0        6.924219   -4.114260   -1.916017
     67          1           0        6.844738   -3.669673   -0.168405
     68          1           0        6.710305   -0.490213   -0.538050
     69          1           0        4.843094    1.416250    0.776845
     70          1           0        6.460381    0.649553    1.649356
     71          1           0        4.606400    0.020967    1.864013
     72          1           0        3.846210    6.182385   -1.080535
     73          1           0        4.381974    4.497182   -0.986659
     74          1           0        0.108129    6.566792   -2.024948
     75          1           0        1.417242    7.123494   -1.119057
     76          1           0       -0.026295    6.883111   -0.111639
     77          1           0        3.882132    6.177830    1.788962
     78          1           0        5.442076    6.161526    0.791701
     79          1           0        4.442785    4.442553    1.449053
     80          1           0       -3.712268   -4.277985   -1.751822
     81          1           0       -8.003686   -1.933874   -1.715548
 ---------------------------------------------------------------------

 SCF Done:  E(RB3LYP) =  -1949.08476596     A.U. after   17 cycles

 Excitation energies and oscillator strengths:

 Excited State   1:      Singlet-A      1.8552 eV  668.32 nm  f=0.4004  <S**2>=0.000
     156 ->157         0.70941
     156 <-157        -0.13047
 This state for optimization and/or second-order correction.
 Total Energy, E(TD-HF/TD-DFT) =  -1949.01658972
 Copying the excited state density for this state as the 1-particle RhoCI density.

 The electronic state is 1-A.
 Alpha  occ. eigenvalues --  -19.19990 -19.17727 -19.14348 -19.13347 -19.11334
 Alpha  occ. eigenvalues --  -19.09525 -14.37762 -14.36120 -14.34682 -14.29374
 Alpha  occ. eigenvalues --  -10.33340 -10.32188 -10.29196 -10.25972 -10.24895
 Alpha  occ. eigenvalues --  -10.24790 -10.23473 -10.23247 -10.23244 -10.23041
 Alpha  occ. eigenvalues --  -10.22955 -10.22884 -10.22235 -10.22014 -10.21640
 Alpha  occ. eigenvalues --  -10.20673 -10.20507 -10.20352 -10.20310 -10.20274
 Alpha  occ. eigenvalues --  -10.20179 -10.20025 -10.19734 -10.19693 -10.19649
 Alpha  occ. eigenvalues --  -10.19603 -10.19570 -10.19437 -10.19401 -10.19389
 Alpha  occ. eigenvalues --  -10.19271 -10.18581 -10.18285  -1.11107  -1.10645
 Alpha  occ. eigenvalues --   -1.04051  -1.02279  -1.01312  -0.99141  -0.98485
 Alpha  occ. eigenvalues --   -0.97483  -0.95228  -0.90565  -0.83069  -0.81676
 Alpha  occ. eigenvalues --   -0.81138  -0.80488  -0.80000  -0.79587  -0.78340
 Alpha  occ. eigenvalues --   -0.75945  -0.75721  -0.74785  -0.73906  -0.72545
 Alpha  occ. eigenvalues --   -0.70731  -0.70153  -0.68832  -0.68350  -0.67745
 Alpha  occ. eigenvalues --   -0.66483  -0.64923  -0.63868  -0.62227  -0.60474
 Alpha  occ. eigenvalues --   -0.59830  -0.59082  -0.57586  -0.56996  -0.56485
 Alpha  occ. eigenvalues --   -0.55664  -0.54845  -0.53928  -0.53001  -0.52672
 Alpha  occ. eigenvalues --   -0.51978  -0.51585  -0.50881  -0.50203  -0.49895
 Alpha  occ. eigenvalues --   -0.49783  -0.48848  -0.48709  -0.48409  -0.47699
 Alpha  occ. eigenvalues --   -0.47310  -0.46539  -0.46154  -0.45910  -0.45251
 Alpha  occ. eigenvalues --   -0.44547  -0.44440  -0.44062  -0.43997  -0.43731
 Alpha  occ. eigenvalues --   -0.42978  -0.42680  -0.42607  -0.42372  -0.42058
 Alpha  occ. eigenvalues --   -0.41616  -0.41354  -0.41187  -0.40987  -0.40539
 Alpha  occ. eigenvalues --   -0.40355  -0.40103  -0.39962  -0.39638  -0.39394
 Alpha  occ. eigenvalues --   -0.39302  -0.39046  -0.38771  -0.37982  -0.37873
 Alpha  occ. eigenvalues --   -0.37755  -0.37448  -0.37070  -0.36552  -0.36337
 Alpha  occ. eigenvalues --   -0.36163  -0.35921  -0.35695  -0.35198  -0.34813
 Alpha  occ. eigenvalues --   -0.33644  -0.33345  -0.33117  -0.32889  -0.32434
 Alpha  occ. eigenvalues --   -0.32178  -0.31327  -0.30328  -0.29739  -0.29459
 Alpha  occ. eigenvalues --   -0.28990  -0.28761  -0.26620  -0.26208  -0.25686
 Alpha  occ. eigenvalues --   -0.25406  -0.24931  -0.23667  -0.23109  -0.21649
 Alpha  occ. eigenvalues --   -0.17926
 Alpha virt. eigenvalues --   -0.10752  -0.05458  -0.03475  -0.01843  -0.01294
 Alpha virt. eigenvalues --    0.00988   0.01857   0.02220   0.02611   0.03903
 Alpha virt. eigenvalues --    0.04796   0.04830   0.05491   0.05503   0.05623

 Mulliken charges:
               1
     1  O   -0.204134
     2  O   -0.210957
     3  O   -0.235652
     4  O   -0.293026
     5  O   -0.136158
     6  O   -0.222412
     7  N   -0.003299
     8  N   -0.126324
     9  N   -0.151384
    10  N   -0.322179
    11  C   -0.070058
    12  C    0.077332
    13  C   -0.183907
    14  C   -0.005228
    15  C   -0.015649
    16  C    0.093173
    17  C   -0.008062
    18  C   -0.144794
    19  C    0.055950
    20  C   -0.139682
    21  C    0.116488
    22  C    0.086966
    23  C    0.006751
    24  C    0.045475
    25  C   -0.069665
    26  C    0.186885
    27  C    0.112582
    28  C    0.020786
    29  C   -0.140512
    30  C    0.096045
    31  C   -0.093404
    32  C    0.057198
    33  C   -0.103171
    34  C    0.087154
    35  C   -0.100001
    36  C   -0.123814
    37  C    0.114260
    38  C   -0.061903
    39  C    0.159518
    40  C    0.000116
    41  C    0.145794
    42  C    0.132819
    43  C   -0.119065
    44  H    0.046806
    45  H    0.003746
    46  H    0.016924
    47  H    0.036743
    48  H    0.062733
    49  H    0.022801
    50  H    0.029072
    51  H    0.001977
    52  H    0.197817
    53  H   -0.045786
    54  H    0.015181
    55  H    0.021002
    56  H    0.161615
    57  H    0.060328
    58  H    0.048665
    59  H    0.076103
    60  H    0.044806
    61  H    0.019580
    62  H    0.002609
    63  H    0.028152
    64  H   -0.050322
    65  H    0.036525
    66  H    0.023498
    67  H    0.029565
    68  H   -0.003267
    69  H    0.109842
    70  H    0.020922
    71  H    0.038351
    72  H    0.005831
    73  H    0.037978
    74  H    0.032431
    75  H   -0.016774
    76  H    0.038992
    77  H    0.027811
    78  H    0.034079
    79  H    0.055728
    80  H    0.237074
    81  H    0.180007
 Sum of Mulliken charges =  -0.00000

 Dipole moment (field-independent basis, Debye):
    X=             -2.8256    Y=             -1.4556    Z=             -0.1400  Tot=              3.1816
 Quadrupole moment (field-independent basis, Debye-Ang):
   XX=           -249.6674   YY=           -236.5364   ZZ=           -254.0019
   XY=             14.4277   XZ=              6.6746   YZ=            -18.4985

 Normal termination of Gaussian 16 at Sat Jun 29 16:11:25 2019.
