 Gaussian 16, Revision A.03,
 Gaussian 16:  ES64L-G16RevA.03 25-Dec-2016

 --------------------------
 # td=(NStates=1) B3LYP/SVP
 --------------------------

 --
 TD
 --
 Symbolic Z-matrix:
 Charge =  0 Multiplicity = 1

                         Standard orientation:
 ---------------------------------------------------------------------
 Center     Atomic      Atomic             Coordinates (Angstroms)
 Number     Number       Type             X           Y           Z
 ---------------------------------------------------------------------
      1          8           0        4.313596   -4.834865   -1.953204
      2          8           0       -3.110909   -4.899197   -1.182983
      3          8           0       -7.130752   -1.188342   -1.755091
      4          8           0       -3.697875   -2.954644   -0.092919
      5          8           0       -7.668384   -0.431057    0.157676
      6          8           0        3.070459    2.299684    0.017611
      7          7           0        0.206940   -0.606596    0.618995
      8          7           0       -1.502444    1.843414    0.190422
      9          7           0        3.304171   -3.247284   -0.568147
     10          7           0        0.828813    2.944522    0.025035
     11          6           0       -0.748643   -2.514813    1.272548
     12          6           0       -0.985414   -1.179643    0.843047
     13          6           0        0.680329   -2.718857    1.165761
     14          6           0        1.279937   -1.491365    0.750057
     15          6           0       -3.771939    1.530505    0.389844
     16          6           0       -2.365176    0.949121    0.409381
     17          6           0       -2.210856   -0.373741    0.789272
     18          6           0       -3.501212    2.838043    0.039149
     19          6           0       -1.736536   -3.339680    1.874295
     20          6           0        5.456386   -2.753577   -1.383971
     21          6           0        3.537997   -1.949296   -0.070081
     22          6           0       -2.037722    3.090678   -0.035870
     23          6           0        5.014416   -1.646086   -0.441640
     24          6           0       -5.055456    0.868432    0.260509
     25          6           0        2.647342   -1.138247    0.473193
     26          6           0        1.344074   -3.962218    1.803606
     27          6           0        4.326197   -3.792366   -1.291027
     28          6           0       -2.379857   -4.559394    1.042223
     29          6           0       -5.359830   -0.148584   -0.814267
     30          6           0       -4.452431    3.809080   -0.480605
     31          6           0       -1.195435    4.180120   -0.111769
     32          6           0        6.939724   -3.421027   -1.095274
     33          6           0        5.796457   -0.735942    0.220525
     34          6           0        0.216836    4.132924   -0.055266
     35          6           0        1.188129    5.277226   -0.354302
     36          6           0        2.406964    4.629676   -0.319009
     37          6           0       -3.117393   -4.079116   -0.145020
     38          6           0        5.403873    0.260078    1.280784
     39          6           0       -6.819450   -0.557604   -0.733806
     40          6           0        3.794064    5.327774   -0.456391
     41          6           0        2.186465    3.183880   -0.057390
     42          6           0        0.720134    6.754459   -0.747472
     43          6           0        4.395262    5.735783    0.986336
     44          1           0        0.139449    0.247952    0.037473
     45          1           0       -3.110804   -1.121474    1.006276
     46          1           0       -2.632747   -2.952986    2.585367
     47          1           0       -1.153290   -3.859133    2.712763
     48          1           0        5.454302   -2.505266   -2.487867
     49          1           0       -5.183255    0.228784    1.320339
     50          1           0       -5.850565    1.603615    0.258401
     51          1           0        3.084884   -0.131036    0.530580
     52          1           0       -0.577191    1.696537    0.407106
     53          1           0        1.438636   -4.618819    0.907916
     54          1           0        2.206547   -3.624763    2.231044
     55          1           0        0.685675   -4.614004    2.681182
     56          1           0        2.386616   -3.642480   -0.403448
     57          1           0       -1.520976   -5.122415    0.740523
     58          1           0       -2.977239   -5.210128    1.572589
     59          1           0       -4.777939   -1.100733   -0.784146
     60          1           0       -5.270653    0.184597   -1.808231
     61          1           0       -4.320552    4.712260    0.275156
     62          1           0       -5.441424    3.369906   -0.425368
     63          1           0       -4.071560    4.323553   -1.515308
     64          1           0       -1.621368    5.189105   -0.373371
     65          1           0        7.900130   -2.650947   -0.953294
     66          1           0        7.267880   -4.109064   -1.938326
     67          1           0        6.865048   -3.984263   -0.210964
     68          1           0        6.624300   -0.758232   -0.508005
     69          1           0        4.719838    1.092843    1.114389
     70          1           0        6.332380    0.564689    1.818123
     71          1           0        5.049294   -0.423346    2.030251
     72          1           0        3.578467    6.173003   -0.931547
     73          1           0        4.525223    4.679898   -0.960926
     74          1           0        0.431490    6.790908   -1.896011
     75          1           0        1.580792    7.354267   -0.876179
     76          1           0        0.294453    7.250381    0.162951
     77          1           0        3.790340    6.314854    1.578494
     78          1           0        5.319160    6.427562    0.790504
     79          1           0        4.704688    4.738970    1.489402
     80          1           0       -3.547596   -4.506423   -1.878160
     81          1           0       -7.977295   -1.716537   -1.736746
 ---------------------------------------------------------------------

 SCF Done:  E(RB3LYP) =  -1949.08961481     A.U. after   16 cycles

 Excitation energies and oscillator strengths:

 Excited State   1:      Singlet-A      1.8388 eV  674.26 nm  f=0.3449  <S**2>=0.000
     156 ->157         0.70718
     156 <-157        -0.12270
 This state for optimization and/or second-order correction.
 Total Energy, E(TD-HF/TD-DFT) =  -1949.02203997
 Copying the excited state density for this state as the 1-particle RhoCI density.

 The electronic state is 1-A.
 Alpha  occ. eigenvalues --  -19.21304 -19.18878 -19.14201 -19.10418 -19.10302
 Alpha  occ. eigenvalues --  -19.09869 -14.37602 -14.36869 -14.36720 -14.28652
 Alpha  occ. eigenvalues --  -10.34283 -10.31038 -10.28702 -10.26376 -10.24837
 Alpha  occ. eigenvalues --  -10.23844 -10.23546 -10.23244 -10.23106 -10.22305
 Alpha  occ. eigenvalues --  -10.21734 -10.21450 -10.21257 -10.21209 -10.21173
 Alpha  occ. eigenvalues --  -10.21067 -10.21045 -10.21000 -10.20967 -10.20649
 Alpha  occ. eigenvalues --  -10.20470 -10.20269 -10.20074 -10.20003 -10.19971
 Alpha  occ. eigenvalues --  -10.19510 -10.19448 -10.19397 -10.19172 -10.18733
 Alpha  occ. eigenvalues --  -10.18599 -10.18207 -10.17810  -1.13254  -1.13120
 Alpha  occ. eigenvalues --   -1.01939  -1.01685  -1.01090  -0.99825  -0.98314
 Alpha  occ. eigenvalues --   -0.98020  -0.94332  -0.91651  -0.83355  -0.82148
 Alpha  occ. eigenvalues --   -0.81480  -0.80356  -0.79699  -0.78836  -0.77992
 Alpha  occ. eigenvalues --   -0.77807  -0.75741  -0.74194  -0.73686  -0.72817
 Alpha  occ. eigenvalues --   -0.71811  -0.70175  -0.69317  -0.68956  -0.68663
 Alpha  occ. eigenvalues --   -0.67583  -0.65774  -0.65116  -0.63747  -0.63342
 Alpha  occ. eigenvalues --   -0.62116  -0.61097  -0.59239  -0.58345  -0.57839
 Alpha  occ. eigenvalues --   -0.56071  -0.55662  -0.54570  -0.54142  -0.52628
 Alpha  occ. eigenvalues --   -0.52255  -0.51753  -0.50973  -0.50652  -0.50167
 Alpha  occ. eigenvalues --   -0.49949  -0.49644  -0.48795  -0.47833  -0.47682
 Alpha  occ. eigenvalues --   -0.46860  -0.46581  -0.46267  -0.45647  -0.45397
 Alpha  occ. eigenvalues --   -0.45138  -0.44910  -0.44373  -0.44201  -0.43903
 Alpha  occ. eigenvalues --   -0.43128  -0.42824  -0.42543  -0.42426  -0.42034
 Alpha  occ. eigenvalues --   -0.41883  -0.41662  -0.41416  -0.41158  -0.40616
 Alpha  occ. eigenvalues --   -0.40210  -0.39972  -0.39873  -0.39611  -0.39290
 Alpha  occ. eigenvalues --   -0.38753  -0.38609  -0.38545  -0.38301  -0.37559
 Alpha  occ. eigenvalues --   -0.37517  -0.36924  -0.36883  -0.36499  -0.36264
 Alpha  occ. eigenvalues --   -0.35979  -0.35536  -0.35336  -0.35066  -0.34933
 Alpha  occ. eigenvalues --   -0.34225  -0.33800  -0.33471  -0.33147  -0.33100
 Alpha  occ. eigenvalues --   -0.32685  -0.31316  -0.30921  -0.29504  -0.29171
 Alpha  occ. eigenvalues --   -0.27526  -0.26646  -0.26295  -0.25722  -0.25270
 Alpha  occ. eigenvalues --   -0.24898  -0.24413  -0.24248  -0.23542  -0.21712
 Alpha  occ. eigenvalues --   -0.17776
 Alpha virt. eigenvalues --   -0.10642  -0.05530  -0.03218  -0.02458   0.00113
 Alpha virt. eigenvalues --    0.01494   0.02022   0.02712   0.03101   0.03621
 Alpha virt. eigenvalues --    0.04063   0.04223   0.04913   0.05152   0.06211

 Mulliken charges:
               1
     1  O   -0.242012
     2  O   -0.095014
     3  O   -0.103348
     4  O   -0.276721
     5  O   -0.275545
     6  O   -0.231414
     7  N   -0.054529
     8  N    0.092805
     9  N   -0.098920
    10  N   -0.277445
    11  C   -0.022536
    12  C   -0.069023
    13  C   -0.187587
    14  C    0.095025
    15  C   -0.029004
    16  C   -0.005185
    17  C   -0.058956
    18  C   -0.120776
    19  C   -0.033769
    20  C   -0.073817
    21  C    0.016347
    22  C    0.110488
    23  C   -0.068591
    24  C    0.020917
    25  C   -0.053294
    26  C    0.045860
    27  C    0.132703
    28  C    0.087530
    29  C    0.040046
    30  C    0.048978
    31  C   -0.127082
    32  C   -0.001856
    33  C   -0.113591
    34  C    0.038272
    35  C   -0.117041
    36  C   -0.210693
    37  C    0.136664
    38  C    0.096716
    39  C    0.053685
    40  C    0.161903
    41  C    0.164285
    42  C    0.118365
    43  C   -0.035390
    44  H    0.145094
    45  H    0.060363
    46  H    0.042568
    47  H    0.000090
    48  H    0.057700
    49  H    0.045101
    50  H    0.010930
    51  H    0.006612
    52  H    0.083642
    53  H    0.038905
    54  H    0.024049
    55  H    0.051829
    56  H    0.115750
    57  H    0.008012
    58  H    0.020470
    59  H    0.057780
    60  H    0.000182
    61  H    0.034871
    62  H    0.015391
    63  H    0.053457
    64  H   -0.011963
    65  H    0.039161
    66  H    0.039816
    67  H    0.011147
    68  H   -0.001033
    69  H    0.097104
    70  H    0.000352
    71  H    0.005091
    72  H   -0.046588
    73  H    0.019243
    74  H    0.058934
    75  H   -0.025750
    76  H    0.045129
    77  H   -0.004061
    78  H    0.018817
    79  H    0.046909
    80  H    0.155551
    81  H    0.201895
 Sum of Mulliken charges =  -0.00000

 Dipole moment (field-independent basis, Debye):
    X=             -3.6313    Y=              0.9110    Z=             -0.9535  Tot=              3.8633
 Quadrupole moment (field-independent basis, Debye-Ang):
   XX=           -261.9613   YY=           -230.0445   ZZ=           -251.8050
   XY=             26.7738   XZ=             24.3036   YZ=            -13.1476

 Normal termination of Gaussian 16 at Sun Jun 30 18:06:28 2019.
