 Gaussian 16, Revision A.03,
 Gaussian 16:  ES64L-G16RevA.03 25-Dec-2016

 --------------------------
 # td=(NStates=1) B3LYP/SVP
 --------------------------

 --
 TD
 --
 Symbolic Z-matrix:
 Charge =  0 Multiplicity = 1

                         Standard orientation:
 ---------------------------------------------------------------------
 Center     Atomic      Atomic             Coordinates (Angstroms)
 Number     Number       Type             X           Y           Z
 ---------------------------------------------------------------------
      1          8           0        4.829928   -4.512309   -1.774146
      2          8           0       -2.437062   -4.898759   -1.373054
      3          8           0       -7.119619   -1.833888   -1.808050
      4          8           0       -3.547695   -3.319253   -0.207497
      5          8           0       -7.555116   -1.026474    0.205392
      6          8           0        2.776473    2.541173    0.234373
      7          7           0        0.379350   -0.468714    0.689913
      8          7           0       -1.634144    1.650339    0.315763
      9          7           0        3.664187   -2.955085   -0.518127
     10          7           0        0.503905    2.930103    0.083221
     11          6           0       -0.445242   -2.489747    1.345346
     12          6           0       -0.859990   -1.122128    0.973916
     13          6           0        1.033636   -2.567267    1.247452
     14          6           0        1.427814   -1.348106    0.737473
     15          6           0       -3.871818    1.217112    0.331464
     16          6           0       -2.605012    0.600287    0.547019
     17          6           0       -2.201822   -0.620443    0.863942
     18          6           0       -3.693801    2.544582   -0.037255
     19          6           0       -1.295238   -3.594706    1.811355
     20          6           0        5.827074   -2.309913   -1.371436
     21          6           0        3.809440   -1.657482   -0.099051
     22          6           0       -2.339951    2.785476   -0.032744
     23          6           0        5.191456   -1.239910   -0.336625
     24          6           0       -5.196545    0.327466    0.554979
     25          6           0        2.767362   -0.885770    0.444035
     26          6           0        1.797626   -3.777029    1.754684
     27          6           0        4.711451   -3.441972   -1.261501
     28          6           0       -1.682006   -4.619313    0.858772
     29          6           0       -5.472551   -0.512970   -0.757652
     30          6           0       -4.809942    3.460936   -0.389920
     31          6           0       -1.665606    4.051492   -0.170448
     32          6           0        7.233692   -2.740144   -1.250152
     33          6           0        5.923256   -0.276511    0.174537
     34          6           0       -0.265145    4.032673   -0.173280
     35          6           0        0.578133    5.128243   -0.577859
     36          6           0        1.857292    4.799404   -0.393596
     37          6           0       -2.624075   -4.154977   -0.198853
     38          6           0        5.557980    0.627616    1.302842
     39          6           0       -6.790484   -1.146983   -0.710349
     40          6           0        3.093599    5.698596   -0.486031
     41          6           0        1.815761    3.324962    0.065494
     42          6           0        0.016614    6.531141   -0.965459
     43          6           0        3.620587    6.176135    0.918634
     44          1           0        0.599699    0.417516    0.036242
     45          1           0       -2.950941   -1.589270    0.857021
     46          1           0       -2.268216   -3.215426    2.230729
     47          1           0       -0.955700   -3.964971    2.867346
     48          1           0        5.466350   -1.969368   -2.352154
     49          1           0       -5.226104   -0.290138    1.432047
     50          1           0       -6.017289    1.073811    0.727929
     51          1           0        3.018720    0.202577    0.432588
     52          1           0       -0.744737    1.759267    0.552629
     53          1           0        1.645940   -4.732549    1.123351
     54          1           0        2.810019   -3.332288    1.878932
     55          1           0        1.777090   -4.191584    2.815652
     56          1           0        2.696714   -3.255633   -0.714765
     57          1           0       -0.932426   -5.126436    0.325083
     58          1           0       -2.529948   -5.268449    1.448920
     59          1           0       -4.621114   -1.105494   -0.948036
     60          1           0       -5.445692    0.138310   -1.654001
     61          1           0       -4.786438    4.231118    0.484994
     62          1           0       -5.849105    3.092997   -0.301257
     63          1           0       -4.857244    3.920386   -1.499985
     64          1           0       -2.333887    4.858664   -0.265942
     65          1           0        7.810222   -1.930880   -1.372034
     66          1           0        7.415949   -3.424596   -2.034148
     67          1           0        7.375301   -3.123541   -0.192297
     68          1           0        6.865247   -0.370998   -0.253604
     69          1           0        5.529161    1.678996    0.939583
     70          1           0        6.492783    0.799074    2.061698
     71          1           0        4.686081    0.133871    1.822618
     72          1           0        3.240452    6.408009   -1.234309
     73          1           0        3.928027    4.939318   -1.049981
     74          1           0       -0.935470    6.353048   -1.482648
     75          1           0        0.836870    7.075209   -1.565051
     76          1           0       -0.239600    7.044751    0.092876
     77          1           0        2.934947    7.004329    1.415551
     78          1           0        4.518877    6.823579    0.638515
     79          1           0        3.673877    5.297419    1.743682
     80          1           0       -3.164421   -4.749931   -1.986972
     81          1           0       -8.093624   -2.115601   -1.550713
 ---------------------------------------------------------------------

 SCF Done:  E(RB3LYP) =  -1949.12627018     A.U. after   16 cycles

 Excitation energies and oscillator strengths:

 Excited State   1:      Singlet-A      1.9272 eV  643.35 nm  f=0.3763  <S**2>=0.000
     156 ->157         0.70709
     156 <-157        -0.10366
 This state for optimization and/or second-order correction.
 Total Energy, E(TD-HF/TD-DFT) =  -1949.05544796
 Copying the excited state density for this state as the 1-particle RhoCI density.

 The electronic state is 1-A.
 Alpha  occ. eigenvalues --  -19.18758 -19.18687 -19.15024 -19.12406 -19.11217
 Alpha  occ. eigenvalues --  -19.09296 -14.37865 -14.37203 -14.34503 -14.27722
 Alpha  occ. eigenvalues --  -10.34548 -10.31544 -10.28969 -10.25818 -10.24274
 Alpha  occ. eigenvalues --  -10.24218 -10.23648 -10.23510 -10.23488 -10.22828
 Alpha  occ. eigenvalues --  -10.22100 -10.22002 -10.21711 -10.21515 -10.21336
 Alpha  occ. eigenvalues --  -10.20980 -10.20911 -10.20692 -10.20383 -10.20307
 Alpha  occ. eigenvalues --  -10.20166 -10.20163 -10.20154 -10.19963 -10.19900
 Alpha  occ. eigenvalues --  -10.19364 -10.19321 -10.18866 -10.18503 -10.18473
 Alpha  occ. eigenvalues --  -10.18353 -10.18277 -10.17805  -1.10346  -1.09334
 Alpha  occ. eigenvalues --   -1.04553  -1.00518  -1.00500  -0.98951  -0.97442
 Alpha  occ. eigenvalues --   -0.96576  -0.96007  -0.90814  -0.83996  -0.81964
 Alpha  occ. eigenvalues --   -0.81719  -0.81497  -0.78838  -0.78323  -0.77924
 Alpha  occ. eigenvalues --   -0.77449  -0.76459  -0.74901  -0.73281  -0.72202
 Alpha  occ. eigenvalues --   -0.71140  -0.69808  -0.68975  -0.68179  -0.67849
 Alpha  occ. eigenvalues --   -0.66893  -0.65047  -0.64482  -0.62354  -0.61063
 Alpha  occ. eigenvalues --   -0.60357  -0.58563  -0.58323  -0.58265  -0.56738
 Alpha  occ. eigenvalues --   -0.56024  -0.55851  -0.54713  -0.53199  -0.52826
 Alpha  occ. eigenvalues --   -0.52353  -0.51857  -0.50680  -0.50329  -0.49694
 Alpha  occ. eigenvalues --   -0.49286  -0.48719  -0.48519  -0.48252  -0.47951
 Alpha  occ. eigenvalues --   -0.47445  -0.46609  -0.46152  -0.45272  -0.44903
 Alpha  occ. eigenvalues --   -0.44542  -0.44444  -0.43954  -0.43611  -0.43242
 Alpha  occ. eigenvalues --   -0.43166  -0.42912  -0.42608  -0.42310  -0.42130
 Alpha  occ. eigenvalues --   -0.41716  -0.41202  -0.41117  -0.40865  -0.40605
 Alpha  occ. eigenvalues --   -0.40439  -0.40264  -0.39776  -0.39550  -0.39446
 Alpha  occ. eigenvalues --   -0.38997  -0.38855  -0.38621  -0.38528  -0.38405
 Alpha  occ. eigenvalues --   -0.38112  -0.37533  -0.36854  -0.36748  -0.36633
 Alpha  occ. eigenvalues --   -0.36335  -0.36147  -0.35520  -0.35002  -0.34675
 Alpha  occ. eigenvalues --   -0.34460  -0.34175  -0.33329  -0.33136  -0.32742
 Alpha  occ. eigenvalues --   -0.32438  -0.32073  -0.30087  -0.29751  -0.29677
 Alpha  occ. eigenvalues --   -0.28536  -0.27097  -0.26441  -0.25870  -0.25462
 Alpha  occ. eigenvalues --   -0.24902  -0.24585  -0.23445  -0.22790  -0.21196
 Alpha  occ. eigenvalues --   -0.18181
 Alpha virt. eigenvalues --   -0.10434  -0.05525  -0.03921  -0.03073   0.00448
 Alpha virt. eigenvalues --    0.01174   0.01248   0.03182   0.03744   0.04161
 Alpha virt. eigenvalues --    0.04564   0.04707   0.05037   0.05480   0.05896

 Mulliken charges:
               1
     1  O   -0.181715
     2  O   -0.216003
     3  O   -0.207812
     4  O   -0.247982
     5  O   -0.233624
     6  O   -0.243660
     7  N   -0.149764
     8  N   -0.065072
     9  N   -0.069089
    10  N   -0.309708
    11  C   -0.115522
    12  C    0.066465
    13  C   -0.133228
    14  C    0.055627
    15  C   -0.085605
    16  C    0.146892
    17  C   -0.124682
    18  C   -0.110215
    19  C    0.043875
    20  C   -0.110064
    21  C    0.018284
    22  C    0.060320
    23  C   -0.050208
    24  C    0.114371
    25  C   -0.112807
    26  C    0.018718
    27  C    0.069794
    28  C    0.105699
    29  C    0.022790
    30  C    0.016521
    31  C   -0.114623
    32  C    0.169990
    33  C   -0.084866
    34  C    0.154469
    35  C   -0.127473
    36  C   -0.148939
    37  C    0.113275
    38  C    0.064197
    39  C    0.146453
    40  C    0.026824
    41  C    0.157775
    42  C    0.066051
    43  C   -0.052649
    44  H    0.202894
    45  H    0.083866
    46  H    0.002685
    47  H    0.030547
    48  H    0.032284
    49  H    0.021591
    50  H    0.009764
    51  H    0.041534
    52  H    0.068323
    53  H    0.040436
    54  H    0.034837
    55  H    0.028421
    56  H    0.145067
    57  H    0.023661
    58  H    0.075388
    59  H    0.027872
    60  H    0.027689
    61  H    0.040773
    62  H    0.013510
    63  H    0.053827
    64  H   -0.046865
    65  H   -0.014249
    66  H    0.017587
    67  H    0.025412
    68  H   -0.054461
    69  H    0.050054
    70  H    0.014131
    71  H    0.054694
    72  H   -0.015171
    73  H    0.013815
    74  H    0.022124
    75  H    0.040891
    76  H    0.046700
    77  H    0.019064
    78  H    0.023822
    79  H    0.064462
    80  H    0.184858
    81  H    0.205087
 Sum of Mulliken charges =  -0.00000

 Dipole moment (field-independent basis, Debye):
    X=             -3.1853    Y=             -0.4874    Z=             -0.5677  Tot=              3.2720
 Quadrupole moment (field-independent basis, Debye-Ang):
   XX=           -247.7428   YY=           -240.1269   ZZ=           -252.4906
   XY=             14.5339   XZ=             12.4807   YZ=            -12.3759

 Normal termination of Gaussian 16 at Fri Jun 28 20:22:32 2019.
