 Gaussian 16, Revision A.03,
 Gaussian 16:  ES64L-G16RevA.03 25-Dec-2016

 --------------------------
 # td=(NStates=1) B3LYP/SVP
 --------------------------

 --
 TD
 --
 Symbolic Z-matrix:
 Charge =  0 Multiplicity = 1

                         Standard orientation:
 ---------------------------------------------------------------------
 Center     Atomic      Atomic             Coordinates (Angstroms)
 Number     Number       Type             X           Y           Z
 ---------------------------------------------------------------------
      1          8           0        4.386377   -4.772788   -1.812407
      2          8           0       -3.041180   -4.865736   -1.357320
      3          8           0       -7.040391   -1.260223   -1.795530
      4          8           0       -3.712423   -3.043397   -0.203825
      5          8           0       -7.532615   -0.656971    0.269448
      6          8           0        3.129824    2.455557    0.145111
      7          7           0        0.214327   -0.669017    0.524286
      8          7           0       -1.496657    1.862178    0.344326
      9          7           0        3.343663   -3.183737   -0.479789
     10          7           0        0.871497    2.967031    0.078674
     11          6           0       -0.770902   -2.380988    1.339079
     12          6           0       -1.007868   -1.105089    0.908126
     13          6           0        0.607370   -2.635936    1.296867
     14          6           0        1.201905   -1.494130    0.688070
     15          6           0       -3.799268    1.564448    0.338024
     16          6           0       -2.523377    0.851031    0.478349
     17          6           0       -2.209291   -0.483960    0.869452
     18          6           0       -3.519941    2.869471   -0.031973
     19          6           0       -1.805320   -3.451645    1.803468
     20          6           0        5.532089   -2.678033   -1.253237
     21          6           0        3.526400   -1.867634   -0.003150
     22          6           0       -2.070169    3.070638    0.006605
     23          6           0        4.979941   -1.575221   -0.375246
     24          6           0       -5.063206    0.826918    0.437456
     25          6           0        2.606864   -1.081139    0.418307
     26          6           0        1.375743   -3.884563    1.628579
     27          6           0        4.366778   -3.687175   -1.231206
     28          6           0       -2.124147   -4.560244    0.859482
     29          6           0       -5.282305   -0.181615   -0.674329
     30          6           0       -4.600108    3.957241   -0.319798
     31          6           0       -1.184515    4.236325   -0.270660
     32          6           0        6.913476   -3.353843   -0.997575
     33          6           0        5.846599   -0.714612    0.146315
     34          6           0        0.191786    4.083098   -0.223473
     35          6           0        1.131474    5.248769   -0.425025
     36          6           0        2.398032    4.705549   -0.373134
     37          6           0       -3.038096   -4.104574   -0.251067
     38          6           0        5.373574    0.283468    1.214379
     39          6           0       -6.789671   -0.743084   -0.671597
     40          6           0        3.712359    5.274494   -0.416538
     41          6           0        2.188386    3.263919    0.042240
     42          6           0        0.766033    6.594520   -0.932078
     43          6           0        4.299451    5.484814    0.982033
     44          1           0        0.158438    0.325330   -0.035260
     45          1           0       -3.018498   -1.210259    0.994412
     46          1           0       -2.937631   -2.948403    1.917876
     47          1           0       -1.496519   -3.763571    2.858551
     48          1           0        5.645035   -2.286158   -2.115030
     49          1           0       -5.040620    0.194044    1.349947
     50          1           0       -5.866570    1.518873    0.545560
     51          1           0        2.658715    0.028486    0.501567
     52          1           0       -0.412425    1.856018    0.335916
     53          1           0        1.622470   -4.754909    0.721675
     54          1           0        2.637262   -3.532715    1.811360
     55          1           0        0.979873   -4.443596    2.495189
     56          1           0        2.424241   -3.545880   -0.677283
     57          1           0       -1.327886   -5.320354    0.533314
     58          1           0       -2.872457   -5.293300    1.142458
     59          1           0       -4.705273   -1.004902   -0.867807
     60          1           0       -5.344098    0.468516   -1.543447
     61          1           0       -4.562076    4.833849    0.374448
     62          1           0       -5.687559    3.472692   -0.417574
     63          1           0       -4.349903    4.454063   -1.242621
     64          1           0       -1.590315    5.200787   -0.372638
     65          1           0        7.785964   -2.569406   -0.889243
     66          1           0        7.146814   -4.028087   -1.793231
     67          1           0        7.034645   -3.832816   -0.069827
     68          1           0        7.012964   -1.036736   -0.176405
     69          1           0        4.877844    1.197117    0.624959
     70          1           0        6.094581    0.723757    1.915038
     71          1           0        4.481735   -0.065990    1.913390
     72          1           0        3.822807    6.232437   -1.185337
     73          1           0        4.239875    4.303794   -1.077271
     74          1           0        0.247998    6.437008   -1.864583
     75          1           0        1.774892    7.320142   -0.756534
     76          1           0       -0.144463    6.914771   -0.305539
     77          1           0        3.415306    6.130392    1.453765
     78          1           0        5.258035    5.831750    0.707128
     79          1           0        4.301082    4.440058    1.582153
     80          1           0       -3.739077   -4.456519   -1.922965
     81          1           0       -7.952233   -1.464321   -1.742870
 ---------------------------------------------------------------------

 SCF Done:  E(RB3LYP) =  -1949.07209441     A.U. after   16 cycles

 Excitation energies and oscillator strengths:

 Excited State   1:      Singlet-A      2.1121 eV  587.01 nm  f=0.4032  <S**2>=0.000
     156 ->157         0.70451
     156 <-157        -0.10613
 This state for optimization and/or second-order correction.
 Total Energy, E(TD-HF/TD-DFT) =  -1948.99447511
 Copying the excited state density for this state as the 1-particle RhoCI density.

 The electronic state is 1-A.
 Alpha  occ. eigenvalues --  -19.21140 -19.20359 -19.14719 -19.12396 -19.10509
 Alpha  occ. eigenvalues --  -19.09256 -14.39170 -14.37171 -14.36500 -14.28646
 Alpha  occ. eigenvalues --  -10.34833 -10.31870 -10.28889 -10.25521 -10.25261
 Alpha  occ. eigenvalues --  -10.24580 -10.24284 -10.24084 -10.23289 -10.23129
 Alpha  occ. eigenvalues --  -10.22941 -10.22412 -10.22347 -10.21968 -10.21124
 Alpha  occ. eigenvalues --  -10.20987 -10.20946 -10.20509 -10.20497 -10.20277
 Alpha  occ. eigenvalues --  -10.20049 -10.19947 -10.19667 -10.19325 -10.19321
 Alpha  occ. eigenvalues --  -10.19276 -10.19053 -10.18957 -10.18883 -10.18818
 Alpha  occ. eigenvalues --  -10.18755 -10.18570 -10.17491  -1.14887  -1.11840
 Alpha  occ. eigenvalues --   -1.02619  -1.02005  -1.01652  -1.01100  -0.99738
 Alpha  occ. eigenvalues --   -0.96132  -0.95298  -0.91547  -0.83332  -0.82432
 Alpha  occ. eigenvalues --   -0.81951  -0.81831  -0.79600  -0.79163  -0.79018
 Alpha  occ. eigenvalues --   -0.77207  -0.76735  -0.74848  -0.73941  -0.72296
 Alpha  occ. eigenvalues --   -0.70985  -0.69223  -0.68867  -0.68410  -0.68029
 Alpha  occ. eigenvalues --   -0.67643  -0.65846  -0.63920  -0.62544  -0.61866
 Alpha  occ. eigenvalues --   -0.61375  -0.60365  -0.59532  -0.59335  -0.56993
 Alpha  occ. eigenvalues --   -0.56070  -0.55661  -0.54615  -0.53394  -0.52429
 Alpha  occ. eigenvalues --   -0.52105  -0.51698  -0.51115  -0.50662  -0.50614
 Alpha  occ. eigenvalues --   -0.50104  -0.49765  -0.48969  -0.48431  -0.48234
 Alpha  occ. eigenvalues --   -0.47711  -0.47019  -0.46532  -0.46038  -0.45270
 Alpha  occ. eigenvalues --   -0.45132  -0.44674  -0.44429  -0.44258  -0.43379
 Alpha  occ. eigenvalues --   -0.43069  -0.42854  -0.42617  -0.42335  -0.41892
 Alpha  occ. eigenvalues --   -0.41792  -0.41663  -0.41389  -0.41149  -0.40971
 Alpha  occ. eigenvalues --   -0.40362  -0.40043  -0.39945  -0.39865  -0.39463
 Alpha  occ. eigenvalues --   -0.39407  -0.38856  -0.38588  -0.38043  -0.37802
 Alpha  occ. eigenvalues --   -0.37677  -0.37561  -0.36938  -0.36551  -0.36230
 Alpha  occ. eigenvalues --   -0.36216  -0.35919  -0.35607  -0.34973  -0.34504
 Alpha  occ. eigenvalues --   -0.34288  -0.33961  -0.33765  -0.33677  -0.33397
 Alpha  occ. eigenvalues --   -0.32602  -0.32334  -0.30730  -0.30097  -0.29852
 Alpha  occ. eigenvalues --   -0.27822  -0.27154  -0.26176  -0.25786  -0.25438
 Alpha  occ. eigenvalues --   -0.25268  -0.24696  -0.23681  -0.22877  -0.21987
 Alpha  occ. eigenvalues --   -0.18790
 Alpha virt. eigenvalues --   -0.10425  -0.05188  -0.03175  -0.02139   0.00229
 Alpha virt. eigenvalues --    0.01646   0.02054   0.02474   0.03066   0.03701
 Alpha virt. eigenvalues --    0.04007   0.04328   0.04458   0.04781   0.05209

 Mulliken charges:
               1
     1  O   -0.233104
     2  O   -0.163897
     3  O   -0.063679
     4  O   -0.280081
     5  O   -0.231743
     6  O   -0.252810
     7  N   -0.028995
     8  N   -0.184744
     9  N   -0.112390
    10  N   -0.261786
    11  C   -0.059756
    12  C    0.044791
    13  C   -0.103417
    14  C   -0.008445
    15  C   -0.063407
    16  C    0.067455
    17  C   -0.046849
    18  C   -0.142098
    19  C    0.025913
    20  C    0.029964
    21  C    0.175823
    22  C    0.087869
    23  C   -0.033081
    24  C    0.151395
    25  C   -0.114092
    26  C   -0.080331
    27  C    0.103302
    28  C    0.054647
    29  C    0.012546
    30  C    0.071221
    31  C   -0.092329
    32  C    0.052019
    33  C   -0.134384
    34  C    0.109718
    35  C   -0.138581
    36  C   -0.139419
    37  C    0.119135
    38  C   -0.052492
    39  C    0.062615
    40  C   -0.094349
    41  C    0.138963
    42  C    0.075107
    43  C    0.009722
    44  H    0.182963
    45  H    0.015648
    46  H    0.045258
    47  H    0.036978
    48  H   -0.025905
    49  H    0.014260
    50  H   -0.008740
    51  H    0.043211
    52  H    0.156290
    53  H    0.047145
    54  H    0.062520
    55  H    0.027350
    56  H    0.137691
    57  H    0.048127
    58  H    0.032018
    59  H    0.021616
    60  H    0.008355
    61  H    0.030950
    62  H    0.040886
    63  H    0.008175
    64  H   -0.054410
    65  H    0.015878
    66  H    0.029537
    67  H   -0.001597
    68  H    0.034695
    69  H    0.098812
    70  H    0.011928
    71  H    0.043214
    72  H    0.023277
    73  H    0.038223
    74  H    0.021820
    75  H    0.063642
    76  H    0.014732
    77  H    0.033583
    78  H    0.023289
    79  H    0.058473
    80  H    0.195398
    81  H    0.148766
 Sum of Mulliken charges =  -0.00000

 Dipole moment (field-independent basis, Debye):
    X=             -4.8608    Y=             -0.9480    Z=             -1.2142  Tot=              5.0990
 Quadrupole moment (field-independent basis, Debye-Ang):
   XX=           -247.9261   YY=           -244.2166   ZZ=           -256.6175
   XY=             15.5794   XZ=             20.5534   YZ=            -11.5779

 Normal termination of Gaussian 16 at Mon Jul  1 07:32:16 2019.
