 Gaussian 16, Revision A.03,
 Gaussian 16:  ES64L-G16RevA.03 25-Dec-2016

 --------------------------
 # td=(NStates=1) B3LYP/SVP
 --------------------------

 --
 TD
 --
 Symbolic Z-matrix:
 Charge =  0 Multiplicity = 1

                         Standard orientation:
 ---------------------------------------------------------------------
 Center     Atomic      Atomic             Coordinates (Angstroms)
 Number     Number       Type             X           Y           Z
 ---------------------------------------------------------------------
      1          8           0       -4.661769   -4.600271    1.834046
      2          8           0        2.551187   -4.846359    1.463660
      3          8           0        7.179150   -1.475573    1.765419
      4          8           0        3.628978   -3.264303    0.250469
      5          8           0        7.516026   -0.697044   -0.327222
      6          8           0       -2.961790    2.432766   -0.210973
      7          7           0       -0.292661   -0.553307   -0.844184
      8          7           0        1.634865    1.700774   -0.411073
      9          7           0       -3.533012   -3.055660    0.560426
     10          7           0       -0.639246    2.959552   -0.202599
     11          6           0        0.593558   -2.588052   -1.387486
     12          6           0        0.949134   -1.195211   -0.951198
     13          6           0       -0.868852   -2.629182   -1.214667
     14          6           0       -1.402108   -1.434437   -0.754437
     15          6           0        3.839469    1.327013   -0.397057
     16          6           0        2.539497    0.786737   -0.616340
     17          6           0        2.228598   -0.639103   -0.874737
     18          6           0        3.704039    2.589865    0.051942
     19          6           0        1.557631   -3.616375   -1.768045
     20          6           0       -5.632044   -2.327009    1.306675
     21          6           0       -3.773917   -1.818218    0.143378
     22          6           0        2.218570    2.868952   -0.054401
     23          6           0       -5.046039   -1.286691    0.378531
     24          6           0        5.155290    0.576692   -0.526395
     25          6           0       -2.692138   -1.011668   -0.551357
     26          6           0       -1.616892   -3.794201   -1.637130
     27          6           0       -4.632559   -3.509332    1.279734
     28          6           0        1.898187   -4.662666   -0.776104
     29          6           0        5.525143   -0.170943    0.722087
     30          6           0        4.760863    3.612059    0.605078
     31          6           0        1.458994    3.990161    0.222344
     32          6           0       -7.118702   -2.814576    1.126192
     33          6           0       -5.772346   -0.345289   -0.201387
     34          6           0        0.040654    4.005547    0.202286
     35          6           0       -0.834869    5.194796    0.490572
     36          6           0       -2.121542    4.761723    0.431936
     37          6           0        2.756873   -4.183452    0.348620
     38          6           0       -5.403609    0.443782   -1.291990
     39          6           0        6.855099   -0.849827    0.690847
     40          6           0       -3.461313    5.392399    0.601038
     41          6           0       -1.980723    3.233934   -0.039196
     42          6           0       -0.335022    6.595428    0.666295
     43          6           0       -4.015638    5.832819   -0.759909
     44          1           0       -0.258718    0.365629   -0.275822
     45          1           0        3.091513   -1.063132   -1.066348
     46          1           0        2.473262   -3.434776   -2.194124
     47          1           0        1.114369   -4.243613   -2.561183
     48          1           0       -5.686623   -1.817636    2.292967
     49          1           0        4.962089   -0.182055   -1.343724
     50          1           0        5.895537    1.289013   -0.996283
     51          1           0       -2.863228   -0.053199   -0.831734
     52          1           0        0.582537    1.619527   -0.326565
     53          1           0       -1.824268   -4.453585   -0.772869
     54          1           0       -2.545300   -3.271356   -2.201120
     55          1           0       -1.046454   -4.394174   -2.467623
     56          1           0       -2.669633   -3.468578    0.642400
     57          1           0        0.950890   -5.055502   -0.220084
     58          1           0        2.146861   -5.706208   -1.225915
     59          1           0        4.833121   -0.998825    1.241809
     60          1           0        5.490623    0.510757    1.464014
     61          1           0        4.367416    4.761208    0.354984
     62          1           0        5.636294    3.152414    0.182732
     63          1           0        4.872061    3.499114    1.837987
     64          1           0        1.942381    4.937890    0.478126
     65          1           0       -7.852957   -1.880005    1.299736
     66          1           0       -7.464620   -3.786568    1.736478
     67          1           0       -7.381519   -3.093552    0.100094
     68          1           0       -6.718764   -0.532150    0.107668
     69          1           0       -4.610851    1.412951   -1.082718
     70          1           0       -6.236073    0.860356   -2.022899
     71          1           0       -4.737002   -0.044946   -2.063630
     72          1           0       -3.441501    6.331021    1.242123
     73          1           0       -4.030683    4.531146    1.151080
     74          1           0        0.238094    6.604620    1.641204
     75          1           0       -1.113245    7.346168    0.861183
     76          1           0        0.336545    6.988172   -0.126267
     77          1           0       -3.256698    6.662079   -1.129232
     78          1           0       -5.088174    6.162623   -0.557069
     79          1           0       -4.056305    5.115865   -1.620041
     80          1           0        3.245223   -4.577143    1.939905
     81          1           0        8.260181   -1.860838    1.795257
 ---------------------------------------------------------------------

 SCF Done:  E(RB3LYP) =  -1949.05791125     A.U. after   17 cycles

 Excitation energies and oscillator strengths:

 Excited State   1:      Singlet-A      1.7171 eV  722.04 nm  f=0.4317  <S**2>=0.000
     156 ->157         0.71483
     156 <-157        -0.15993
 This state for optimization and/or second-order correction.
 Total Energy, E(TD-HF/TD-DFT) =  -1948.99480803
 Copying the excited state density for this state as the 1-particle RhoCI density.

 The electronic state is 1-A.
 Alpha  occ. eigenvalues --  -19.20377 -19.20206 -19.13763 -19.12194 -19.10747
 Alpha  occ. eigenvalues --  -19.09990 -14.38024 -14.37193 -14.36034 -14.28940
 Alpha  occ. eigenvalues --  -10.33689 -10.31008 -10.30365 -10.26698 -10.25121
 Alpha  occ. eigenvalues --  -10.23488 -10.23339 -10.22884 -10.22668 -10.22526
 Alpha  occ. eigenvalues --  -10.22385 -10.22367 -10.21604 -10.21124 -10.20728
 Alpha  occ. eigenvalues --  -10.20695 -10.20189 -10.20100 -10.20017 -10.19961
 Alpha  occ. eigenvalues --  -10.19576 -10.19555 -10.19465 -10.19448 -10.19424
 Alpha  occ. eigenvalues --  -10.19297 -10.19146 -10.19035 -10.19003 -10.18755
 Alpha  occ. eigenvalues --  -10.18592 -10.18524 -10.18330  -1.14276  -1.09769
 Alpha  occ. eigenvalues --   -1.04681  -1.00052  -0.99908  -0.99395  -0.98152
 Alpha  occ. eigenvalues --   -0.98013  -0.95979  -0.91731  -0.83984  -0.83049
 Alpha  occ. eigenvalues --   -0.82132  -0.81058  -0.79259  -0.78671  -0.77508
 Alpha  occ. eigenvalues --   -0.76935  -0.76591  -0.74971  -0.74133  -0.72380
 Alpha  occ. eigenvalues --   -0.70886  -0.70203  -0.68860  -0.67910  -0.67524
 Alpha  occ. eigenvalues --   -0.67231  -0.65876  -0.65368  -0.62850  -0.61571
 Alpha  occ. eigenvalues --   -0.60658  -0.60102  -0.59284  -0.58953  -0.57395
 Alpha  occ. eigenvalues --   -0.56827  -0.56308  -0.54365  -0.53801  -0.52274
 Alpha  occ. eigenvalues --   -0.51938  -0.51642  -0.51097  -0.50982  -0.50364
 Alpha  occ. eigenvalues --   -0.49728  -0.48756  -0.48575  -0.47893  -0.47468
 Alpha  occ. eigenvalues --   -0.47169  -0.46629  -0.46368  -0.45899  -0.45697
 Alpha  occ. eigenvalues --   -0.45146  -0.44881  -0.44668  -0.44434  -0.43920
 Alpha  occ. eigenvalues --   -0.43714  -0.43202  -0.43086  -0.42250  -0.42136
 Alpha  occ. eigenvalues --   -0.41584  -0.41348  -0.41060  -0.40850  -0.40613
 Alpha  occ. eigenvalues --   -0.40582  -0.39934  -0.39729  -0.39488  -0.39147
 Alpha  occ. eigenvalues --   -0.39056  -0.38536  -0.38469  -0.38272  -0.37944
 Alpha  occ. eigenvalues --   -0.37482  -0.37118  -0.37094  -0.37018  -0.36444
 Alpha  occ. eigenvalues --   -0.36164  -0.35779  -0.34854  -0.34509  -0.34008
 Alpha  occ. eigenvalues --   -0.33561  -0.33396  -0.33192  -0.33044  -0.32694
 Alpha  occ. eigenvalues --   -0.32399  -0.32054  -0.31564  -0.29521  -0.29100
 Alpha  occ. eigenvalues --   -0.27460  -0.27214  -0.26692  -0.25964  -0.25631
 Alpha  occ. eigenvalues --   -0.25459  -0.24395  -0.23669  -0.22861  -0.20923
 Alpha  occ. eigenvalues --   -0.16495
 Alpha virt. eigenvalues --   -0.10198  -0.06093  -0.04098  -0.02788  -0.01562
 Alpha virt. eigenvalues --   -0.01495   0.01863   0.02609   0.02867   0.03640
 Alpha virt. eigenvalues --    0.04279   0.04937   0.05198   0.05679   0.06195

 Mulliken charges:
               1
     1  O   -0.203484
     2  O   -0.062637
     3  O   -0.216354
     4  O   -0.285258
     5  O   -0.257069
     6  O   -0.273728
     7  N   -0.148035
     8  N   -0.006620
     9  N    0.003267
    10  N   -0.261147
    11  C   -0.056064
    12  C    0.103192
    13  C   -0.186454
    14  C    0.156872
    15  C   -0.122056
    16  C   -0.050611
    17  C    0.080008
    18  C   -0.125614
    19  C    0.194587
    20  C   -0.092263
    21  C   -0.028254
    22  C    0.088481
    23  C   -0.011674
    24  C    0.101708
    25  C   -0.053119
    26  C    0.014332
    27  C    0.145928
    28  C   -0.077047
    29  C    0.023206
    30  C    0.028849
    31  C   -0.124297
    32  C   -0.046650
    33  C    0.041786
    34  C    0.049521
    35  C   -0.093163
    36  C   -0.194967
    37  C    0.138211
    38  C   -0.063340
    39  C    0.135869
    40  C    0.048052
    41  C    0.175084
    42  C    0.093379
    43  C   -0.034799
    44  H    0.152639
    45  H   -0.106357
    46  H   -0.010843
    47  H   -0.021502
    48  H    0.062548
    49  H    0.013857
    50  H    0.041192
    51  H   -0.055431
    52  H    0.144316
    53  H    0.027909
    54  H    0.054295
    55  H    0.028466
    56  H    0.111411
    57  H    0.024566
    58  H    0.062233
    59  H    0.059577
    60  H   -0.019679
    61  H    0.066089
    62  H    0.021574
    63  H    0.053269
    64  H   -0.041341
    65  H    0.041053
    66  H    0.064286
    67  H    0.014571
    68  H   -0.073445
    69  H    0.119671
    70  H    0.022050
    71  H    0.023383
    72  H    0.009141
    73  H    0.037529
    74  H    0.016929
    75  H    0.005094
    76  H    0.033093
    77  H    0.022402
    78  H    0.026238
    79  H    0.033045
    80  H    0.126546
    81  H    0.261999
 Sum of Mulliken charges =  -0.00000

 Dipole moment (field-independent basis, Debye):
    X=              2.8287    Y=             -1.2249    Z=              1.9406  Tot=              3.6425
 Quadrupole moment (field-independent basis, Debye-Ang):
   XX=           -242.8450   YY=           -235.9790   ZZ=           -253.9193
   XY=            -15.7580   XZ=             23.2057   YZ=              9.9955

 Normal termination of Gaussian 16 at Sun Jun 30 01:38:11 2019.
