 Gaussian 16, Revision A.03,
 Gaussian 16:  ES64L-G16RevA.03 25-Dec-2016

 --------------------------
 # td=(NStates=1) B3LYP/SVP
 --------------------------

 --
 TD
 --
 Symbolic Z-matrix:
 Charge =  0 Multiplicity = 1

                         Standard orientation:
 ---------------------------------------------------------------------
 Center     Atomic      Atomic             Coordinates (Angstroms)
 Number     Number       Type             X           Y           Z
 ---------------------------------------------------------------------
      1          8           0        4.733568   -4.549026   -1.788268
      2          8           0       -2.513214   -4.657385   -1.307475
      3          8           0       -7.011436   -1.684187   -1.886373
      4          8           0       -3.824297   -3.372145    0.053352
      5          8           0       -7.721195   -0.704026   -0.035299
      6          8           0        2.959487    2.617519    0.203412
      7          7           0        0.345626   -0.568409    0.599100
      8          7           0       -1.644824    1.685772    0.313091
      9          7           0        3.565880   -2.922261   -0.648574
     10          7           0        0.658437    2.863854    0.104869
     11          6           0       -0.498853   -2.492050    1.434709
     12          6           0       -0.833745   -1.199956    0.947434
     13          6           0        0.931121   -2.648310    1.289473
     14          6           0        1.385562   -1.438664    0.698925
     15          6           0       -3.799796    1.226334    0.361327
     16          6           0       -2.576511    0.635813    0.564730
     17          6           0       -2.176500   -0.637760    0.836466
     18          6           0       -3.656941    2.614932   -0.028383
     19          6           0       -1.453968   -3.605211    1.897248
     20          6           0        5.643347   -2.314753   -1.393259
     21          6           0        3.729063   -1.644393   -0.248750
     22          6           0       -2.300042    2.799340    0.044833
     23          6           0        5.114065   -1.225080   -0.434078
     24          6           0       -5.088835    0.614403    0.412956
     25          6           0        2.717084   -0.916634    0.452678
     26          6           0        1.688510   -3.810349    1.775132
     27          6           0        4.679425   -3.490791   -1.340860
     28          6           0       -1.836397   -4.672871    0.846416
     29          6           0       -5.391827   -0.312668   -0.738357
     30          6           0       -4.699475    3.675144   -0.148462
     31          6           0       -1.487161    3.950397   -0.297804
     32          6           0        7.022699   -2.868357   -1.163488
     33          6           0        5.870546   -0.359083    0.155355
     34          6           0       -0.166367    3.933034   -0.115133
     35          6           0        0.762042    5.150759   -0.552774
     36          6           0        2.002184    4.731555   -0.345053
     37          6           0       -2.837408   -4.111489   -0.114838
     38          6           0        5.432471    0.713746    1.132544
     39          6           0       -6.827834   -0.924562   -0.817379
     40          6           0        3.414673    5.338803   -0.377713
     41          6           0        1.922740    3.277331    0.027369
     42          6           0        0.100375    6.417174   -0.908320
     43          6           0        3.897009    5.737836    1.016377
     44          1           0        0.310733    0.394757    0.159034
     45          1           0       -2.985485   -1.329244    1.308851
     46          1           0       -2.531668   -3.190893    2.271133
     47          1           0       -0.989408   -4.260396    2.733703
     48          1           0        5.633524   -1.737835   -2.203530
     49          1           0       -5.059598   -0.142367    1.246627
     50          1           0       -5.800751    1.245462    0.393266
     51          1           0        2.776051    0.194117    0.596789
     52          1           0       -0.756523    1.600021    0.277606
     53          1           0        1.957249   -4.435112    1.069883
     54          1           0        2.781007   -3.554229    2.133463
     55          1           0        1.414850   -4.342544    2.703752
     56          1           0        2.822475   -3.640522   -0.467778
     57          1           0       -1.008553   -4.991357    0.351612
     58          1           0       -2.177407   -5.542615    1.671669
     59          1           0       -4.659487   -1.242531   -0.872580
     60          1           0       -5.473600    0.265243   -1.746289
     61          1           0       -4.737898    4.521783    0.645006
     62          1           0       -5.625069    3.127784   -0.252183
     63          1           0       -4.684360    4.298868   -1.091501
     64          1           0       -2.108422    4.788348   -0.562726
     65          1           0        7.703265   -1.905386   -1.116148
     66          1           0        7.263133   -3.491600   -2.071921
     67          1           0        7.019830   -3.389155   -0.259822
     68          1           0        6.963438   -0.207549   -0.064532
     69          1           0        5.089164    1.557821    0.519614
     70          1           0        6.207498    1.188339    1.861822
     71          1           0        4.577309    0.266325    1.727498
     72          1           0        3.527265    6.221224   -1.104975
     73          1           0        4.267423    4.688913   -0.872199
     74          1           0       -0.444846    6.251917   -1.820039
     75          1           0        0.775904    7.185121   -1.090659
     76          1           0       -0.674665    6.768980   -0.185673
     77          1           0        3.174860    6.409148    1.680523
     78          1           0        4.892837    6.085878    1.026159
     79          1           0        4.065507    4.811734    1.652070
     80          1           0       -3.078397   -4.242699   -2.075173
     81          1           0       -7.973860   -1.706159   -1.882479
 ---------------------------------------------------------------------

 SCF Done:  E(RB3LYP) =  -1949.11610111     A.U. after   23 cycles

 Excitation energies and oscillator strengths:

 Excited State   1:      Singlet-A      1.8720 eV  662.31 nm  f=0.3554  <S**2>=0.000
     156 ->157         0.70781
     156 <-157        -0.10816
 This state for optimization and/or second-order correction.
 Total Energy, E(TD-HF/TD-DFT) =  -1949.04730664
 Copying the excited state density for this state as the 1-particle RhoCI density.

 The electronic state is 1-A.
 Alpha  occ. eigenvalues --  -19.20474 -19.18801 -19.15060 -19.13457 -19.12524
 Alpha  occ. eigenvalues --  -19.07691 -14.38532 -14.37589 -14.35150 -14.27407
 Alpha  occ. eigenvalues --  -10.34382 -10.31995 -10.29928 -10.25409 -10.24336
 Alpha  occ. eigenvalues --  -10.24166 -10.23919 -10.23418 -10.23309 -10.23191
 Alpha  occ. eigenvalues --  -10.23186 -10.22568 -10.21922 -10.21498 -10.21325
 Alpha  occ. eigenvalues --  -10.20910 -10.20899 -10.20606 -10.20204 -10.19939
 Alpha  occ. eigenvalues --  -10.19768 -10.19637 -10.19101 -10.19017 -10.19015
 Alpha  occ. eigenvalues --  -10.19010 -10.18896 -10.18433 -10.17821 -10.17653
 Alpha  occ. eigenvalues --  -10.17508 -10.17085 -10.16959  -1.11711  -1.10156
 Alpha  occ. eigenvalues --   -1.08483  -1.01069  -1.00872  -1.00213  -0.98798
 Alpha  occ. eigenvalues --   -0.98433  -0.96834  -0.90042  -0.84509  -0.82816
 Alpha  occ. eigenvalues --   -0.82558  -0.81908  -0.79501  -0.78692  -0.78169
 Alpha  occ. eigenvalues --   -0.77764  -0.76872  -0.75024  -0.73668  -0.73028
 Alpha  occ. eigenvalues --   -0.72452  -0.70402  -0.70125  -0.68735  -0.68249
 Alpha  occ. eigenvalues --   -0.67916  -0.65551  -0.64527  -0.62437  -0.60832
 Alpha  occ. eigenvalues --   -0.60306  -0.59495  -0.58890  -0.58265  -0.58167
 Alpha  occ. eigenvalues --   -0.56585  -0.56365  -0.55189  -0.54916  -0.53889
 Alpha  occ. eigenvalues --   -0.52755  -0.52155  -0.51267  -0.50950  -0.50210
 Alpha  occ. eigenvalues --   -0.49431  -0.49346  -0.48810  -0.48541  -0.48327
 Alpha  occ. eigenvalues --   -0.47612  -0.46982  -0.46340  -0.46148  -0.45837
 Alpha  occ. eigenvalues --   -0.45723  -0.45313  -0.44703  -0.44301  -0.44128
 Alpha  occ. eigenvalues --   -0.43983  -0.43658  -0.43382  -0.43000  -0.42591
 Alpha  occ. eigenvalues --   -0.42400  -0.42174  -0.41609  -0.40917  -0.40754
 Alpha  occ. eigenvalues --   -0.40713  -0.40296  -0.40033  -0.39925  -0.39745
 Alpha  occ. eigenvalues --   -0.39310  -0.39301  -0.38739  -0.38541  -0.38274
 Alpha  occ. eigenvalues --   -0.38238  -0.37790  -0.37489  -0.36876  -0.36817
 Alpha  occ. eigenvalues --   -0.36670  -0.36444  -0.36212  -0.35474  -0.34957
 Alpha  occ. eigenvalues --   -0.34613  -0.34412  -0.33760  -0.32796  -0.32704
 Alpha  occ. eigenvalues --   -0.32401  -0.31459  -0.30428  -0.30114  -0.29471
 Alpha  occ. eigenvalues --   -0.27907  -0.27816  -0.26793  -0.25835  -0.25590
 Alpha  occ. eigenvalues --   -0.25317  -0.25026  -0.23198  -0.22406  -0.20996
 Alpha  occ. eigenvalues --   -0.18391
 Alpha virt. eigenvalues --   -0.10872  -0.04635  -0.04071  -0.03499   0.00594
 Alpha virt. eigenvalues --    0.00798   0.01675   0.02238   0.03075   0.04035
 Alpha virt. eigenvalues --    0.04179   0.04563   0.05182   0.05772   0.06189

 Mulliken charges:
               1
     1  O   -0.120724
     2  O   -0.210513
     3  O   -0.148455
     4  O   -0.247406
     5  O   -0.235135
     6  O   -0.259632
     7  N   -0.074983
     8  N    0.041845
     9  N   -0.154510
    10  N   -0.273719
    11  C   -0.074370
    12  C    0.011343
    13  C   -0.122777
    14  C    0.075256
    15  C   -0.086206
    16  C    0.101236
    17  C   -0.065339
    18  C   -0.132017
    19  C   -0.029609
    20  C   -0.085154
    21  C    0.093297
    22  C    0.059996
    23  C    0.065833
    24  C    0.280239
    25  C   -0.144503
    26  C    0.101161
    27  C    0.127643
    28  C    0.047499
    29  C   -0.123019
    30  C    0.072082
    31  C   -0.114955
    32  C    0.069847
    33  C   -0.204179
    34  C    0.130237
    35  C   -0.138064
    36  C   -0.123689
    37  C    0.170098
    38  C    0.015515
    39  C    0.117275
    40  C    0.040103
    41  C    0.117173
    42  C    0.168032
    43  C   -0.010536
    44  H    0.161416
    45  H    0.042409
    46  H    0.050875
    47  H    0.019747
    48  H    0.004410
    49  H    0.016941
    50  H   -0.078433
    51  H    0.057818
    52  H   -0.008264
    53  H   -0.033145
    54  H    0.018670
    55  H    0.028708
    56  H    0.143506
    57  H   -0.005644
    58  H    0.081116
    59  H    0.077213
    60  H    0.033040
    61  H    0.051221
    62  H    0.001772
    63  H    0.018744
    64  H   -0.044932
    65  H    0.026155
    66  H    0.040393
    67  H    0.000611
    68  H    0.008934
    69  H    0.070570
    70  H    0.015944
    71  H    0.037761
    72  H   -0.008946
    73  H    0.018881
    74  H    0.003197
    75  H   -0.012725
    76  H    0.020474
    77  H    0.023231
    78  H   -0.010528
    79  H    0.017413
    80  H    0.218930
    81  H    0.166302
 Sum of Mulliken charges =  -0.00000

 Dipole moment (field-independent basis, Debye):
    X=             -2.2476    Y=             -2.3032    Z=             -1.2232  Tot=              3.4428
 Quadrupole moment (field-independent basis, Debye-Ang):
   XX=           -256.0465   YY=           -243.0614   ZZ=           -250.8916
   XY=             -1.4526   XZ=             16.3459   YZ=            -11.9477

 Normal termination of Gaussian 16 at Thu Jul  4 07:49:47 2019.
