 Gaussian 16, Revision A.03,
 Gaussian 16:  ES64L-G16RevA.03 25-Dec-2016

 --------------------------
 # td=(NStates=1) B3LYP/SVP
 --------------------------

 --
 TD
 --
 Symbolic Z-matrix:
 Charge =  0 Multiplicity = 1

                         Standard orientation:
 ---------------------------------------------------------------------
 Center     Atomic      Atomic             Coordinates (Angstroms)
 Number     Number       Type             X           Y           Z
 ---------------------------------------------------------------------
      1          8           0        4.547966   -4.687527   -2.052854
      2          8           0       -3.060045   -4.815203   -1.151781
      3          8           0       -7.109932   -1.609282   -1.828010
      4          8           0       -3.930492   -3.185822    0.113211
      5          8           0       -7.636950   -0.602831    0.112803
      6          8           0        2.983506    2.269635    0.155793
      7          7           0        0.308745   -0.487859    0.483954
      8          7           0       -1.577404    1.818942    0.165465
      9          7           0        3.429303   -3.127270   -0.732733
     10          7           0        0.736584    2.960996    0.076046
     11          6           0       -0.591333   -2.481612    1.233618
     12          6           0       -0.923309   -1.098193    0.754152
     13          6           0        0.750709   -2.610793    1.225272
     14          6           0        1.301437   -1.428544    0.593699
     15          6           0       -3.816571    1.509948    0.336281
     16          6           0       -2.462174    0.795990    0.407667
     17          6           0       -2.202610   -0.549934    0.619604
     18          6           0       -3.576309    2.783568    0.035093
     19          6           0       -1.603270   -3.396227    1.990222
     20          6           0        5.676651   -2.659604   -1.251080
     21          6           0        3.686219   -1.901630   -0.136473
     22          6           0       -2.181563    3.072360   -0.020491
     23          6           0        5.085373   -1.606083   -0.324803
     24          6           0       -5.110186    0.732275    0.363091
     25          6           0        2.734108   -1.105604    0.373328
     26          6           0        1.558641   -3.833287    1.653849
     27          6           0        4.473658   -3.633715   -1.402137
     28          6           0       -2.039240   -4.494910    1.009666
     29          6           0       -5.244940   -0.345294   -0.803821
     30          6           0       -4.678711    3.875784   -0.104380
     31          6           0       -1.368522    4.221931   -0.181179
     32          6           0        7.029714   -3.149203   -0.875728
     33          6           0        5.750403   -0.584208    0.279350
     34          6           0        0.068318    4.019211   -0.188649
     35          6           0        0.994309    5.245250   -0.390859
     36          6           0        2.206576    4.797352   -0.298049
     37          6           0       -3.085962   -4.054494   -0.031913
     38          6           0        5.441149    0.334719    1.360653
     39          6           0       -6.794377   -0.794229   -0.779324
     40          6           0        3.513999    5.440992   -0.450568
     41          6           0        2.074202    3.174280    0.005285
     42          6           0        0.566290    6.557614   -0.897383
     43          6           0        4.358488    5.717500    0.869239
     44          1           0        0.401037    0.404430    0.133209
     45          1           0       -3.159688   -1.118480    0.772389
     46          1           0       -2.411210   -2.797104    2.516545
     47          1           0       -1.050829   -3.873491    2.871051
     48          1           0        5.850842   -2.134914   -2.384166
     49          1           0       -5.047159    0.073989    1.126913
     50          1           0       -6.034031    1.330776    0.553051
     51          1           0        2.826826    0.100589    0.298724
     52          1           0       -0.544864    1.769950    0.367751
     53          1           0        1.979185   -4.539143    0.778648
     54          1           0        2.418027   -3.437802    2.376580
     55          1           0        0.782302   -4.388355    2.442957
     56          1           0        2.488453   -3.670026   -0.566260
     57          1           0       -1.341133   -4.904110    0.137002
     58          1           0       -2.480332   -5.282845    1.516698
     59          1           0       -4.549244   -1.238096   -0.493884
     60          1           0       -5.042670    0.105316   -1.795600
     61          1           0       -4.436515    4.753454    0.888368
     62          1           0       -5.662270    3.349349    0.021551
     63          1           0       -4.586871    4.161027   -1.127195
     64          1           0       -1.724073    5.376098   -0.351512
     65          1           0        8.001765   -2.389203   -0.764221
     66          1           0        7.292335   -4.009397   -1.477056
     67          1           0        6.873720   -3.650263    0.074871
     68          1           0        6.901547   -0.726457   -0.068966
     69          1           0        4.959866    1.259269    0.938858
     70          1           0        6.433304    0.747505    1.818432
     71          1           0        4.707666   -0.147513    2.228536
     72          1           0        3.131206    6.368632   -1.159953
     73          1           0        4.006367    4.980751   -1.262260
     74          1           0        0.063039    6.524405   -1.848158
     75          1           0        1.349315    7.183525   -1.086697
     76          1           0       -0.252380    6.938448   -0.291594
     77          1           0        3.728022    6.133971    1.731880
     78          1           0        5.228214    6.164352    0.556075
     79          1           0        4.821646    4.653939    1.303145
     80          1           0       -3.993703   -4.638261   -1.597709
     81          1           0       -8.107747   -1.847000   -1.759815
 ---------------------------------------------------------------------

 SCF Done:  E(RB3LYP) =  -1949.07007918     A.U. after   16 cycles

 Excitation energies and oscillator strengths:

 Excited State   1:      Singlet-A      1.8499 eV  670.22 nm  f=0.3970  <S**2>=0.000
     156 ->157         0.71024
     156 <-157        -0.12764
 This state for optimization and/or second-order correction.
 Total Energy, E(TD-HF/TD-DFT) =  -1949.00209655
 Copying the excited state density for this state as the 1-particle RhoCI density.

 The electronic state is 1-A.
 Alpha  occ. eigenvalues --  -19.20600 -19.18500 -19.14712 -19.12903 -19.11115
 Alpha  occ. eigenvalues --  -19.10153 -14.38757 -14.38176 -14.35864 -14.29832
 Alpha  occ. eigenvalues --  -10.34040 -10.32746 -10.29134 -10.27770 -10.24503
 Alpha  occ. eigenvalues --  -10.24388 -10.23890 -10.23811 -10.23555 -10.23466
 Alpha  occ. eigenvalues --  -10.23109 -10.22958 -10.22909 -10.22147 -10.21521
 Alpha  occ. eigenvalues --  -10.21474 -10.21315 -10.20750 -10.20621 -10.20324
 Alpha  occ. eigenvalues --  -10.20247 -10.20043 -10.19807 -10.19700 -10.19674
 Alpha  occ. eigenvalues --  -10.19419 -10.19364 -10.19334 -10.19318 -10.19307
 Alpha  occ. eigenvalues --  -10.18614 -10.18400 -10.18194  -1.10976  -1.08090
 Alpha  occ. eigenvalues --   -1.02322  -1.01620  -0.99097  -0.98738  -0.98684
 Alpha  occ. eigenvalues --   -0.96903  -0.95625  -0.92938  -0.82956  -0.81552
 Alpha  occ. eigenvalues --   -0.81513  -0.81146  -0.80704  -0.79080  -0.78047
 Alpha  occ. eigenvalues --   -0.76419  -0.76225  -0.74792  -0.74154  -0.71634
 Alpha  occ. eigenvalues --   -0.69937  -0.69441  -0.69247  -0.69030  -0.67660
 Alpha  occ. eigenvalues --   -0.67056  -0.65299  -0.63815  -0.62856  -0.61757
 Alpha  occ. eigenvalues --   -0.60893  -0.59090  -0.58831  -0.58545  -0.57514
 Alpha  occ. eigenvalues --   -0.56024  -0.55113  -0.55003  -0.52862  -0.52371
 Alpha  occ. eigenvalues --   -0.51726  -0.51491  -0.51189  -0.50662  -0.49494
 Alpha  occ. eigenvalues --   -0.49119  -0.48468  -0.48232  -0.47601  -0.47375
 Alpha  occ. eigenvalues --   -0.46844  -0.46325  -0.45844  -0.45271  -0.44916
 Alpha  occ. eigenvalues --   -0.44603  -0.44497  -0.44084  -0.43996  -0.42990
 Alpha  occ. eigenvalues --   -0.42938  -0.42791  -0.42530  -0.42225  -0.41832
 Alpha  occ. eigenvalues --   -0.41549  -0.41418  -0.41209  -0.40906  -0.40777
 Alpha  occ. eigenvalues --   -0.40558  -0.40301  -0.40087  -0.39757  -0.39478
 Alpha  occ. eigenvalues --   -0.39331  -0.39203  -0.38712  -0.38689  -0.38305
 Alpha  occ. eigenvalues --   -0.38143  -0.37400  -0.37182  -0.37067  -0.36660
 Alpha  occ. eigenvalues --   -0.36087  -0.35937  -0.35583  -0.34950  -0.34901
 Alpha  occ. eigenvalues --   -0.34095  -0.33886  -0.33799  -0.33078  -0.32674
 Alpha  occ. eigenvalues --   -0.31797  -0.31512  -0.31281  -0.30106  -0.29594
 Alpha  occ. eigenvalues --   -0.28059  -0.27234  -0.27036  -0.25976  -0.25586
 Alpha  occ. eigenvalues --   -0.25523  -0.24927  -0.24249  -0.23916  -0.21980
 Alpha  occ. eigenvalues --   -0.17320
 Alpha virt. eigenvalues --   -0.10139  -0.05615  -0.03426  -0.02165  -0.00689
 Alpha virt. eigenvalues --   -0.00637   0.01249   0.01803   0.01965   0.03182
 Alpha virt. eigenvalues --    0.03835   0.04289   0.04858   0.05029   0.05634

 Mulliken charges:
               1
     1  O   -0.242726
     2  O   -0.221117
     3  O   -0.224491
     4  O   -0.238417
     5  O   -0.259664
     6  O   -0.274599
     7  N   -0.032721
     8  N   -0.142921
     9  N   -0.113347
    10  N   -0.207615
    11  C   -0.102553
    12  C    0.071782
    13  C   -0.134817
    14  C    0.016277
    15  C   -0.052491
    16  C    0.009567
    17  C   -0.048150
    18  C   -0.174792
    19  C    0.059652
    20  C   -0.088498
    21  C    0.124654
    22  C    0.153013
    23  C   -0.040672
    24  C    0.133176
    25  C   -0.181766
    26  C   -0.034356
    27  C    0.125795
    28  C    0.024596
    29  C   -0.076243
    30  C    0.069356
    31  C   -0.164327
    32  C    0.031855
    33  C   -0.137965
    34  C    0.020764
    35  C   -0.103134
    36  C   -0.212904
    37  C    0.137879
    38  C    0.016134
    39  C    0.163381
    40  C    0.055283
    41  C    0.183154
    42  C    0.171691
    43  C    0.014677
    44  H    0.095742
    45  H    0.021592
    46  H    0.047763
    47  H    0.024007
    48  H    0.063726
    49  H   -0.026746
    50  H    0.028463
    51  H    0.090044
    52  H    0.155813
    53  H    0.058477
    54  H    0.060235
    55  H    0.034107
    56  H    0.169792
    57  H    0.069649
    58  H    0.025745
    59  H    0.101587
    60  H    0.042313
    61  H    0.062343
    62  H    0.017456
    63  H    0.023712
    64  H    0.028229
    65  H    0.059014
    66  H    0.018821
    67  H   -0.003155
    68  H    0.008857
    69  H    0.075882
    70  H    0.021220
    71  H    0.056752
    72  H   -0.015545
    73  H   -0.005369
    74  H    0.003999
    75  H   -0.017749
    76  H    0.006539
    77  H    0.045934
    78  H    0.005363
    79  H    0.039490
    80  H    0.226918
    81  H    0.206583
 Sum of Mulliken charges =  -0.00000

 Dipole moment (field-independent basis, Debye):
    X=             -2.8976    Y=              0.0696    Z=              0.5630  Tot=              2.9526
 Quadrupole moment (field-independent basis, Debye-Ang):
   XX=           -255.1539   YY=           -239.8119   ZZ=           -256.5811
   XY=             23.6183   XZ=             20.1932   YZ=            -17.5946

 Normal termination of Gaussian 16 at Wed Jun 26 21:19:49 2019.
