 Gaussian 16, Revision A.03,
 Gaussian 16:  ES64L-G16RevA.03 25-Dec-2016

 --------------------------
 # td=(NStates=1) B3LYP/SVP
 --------------------------

 --
 TD
 --
 Symbolic Z-matrix:
 Charge =  0 Multiplicity = 1

                         Standard orientation:
 ---------------------------------------------------------------------
 Center     Atomic      Atomic             Coordinates (Angstroms)
 Number     Number       Type             X           Y           Z
 ---------------------------------------------------------------------
      1          8           0       -4.494212   -4.678817    1.949707
      2          8           0        2.964819   -4.909639    1.315763
      3          8           0        7.071652   -1.530511    1.768247
      4          8           0        3.732058   -3.155885    0.212657
      5          8           0        7.740894   -0.319898   -0.045900
      6          8           0       -2.968861    2.540335   -0.291272
      7          7           0       -0.284948   -0.594900   -0.667490
      8          7           0        1.541233    1.865086   -0.499898
      9          7           0       -3.417648   -3.077160    0.694860
     10          7           0       -0.678655    2.962577   -0.226499
     11          6           0        0.598765   -2.475074   -1.322866
     12          6           0        0.837086   -1.172054   -0.971727
     13          6           0       -0.695755   -2.729964   -1.197384
     14          6           0       -1.325909   -1.433213   -0.840926
     15          6           0        3.784024    1.401816   -0.361471
     16          6           0        2.458475    0.798598   -0.667561
     17          6           0        2.086840   -0.505517   -0.899973
     18          6           0        3.606384    2.716457   -0.057056
     19          6           0        1.679924   -3.539364   -1.839494
     20          6           0       -5.590063   -2.578386    1.390196
     21          6           0       -3.641475   -1.759729    0.110930
     22          6           0        2.146602    3.020890   -0.135467
     23          6           0       -5.181951   -1.457992    0.404737
     24          6           0        5.071857    0.571646   -0.511781
     25          6           0       -2.625154   -1.008964   -0.428424
     26          6           0       -1.551971   -3.865744   -1.702281
     27          6           0       -4.489827   -3.618046    1.440229
     28          6           0        2.106544   -4.625899   -0.897272
     29          6           0        5.442343   -0.140838    0.772418
     30          6           0        4.656953    3.710320    0.421928
     31          6           0        1.379658    4.130770    0.125233
     32          6           0       -6.934682   -3.133128    0.970701
     33          6           0       -5.900536   -0.631643   -0.239527
     34          6           0       -0.063679    4.064341    0.165849
     35          6           0       -0.971191    5.151770    0.524505
     36          6           0       -2.168125    4.672312    0.417667
     37          6           0        3.039173   -4.127649    0.297749
     38          6           0       -5.542790    0.344800   -1.338735
     39          6           0        6.916482   -0.568590    0.791475
     40          6           0       -3.632891    5.283538    0.603937
     41          6           0       -2.021333    3.288520   -0.039132
     42          6           0       -0.562893    6.596640    0.985185
     43          6           0       -4.273594    5.776325   -0.740805
     44          1           0       -0.553295    0.167982   -0.111430
     45          1           0        2.905702   -1.221040   -1.022158
     46          1           0        2.683757   -2.969867   -2.187967
     47          1           0        1.145648   -4.168960   -2.669510
     48          1           0       -5.790404   -2.245464    2.443121
     49          1           0        4.876289    0.028021   -1.322113
     50          1           0        5.923085    1.146573   -0.941232
     51          1           0       -2.902383   -0.081603   -0.692107
     52          1           0        0.368062    1.884669   -0.767846
     53          1           0       -1.423578   -4.782619   -1.044107
     54          1           0       -2.598384   -3.622103   -2.018670
     55          1           0       -1.060613   -4.238828   -2.572700
     56          1           0       -2.519420   -3.759067    0.802596
     57          1           0        1.280821   -5.336469   -0.326708
     58          1           0        2.645605   -5.293264   -1.438444
     59          1           0        4.797427   -1.158203    0.807061
     60          1           0        5.120149    0.673165    1.533081
     61          1           0        4.418597    4.740675   -0.070028
     62          1           0        5.700391    3.270692    0.216901
     63          1           0        4.782487    3.933947    1.567012
     64          1           0        1.692107    5.190373    0.396961
     65          1           0       -7.854100   -2.505799    0.885890
     66          1           0       -7.101559   -3.925700    1.754959
     67          1           0       -6.657520   -3.661233   -0.027296
     68          1           0       -6.883855   -0.268247    0.167787
     69          1           0       -5.189208    1.272063   -1.139068
     70          1           0       -6.526673    0.507770   -1.984312
     71          1           0       -4.650705   -0.075562   -1.966698
     72          1           0       -3.655611    6.021254    1.394413
     73          1           0       -4.378165    4.314067    0.982218
     74          1           0        0.062830    6.446115    1.746849
     75          1           0       -1.498524    7.390467    1.359878
     76          1           0        0.226101    7.067572    0.277868
     77          1           0       -3.568497    6.380976   -1.360014
     78          1           0       -5.409596    6.062778   -0.569470
     79          1           0       -4.337920    4.732990   -1.460789
     80          1           0        3.647710   -4.507076    2.028561
     81          1           0        7.968811   -2.006672    1.561924
 ---------------------------------------------------------------------

 SCF Done:  E(RB3LYP) =  -1949.07717258     A.U. after   16 cycles

 Excitation energies and oscillator strengths:

 Excited State   1:      Singlet-A      2.0060 eV  618.06 nm  f=0.3934  <S**2>=0.000
     156 ->157         0.70924
     156 <-157        -0.11136
 This state for optimization and/or second-order correction.
 Total Energy, E(TD-HF/TD-DFT) =  -1949.00345232
 Copying the excited state density for this state as the 1-particle RhoCI density.

 The electronic state is 1-A.
 Alpha  occ. eigenvalues --  -19.21528 -19.18221 -19.14189 -19.13503 -19.11645
 Alpha  occ. eigenvalues --  -19.10184 -14.37675 -14.36906 -14.34652 -14.29618
 Alpha  occ. eigenvalues --  -10.33339 -10.32260 -10.28938 -10.26135 -10.25297
 Alpha  occ. eigenvalues --  -10.23766 -10.23070 -10.22957 -10.22790 -10.22763
 Alpha  occ. eigenvalues --  -10.22114 -10.22095 -10.21280 -10.21190 -10.21160
 Alpha  occ. eigenvalues --  -10.20851 -10.20619 -10.20554 -10.20448 -10.20252
 Alpha  occ. eigenvalues --  -10.20230 -10.20132 -10.20031 -10.19836 -10.19274
 Alpha  occ. eigenvalues --  -10.19271 -10.19211 -10.19174 -10.18885 -10.18533
 Alpha  occ. eigenvalues --  -10.18459 -10.18451 -10.18290  -1.13234  -1.08589
 Alpha  occ. eigenvalues --   -1.05449  -1.03094  -1.01737  -1.01113  -1.00450
 Alpha  occ. eigenvalues --   -0.95881  -0.93243  -0.92322  -0.82833  -0.81555
 Alpha  occ. eigenvalues --   -0.81449  -0.80706  -0.79671  -0.78360  -0.78303
 Alpha  occ. eigenvalues --   -0.76489  -0.76251  -0.74756  -0.73375  -0.72086
 Alpha  occ. eigenvalues --   -0.70269  -0.69313  -0.68756  -0.67800  -0.67290
 Alpha  occ. eigenvalues --   -0.66211  -0.64898  -0.64370  -0.62243  -0.61814
 Alpha  occ. eigenvalues --   -0.59921  -0.58588  -0.57992  -0.57600  -0.55996
 Alpha  occ. eigenvalues --   -0.55664  -0.54899  -0.54562  -0.53398  -0.52992
 Alpha  occ. eigenvalues --   -0.52226  -0.51379  -0.51215  -0.50760  -0.49761
 Alpha  occ. eigenvalues --   -0.49242  -0.49001  -0.48169  -0.47924  -0.47810
 Alpha  occ. eigenvalues --   -0.47243  -0.46843  -0.46032  -0.45838  -0.44876
 Alpha  occ. eigenvalues --   -0.44700  -0.44139  -0.44059  -0.43370  -0.43194
 Alpha  occ. eigenvalues --   -0.42792  -0.42657  -0.42283  -0.42113  -0.41954
 Alpha  occ. eigenvalues --   -0.41899  -0.41426  -0.41260  -0.41070  -0.40678
 Alpha  occ. eigenvalues --   -0.40312  -0.39834  -0.39802  -0.39565  -0.39313
 Alpha  occ. eigenvalues --   -0.38833  -0.38511  -0.38457  -0.38180  -0.38113
 Alpha  occ. eigenvalues --   -0.37848  -0.37583  -0.37323  -0.36852  -0.36680
 Alpha  occ. eigenvalues --   -0.35912  -0.35338  -0.34981  -0.34794  -0.34573
 Alpha  occ. eigenvalues --   -0.34078  -0.33771  -0.33586  -0.33378  -0.33222
 Alpha  occ. eigenvalues --   -0.32491  -0.31362  -0.30817  -0.29878  -0.29464
 Alpha  occ. eigenvalues --   -0.28701  -0.28320  -0.27262  -0.26870  -0.26202
 Alpha  occ. eigenvalues --   -0.26016  -0.24899  -0.24644  -0.24156  -0.21807
 Alpha  occ. eigenvalues --   -0.17548
 Alpha virt. eigenvalues --   -0.09662  -0.05408  -0.02923  -0.00758   0.00110
 Alpha virt. eigenvalues --    0.00560   0.00919   0.02447   0.03052   0.03317
 Alpha virt. eigenvalues --    0.04048   0.04516   0.04713   0.05041   0.05567

 Mulliken charges:
               1
     1  O   -0.166517
     2  O   -0.157701
     3  O   -0.242332
     4  O   -0.214676
     5  O   -0.206459
     6  O   -0.217854
     7  N    0.053843
     8  N   -0.219278
     9  N   -0.252565
    10  N   -0.275194
    11  C   -0.037774
    12  C    0.006497
    13  C   -0.186230
    14  C    0.006858
    15  C   -0.117612
    16  C    0.088202
    17  C   -0.056614
    18  C   -0.099650
    19  C    0.045609
    20  C   -0.066160
    21  C    0.095726
    22  C    0.182050
    23  C    0.086527
    24  C    0.154609
    25  C   -0.034686
    26  C    0.107220
    27  C    0.121886
    28  C    0.001137
    29  C   -0.073960
    30  C    0.006860
    31  C   -0.156700
    32  C   -0.002199
    33  C   -0.180486
    34  C    0.011146
    35  C   -0.079619
    36  C   -0.170565
    37  C    0.103077
    38  C    0.037688
    39  C    0.165826
    40  C    0.031747
    41  C    0.136298
    42  C    0.100860
    43  C   -0.073303
    44  H    0.123657
    45  H   -0.013701
    46  H    0.050610
    47  H    0.024092
    48  H    0.039702
    49  H   -0.035934
    50  H    0.014818
    51  H   -0.051602
    52  H    0.226567
    53  H    0.008513
    54  H    0.051168
    55  H   -0.014563
    56  H    0.178714
    57  H    0.048575
    58  H    0.011824
    59  H    0.095945
    60  H    0.061035
    61  H    0.041413
    62  H    0.029458
    63  H    0.040307
    64  H   -0.027104
    65  H    0.037766
    66  H    0.027563
    67  H    0.021771
    68  H    0.011200
    69  H    0.032676
    70  H    0.019840
    71  H    0.029702
    72  H    0.003994
    73  H    0.040626
    74  H   -0.017292
    75  H    0.062821
    76  H    0.025095
    77  H    0.032852
    78  H    0.046458
    79  H    0.036827
    80  H    0.225631
    81  H    0.203442
 Sum of Mulliken charges =  -0.00000

 Dipole moment (field-independent basis, Debye):
    X=              2.4253    Y=             -0.8339    Z=              1.1054  Tot=              2.7927
 Quadrupole moment (field-independent basis, Debye-Ang):
   XX=           -254.7649   YY=           -236.4774   ZZ=           -254.7262
   XY=            -23.9236   XZ=             12.7424   YZ=             12.8700

 Normal termination of Gaussian 16 at Fri Jul  5 13:26:32 2019.
