 Gaussian 16, Revision A.03,
 Gaussian 16:  ES64L-G16RevA.03 25-Dec-2016

 --------------------------
 # td=(NStates=1) B3LYP/SVP
 --------------------------

 --
 TD
 --
 Symbolic Z-matrix:
 Charge =  0 Multiplicity = 1

                         Standard orientation:
 ---------------------------------------------------------------------
 Center     Atomic      Atomic             Coordinates (Angstroms)
 Number     Number       Type             X           Y           Z
 ---------------------------------------------------------------------
      1          8           0       -4.695906   -4.504904    2.001332
      2          8           0        2.721520   -5.034867    1.344093
      3          8           0        7.119884   -1.701990    1.838214
      4          8           0        3.444450   -3.395816    0.005183
      5          8           0        7.702240   -0.755724   -0.157933
      6          8           0       -2.862958    2.713548   -0.428654
      7          7           0       -0.326930   -0.539923   -0.618316
      8          7           0        1.645254    1.703473   -0.367769
      9          7           0       -3.608559   -2.957686    0.641414
     10          7           0       -0.546676    2.907821   -0.095251
     11          6           0        0.445374   -2.491320   -1.305775
     12          6           0        0.865144   -1.178158   -0.954625
     13          6           0       -0.946864   -2.619887   -1.325798
     14          6           0       -1.336252   -1.376075   -0.688148
     15          6           0        3.854457    1.186748   -0.463300
     16          6           0        2.473090    0.719512   -0.651632
     17          6           0        2.093757   -0.598302   -1.032516
     18          6           0        3.779489    2.496874   -0.041523
     19          6           0        1.345961   -3.639639   -1.770619
     20          6           0       -5.769410   -2.280194    1.378945
     21          6           0       -3.722191   -1.690009    0.139043
     22          6           0        2.312118    2.816249    0.056231
     23          6           0       -5.191864   -1.283272    0.352622
     24          6           0        5.037793    0.377228   -0.579467
     25          6           0       -2.764820   -0.970798   -0.421481
     26          6           0       -1.827658   -3.694844   -1.874044
     27          6           0       -4.657118   -3.432712    1.423720
     28          6           0        1.659350   -4.703998   -0.801980
     29          6           0        5.530773   -0.362227    0.795735
     30          6           0        4.910665    3.566130    0.337355
     31          6           0        1.612140    3.961978    0.380670
     32          6           0       -7.104848   -2.982493    0.996386
     33          6           0       -5.917615   -0.277260   -0.160213
     34          6           0        0.190581    3.994455    0.387943
     35          6           0       -0.686401    5.198882    0.629252
     36          6           0       -1.965060    4.800504    0.344341
     37          6           0        2.672875   -4.350320    0.141262
     38          6           0       -5.470970    0.799311   -1.087776
     39          6           0        6.889386   -0.978232    0.705548
     40          6           0       -3.238854    5.558045    0.444564
     41          6           0       -1.886032    3.324101   -0.077281
     42          6           0       -0.088786    6.571826    0.975265
     43          6           0       -3.794025    5.848514   -1.029324
     44          1           0       -0.296850    0.238861   -0.027718
     45          1           0        2.863320   -1.330941   -1.171566
     46          1           0        2.470627   -3.351051   -2.301854
     47          1           0        0.849424   -4.140411   -2.672982
     48          1           0       -5.934819   -1.753606    2.339535
     49          1           0        5.101135   -0.410589   -1.432131
     50          1           0        5.848349    1.282950   -0.745934
     51          1           0       -2.938917    0.023981   -0.682662
     52          1           0        0.637785    2.002106   -0.518849
     53          1           0       -1.851355   -4.393392   -1.226542
     54          1           0       -2.811758   -3.482165   -2.210074
     55          1           0       -1.497666   -4.119960   -2.870899
     56          1           0       -2.852509   -3.429707    0.957775
     57          1           0        0.700923   -4.892304   -0.092368
     58          1           0        1.836905   -5.685469   -1.328760
     59          1           0        4.795606   -1.094475    1.179262
     60          1           0        5.425513    0.341590    1.584128
     61          1           0        4.711539    4.447943   -0.104266
     62          1           0        5.867724    3.215870    0.226447
     63          1           0        4.592670    3.630224    1.352976
     64          1           0        2.057391    4.911314    0.495559
     65          1           0       -7.992994   -2.116498    1.188792
     66          1           0       -7.443166   -3.725236    1.762476
     67          1           0       -7.261294   -3.362901   -0.118120
     68          1           0       -6.994591   -0.058607    0.264205
     69          1           0       -4.909384    1.742435   -0.547166
     70          1           0       -6.325155    1.520349   -1.406281
     71          1           0       -4.760165    0.222593   -2.016286
     72          1           0       -3.170934    6.583181    0.977108
     73          1           0       -4.071367    4.994086    1.082967
     74          1           0        0.388005    6.687932    2.053809
     75          1           0       -0.837219    7.312871    0.946587
     76          1           0        0.618000    6.817354    0.278488
     77          1           0       -3.024097    6.281230   -1.675136
     78          1           0       -4.749361    6.350410   -1.011787
     79          1           0       -3.934256    4.902131   -1.536126
     80          1           0        3.410934   -4.476952    2.030776
     81          1           0        8.081436   -1.906625    1.897899
 ---------------------------------------------------------------------

 SCF Done:  E(RB3LYP) =  -1949.11840135     A.U. after   16 cycles

 Excitation energies and oscillator strengths:

 Excited State   1:      Singlet-A      1.9757 eV  627.55 nm  f=0.4121  <S**2>=0.000
     156 ->157         0.70946
     156 <-157        -0.13313
 This state for optimization and/or second-order correction.
 Total Energy, E(TD-HF/TD-DFT) =  -1949.04579596
 Copying the excited state density for this state as the 1-particle RhoCI density.

 The electronic state is 1-A.
 Alpha  occ. eigenvalues --  -19.19041 -19.18344 -19.13482 -19.12937 -19.12317
 Alpha  occ. eigenvalues --  -19.10091 -14.38114 -14.37033 -14.34810 -14.29116
 Alpha  occ. eigenvalues --  -10.32964 -10.32185 -10.29948 -10.26433 -10.24887
 Alpha  occ. eigenvalues --  -10.24344 -10.23444 -10.22917 -10.22862 -10.22831
 Alpha  occ. eigenvalues --  -10.22629 -10.22311 -10.21492 -10.21414 -10.20977
 Alpha  occ. eigenvalues --  -10.20658 -10.20593 -10.20557 -10.20543 -10.20482
 Alpha  occ. eigenvalues --  -10.20474 -10.20355 -10.20302 -10.20272 -10.20079
 Alpha  occ. eigenvalues --  -10.19778 -10.19217 -10.18868 -10.18838 -10.18760
 Alpha  occ. eigenvalues --  -10.18669 -10.18374 -10.17230  -1.09139  -1.08146
 Alpha  occ. eigenvalues --   -1.04304  -1.01873  -1.00866  -1.00499  -0.98798
 Alpha  occ. eigenvalues --   -0.98543  -0.96522  -0.90237  -0.83330  -0.81840
 Alpha  occ. eigenvalues --   -0.81392  -0.81040  -0.79665  -0.78834  -0.78404
 Alpha  occ. eigenvalues --   -0.76746  -0.76298  -0.74393  -0.74074  -0.73121
 Alpha  occ. eigenvalues --   -0.72297  -0.69965  -0.68893  -0.68130  -0.67636
 Alpha  occ. eigenvalues --   -0.67348  -0.65313  -0.63488  -0.62719  -0.61286
 Alpha  occ. eigenvalues --   -0.60535  -0.59785  -0.59139  -0.58351  -0.57251
 Alpha  occ. eigenvalues --   -0.56017  -0.54739  -0.54524  -0.53636  -0.52799
 Alpha  occ. eigenvalues --   -0.51871  -0.51573  -0.50867  -0.50282  -0.49276
 Alpha  occ. eigenvalues --   -0.49001  -0.48803  -0.48014  -0.47832  -0.47381
 Alpha  occ. eigenvalues --   -0.46892  -0.46480  -0.46303  -0.46237  -0.45776
 Alpha  occ. eigenvalues --   -0.44841  -0.44746  -0.44413  -0.44226  -0.43818
 Alpha  occ. eigenvalues --   -0.43748  -0.43012  -0.42823  -0.42447  -0.42357
 Alpha  occ. eigenvalues --   -0.42088  -0.41840  -0.41262  -0.41062  -0.41015
 Alpha  occ. eigenvalues --   -0.40708  -0.40452  -0.40338  -0.40105  -0.39868
 Alpha  occ. eigenvalues --   -0.39233  -0.39109  -0.38749  -0.38270  -0.37650
 Alpha  occ. eigenvalues --   -0.37431  -0.37168  -0.36951  -0.36628  -0.36474
 Alpha  occ. eigenvalues --   -0.36191  -0.36067  -0.35278  -0.34762  -0.34157
 Alpha  occ. eigenvalues --   -0.33748  -0.33734  -0.33263  -0.33161  -0.32727
 Alpha  occ. eigenvalues --   -0.32418  -0.32291  -0.31584  -0.29983  -0.28743
 Alpha  occ. eigenvalues --   -0.28498  -0.28120  -0.26906  -0.26443  -0.26016
 Alpha  occ. eigenvalues --   -0.25019  -0.24916  -0.23841  -0.23170  -0.22329
 Alpha  occ. eigenvalues --   -0.17549
 Alpha virt. eigenvalues --   -0.10020  -0.05208  -0.03373  -0.02567  -0.00846
 Alpha virt. eigenvalues --   -0.00071   0.00775   0.02439   0.03051   0.03807
 Alpha virt. eigenvalues --    0.04027   0.04959   0.05210   0.05309   0.05500

 Mulliken charges:
               1
     1  O   -0.208155
     2  O   -0.283886
     3  O   -0.209069
     4  O   -0.249450
     5  O   -0.212382
     6  O   -0.193346
     7  N    0.026466
     8  N   -0.048829
     9  N   -0.056308
    10  N   -0.352498
    11  C   -0.064225
    12  C    0.035455
    13  C   -0.164863
    14  C   -0.012312
    15  C   -0.062812
    16  C    0.061238
    17  C   -0.034435
    18  C   -0.167658
    19  C    0.014761
    20  C   -0.097908
    21  C    0.149168
    22  C    0.063842
    23  C    0.034054
    24  C   -0.012532
    25  C   -0.105061
    26  C    0.206718
    27  C    0.129372
    28  C   -0.006178
    29  C    0.020864
    30  C    0.225830
    31  C   -0.100360
    32  C   -0.035014
    33  C   -0.153961
    34  C    0.056166
    35  C   -0.089943
    36  C   -0.165901
    37  C    0.158925
    38  C   -0.067434
    39  C    0.160812
    40  C   -0.002817
    41  C    0.172222
    42  C    0.137159
    43  C    0.006957
    44  H    0.123045
    45  H   -0.010421
    46  H    0.044845
    47  H    0.008415
    48  H    0.049362
    49  H    0.047841
    50  H    0.040300
    51  H   -0.005743
    52  H    0.149339
    53  H   -0.040642
    54  H    0.011373
    55  H    0.014474
    56  H    0.094693
    57  H    0.058201
    58  H    0.063588
    59  H    0.028257
    60  H    0.013517
    61  H   -0.003403
    62  H   -0.004628
    63  H    0.014354
    64  H   -0.048897
    65  H    0.014711
    66  H    0.042211
    67  H    0.048331
    68  H    0.021157
    69  H    0.095450
    70  H    0.015786
    71  H    0.063965
    72  H    0.011858
    73  H    0.031407
    74  H    0.034198
    75  H   -0.009532
    76  H    0.004189
    77  H    0.007933
    78  H    0.010564
    79  H    0.016469
    80  H    0.255096
    81  H    0.185662
 Sum of Mulliken charges =  -0.00000

 Dipole moment (field-independent basis, Debye):
    X=              2.0686    Y=              0.1179    Z=              1.4134  Tot=              2.5081
 Quadrupole moment (field-independent basis, Debye-Ang):
   XX=           -254.7163   YY=           -240.6869   ZZ=           -252.8654
   XY=            -11.0979   XZ=             18.4556   YZ=             14.3975

 Normal termination of Gaussian 16 at Fri Jul  5 17:31:08 2019.
