 Gaussian 16, Revision A.03,
 Gaussian 16:  ES64L-G16RevA.03 25-Dec-2016

 --------------------------
 # td=(NStates=1) B3LYP/SVP
 --------------------------

 --
 TD
 --
 Symbolic Z-matrix:
 Charge =  0 Multiplicity = 1

                         Standard orientation:
 ---------------------------------------------------------------------
 Center     Atomic      Atomic             Coordinates (Angstroms)
 Number     Number       Type             X           Y           Z
 ---------------------------------------------------------------------
      1          8           0       -4.404563   -4.815177    1.961344
      2          8           0        3.162997   -5.081200    1.196408
      3          8           0        7.182284   -1.327015    1.760634
      4          8           0        3.811163   -3.105856    0.150036
      5          8           0        7.626406   -0.688726   -0.308384
      6          8           0       -3.008508    2.599520   -0.279845
      7          7           0       -0.267860   -0.527518   -0.552987
      8          7           0        1.522356    1.791227   -0.339508
      9          7           0       -3.499339   -3.139656    0.581347
     10          7           0       -0.805351    2.922226   -0.049442
     11          6           0        0.657054   -2.441587   -1.260824
     12          6           0        0.943844   -1.102052   -0.894913
     13          6           0       -0.728965   -2.698332   -1.156980
     14          6           0       -1.327655   -1.465836   -0.766617
     15          6           0        3.766259    1.457748   -0.403721
     16          6           0        2.469814    0.846024   -0.539331
     17          6           0        2.249275   -0.474867   -0.787729
     18          6           0        3.624658    2.819737   -0.051551
     19          6           0        1.680995   -3.360716   -1.864318
     20          6           0       -5.658676   -2.651440    1.308746
     21          6           0       -3.721909   -1.886513    0.051420
     22          6           0        2.159906    2.999857    0.032962
     23          6           0       -5.139915   -1.505408    0.410271
     24          6           0        5.051720    0.809875   -0.436569
     25          6           0       -2.684130   -1.193882   -0.613376
     26          6           0       -1.369612   -4.024790   -1.560490
     27          6           0       -4.481908   -3.688048    1.272671
     28          6           0        2.059872   -4.480119   -0.823598
     29          6           0        5.448939   -0.025198    0.857165
     30          6           0        4.699962    3.826753    0.267314
     31          6           0        1.295852    4.151317    0.338410
     32          6           0       -7.083061   -3.229018    0.968777
     33          6           0       -5.861472   -0.566610   -0.148259
     34          6           0       -0.084407    4.136047    0.144597
     35          6           0       -1.026390    5.168115    0.528684
     36          6           0       -2.239033    4.698489    0.358780
     37          6           0        3.127058   -4.098955    0.207228
     38          6           0       -5.480937    0.400990   -1.217099
     39          6           0        6.813456   -0.686884    0.651598
     40          6           0       -3.641798    5.428277    0.396281
     41          6           0       -2.081659    3.281596   -0.049062
     42          6           0       -0.671368    6.675924    1.076362
     43          6           0       -4.325322    5.485924   -0.981979
     44          1           0       -0.631004    0.566850   -0.399508
     45          1           0        3.177502   -1.236197   -0.821598
     46          1           0        2.664559   -3.015404   -2.293278
     47          1           0        1.262514   -4.037579   -2.758964
     48          1           0       -5.653318   -2.560897    2.450785
     49          1           0        5.028877   -0.032997   -1.179278
     50          1           0        5.846447    1.366327   -0.695046
     51          1           0       -3.084542   -0.137845   -0.702996
     52          1           0        0.431884    1.910931    0.001974
     53          1           0       -1.815902   -4.568048   -0.732789
     54          1           0       -2.374575   -3.729376   -1.910447
     55          1           0       -0.734912   -4.618554   -2.368247
     56          1           0       -2.538721   -3.466002    0.579054
     57          1           0        1.190271   -4.933299   -0.347822
     58          1           0        2.421749   -5.508930   -1.399951
     59          1           0        4.686270   -0.791390    1.174324
     60          1           0        5.705085    0.628000    1.882060
     61          1           0        4.430049    4.701146   -0.323293
     62          1           0        5.642046    3.400127    0.001097
     63          1           0        4.893048    4.019396    1.455424
     64          1           0        1.656591    4.954216    0.677624
     65          1           0       -7.984091   -2.610173    1.279502
     66          1           0       -7.198223   -4.265052    1.348800
     67          1           0       -7.237829   -3.475634   -0.129623
     68          1           0       -6.954080   -0.446374    0.156535
     69          1           0       -5.037328    1.270214   -0.808095
     70          1           0       -6.402660    0.864068   -1.690728
     71          1           0       -4.708100    0.145506   -2.065979
     72          1           0       -3.609292    6.439916    0.879418
     73          1           0       -4.185561    4.751889    1.025250
     74          1           0       -0.299450    6.462521    2.183252
     75          1           0       -1.601513    7.344082    0.666154
     76          1           0        0.265899    6.951253    0.360905
     77          1           0       -3.825933    6.173298   -1.749456
     78          1           0       -5.189088    5.970536   -0.717063
     79          1           0       -4.419040    4.450463   -1.487195
     80          1           0        3.908566   -4.829206    1.710028
     81          1           0        8.024269   -1.722621    1.542666
 ---------------------------------------------------------------------

 SCF Done:  E(RB3LYP) =  -1949.10828527     A.U. after   16 cycles

 Excitation energies and oscillator strengths:

 Excited State   1:      Singlet-A      1.9081 eV  649.79 nm  f=0.4393  <S**2>=0.000
     156 ->157         0.70985
     156 <-157        -0.11708
 This state for optimization and/or second-order correction.
 Total Energy, E(TD-HF/TD-DFT) =  -1949.03816496
 Copying the excited state density for this state as the 1-particle RhoCI density.

 The electronic state is 1-A.
 Alpha  occ. eigenvalues --  -19.19717 -19.18448 -19.16026 -19.12689 -19.10034
 Alpha  occ. eigenvalues --  -19.08887 -14.38674 -14.38557 -14.35502 -14.28842
 Alpha  occ. eigenvalues --  -10.34555 -10.32727 -10.29620 -10.25842 -10.25096
 Alpha  occ. eigenvalues --  -10.24669 -10.24230 -10.23815 -10.23308 -10.23281
 Alpha  occ. eigenvalues --  -10.22898 -10.22763 -10.22672 -10.22517 -10.22476
 Alpha  occ. eigenvalues --  -10.22470 -10.21301 -10.21105 -10.21077 -10.20971
 Alpha  occ. eigenvalues --  -10.20797 -10.20779 -10.20437 -10.20393 -10.20080
 Alpha  occ. eigenvalues --  -10.20076 -10.19943 -10.19148 -10.18857 -10.18791
 Alpha  occ. eigenvalues --  -10.18315 -10.17723 -10.17361  -1.10968  -1.10623
 Alpha  occ. eigenvalues --   -1.03552  -1.03312  -1.01607  -0.98515  -0.97293
 Alpha  occ. eigenvalues --   -0.96213  -0.93580  -0.91785  -0.82649  -0.82152
 Alpha  occ. eigenvalues --   -0.81656  -0.81269  -0.79253  -0.78563  -0.77136
 Alpha  occ. eigenvalues --   -0.77055  -0.76348  -0.75216  -0.73891  -0.72836
 Alpha  occ. eigenvalues --   -0.71696  -0.70098  -0.68746  -0.68502  -0.67855
 Alpha  occ. eigenvalues --   -0.67023  -0.66092  -0.65262  -0.62862  -0.61136
 Alpha  occ. eigenvalues --   -0.60175  -0.59682  -0.59483  -0.58985  -0.57115
 Alpha  occ. eigenvalues --   -0.56214  -0.55162  -0.55026  -0.53864  -0.52759
 Alpha  occ. eigenvalues --   -0.52198  -0.51629  -0.51360  -0.50454  -0.49865
 Alpha  occ. eigenvalues --   -0.48875  -0.48786  -0.48264  -0.48178  -0.47420
 Alpha  occ. eigenvalues --   -0.46968  -0.46664  -0.46015  -0.45858  -0.45295
 Alpha  occ. eigenvalues --   -0.44837  -0.44492  -0.44345  -0.43963  -0.43810
 Alpha  occ. eigenvalues --   -0.43425  -0.43294  -0.42858  -0.42529  -0.42007
 Alpha  occ. eigenvalues --   -0.41574  -0.41393  -0.41141  -0.40761  -0.40558
 Alpha  occ. eigenvalues --   -0.40320  -0.40103  -0.39755  -0.39733  -0.39428
 Alpha  occ. eigenvalues --   -0.39134  -0.39102  -0.38738  -0.38372  -0.38189
 Alpha  occ. eigenvalues --   -0.38141  -0.37781  -0.37598  -0.37055  -0.36853
 Alpha  occ. eigenvalues --   -0.36018  -0.35892  -0.35845  -0.35440  -0.35015
 Alpha  occ. eigenvalues --   -0.34847  -0.34584  -0.34231  -0.33890  -0.33296
 Alpha  occ. eigenvalues --   -0.32763  -0.32137  -0.31804  -0.30869  -0.29693
 Alpha  occ. eigenvalues --   -0.28517  -0.28115  -0.26489  -0.26205  -0.25400
 Alpha  occ. eigenvalues --   -0.25045  -0.24677  -0.23573  -0.23419  -0.21928
 Alpha  occ. eigenvalues --   -0.18429
 Alpha virt. eigenvalues --   -0.10948  -0.05775  -0.04189  -0.02635  -0.01063
 Alpha virt. eigenvalues --   -0.00741   0.01710   0.02825   0.03185   0.03818
 Alpha virt. eigenvalues --    0.04294   0.04602   0.05266   0.05702   0.06023

 Mulliken charges:
               1
     1  O   -0.325555
     2  O   -0.181676
     3  O   -0.152724
     4  O   -0.211612
     5  O   -0.283605
     6  O   -0.177662
     7  N   -0.192715
     8  N   -0.172896
     9  N   -0.026427
    10  N   -0.340222
    11  C   -0.063721
    12  C    0.081900
    13  C   -0.148445
    14  C    0.102681
    15  C   -0.057477
    16  C    0.166480
    17  C   -0.152950
    18  C   -0.125175
    19  C    0.040756
    20  C   -0.071478
    21  C   -0.020194
    22  C    0.063306
    23  C    0.086773
    24  C    0.131017
    25  C   -0.103868
    26  C    0.094812
    27  C    0.119350
    28  C   -0.075651
    29  C   -0.082878
    30  C    0.101778
    31  C   -0.008751
    32  C    0.004551
    33  C   -0.167983
    34  C    0.116239
    35  C   -0.132739
    36  C   -0.164080
    37  C    0.176136
    38  C    0.034299
    39  C    0.149022
    40  C    0.090074
    41  C    0.085928
    42  C   -0.013665
    43  C   -0.003685
    44  H    0.221916
    45  H    0.077443
    46  H    0.032354
    47  H    0.024215
    48  H    0.065349
    49  H    0.017279
    50  H   -0.023567
    51  H    0.025363
    52  H    0.216040
    53  H    0.011058
    54  H    0.007634
    55  H    0.056541
    56  H    0.138272
    57  H    0.036495
    58  H    0.055274
    59  H    0.069342
    60  H    0.060731
    61  H    0.039283
    62  H   -0.003430
    63  H    0.048410
    64  H   -0.137135
    65  H    0.036215
    66  H    0.033953
    67  H    0.013565
    68  H    0.014997
    69  H    0.049929
    70  H    0.008082
    71  H    0.049273
    72  H   -0.000105
    73  H    0.002075
    74  H    0.071952
    75  H    0.068149
    76  H    0.038805
    77  H    0.009672
    78  H   -0.007249
    79  H    0.055887
    80  H    0.161205
    81  H    0.167463
 Sum of Mulliken charges =  -0.00000

 Dipole moment (field-independent basis, Debye):
    X=              2.5493    Y=              0.9182    Z=              0.1378  Tot=              2.7132
 Quadrupole moment (field-independent basis, Debye-Ang):
   XX=           -246.5393   YY=           -247.9275   ZZ=           -258.5951
   XY=            -18.3415   XZ=             19.4678   YZ=             16.1642

 Normal termination of Gaussian 16 at Sat Jul  6 04:31:58 2019.
