 Gaussian 16, Revision A.03,
 Gaussian 16:  ES64L-G16RevA.03 25-Dec-2016

 --------------------------
 # td=(NStates=1) B3LYP/SVP
 --------------------------

 --
 TD
 --
 Symbolic Z-matrix:
 Charge =  0 Multiplicity = 1

                         Standard orientation:
 ---------------------------------------------------------------------
 Center     Atomic      Atomic             Coordinates (Angstroms)
 Number     Number       Type             X           Y           Z
 ---------------------------------------------------------------------
      1          8           0        4.545814   -4.844886   -1.769979
      2          8           0       -2.965941   -4.908595   -1.289946
      3          8           0       -7.237664   -1.439092   -1.716892
      4          8           0       -3.933781   -3.143621   -0.174391
      5          8           0       -7.547404   -0.515975    0.385539
      6          8           0        2.993546    2.524560    0.272673
      7          7           0        0.224358   -0.623098    0.463748
      8          7           0       -1.535757    1.854449    0.230668
      9          7           0        3.521014   -3.206633   -0.508403
     10          7           0        0.766713    2.852329    0.050257
     11          6           0       -0.610355   -2.506919    1.387921
     12          6           0       -0.892830   -1.160758    0.912503
     13          6           0        0.765711   -2.666100    1.299835
     14          6           0        1.326498   -1.436264    0.663546
     15          6           0       -3.780791    1.389016    0.302534
     16          6           0       -2.445685    0.812425    0.541672
     17          6           0       -2.162349   -0.590840    0.750050
     18          6           0       -3.546387    2.727043   -0.069853
     19          6           0       -1.740130   -3.435813    1.856667
     20          6           0        5.636783   -2.610921   -1.349551
     21          6           0        3.674960   -1.879592   -0.130559
     22          6           0       -2.088049    2.999924   -0.135859
     23          6           0        5.127123   -1.544977   -0.370015
     24          6           0       -5.053632    0.788836    0.417067
     25          6           0        2.693485   -1.124764    0.352618
     26          6           0        1.467755   -3.963717    1.655867
     27          6           0        4.576818   -3.798917   -1.228273
     28          6           0       -2.127144   -4.603445    0.845583
     29          6           0       -5.487272   -0.150528   -0.760125
     30          6           0       -4.563604    3.891184   -0.372691
     31          6           0       -1.358576    4.162669   -0.345626
     32          6           0        7.027858   -3.102570   -1.088304
     33          6           0        5.788280   -0.587621    0.245060
     34          6           0        0.087188    4.054354   -0.271955
     35          6           0        0.961298    5.220535   -0.483514
     36          6           0        2.274528    4.697989   -0.324216
     37          6           0       -3.065861   -4.000991   -0.204383
     38          6           0        5.327267    0.335568    1.188933
     39          6           0       -6.852181   -0.683990   -0.596777
     40          6           0        3.596453    5.496069   -0.344804
     41          6           0        2.095989    3.202733    0.082504
     42          6           0        0.562227    6.574337   -0.821765
     43          6           0        4.399073    5.721234    0.952773
     44          1           0        0.375521    0.380160    0.059954
     45          1           0       -3.030093   -1.216021    0.878361
     46          1           0       -2.688082   -2.911238    2.087502
     47          1           0       -1.346784   -3.855526    2.816549
     48          1           0        5.504548   -2.144009   -2.397660
     49          1           0       -5.075044    0.213979    1.230517
     50          1           0       -5.746409    1.659712    0.673610
     51          1           0        2.769029   -0.027684    0.785719
     52          1           0       -0.488041    1.978396    0.480177
     53          1           0        1.589411   -4.714760    0.902098
     54          1           0        2.416791   -3.724991    1.922837
     55          1           0        0.909391   -4.408070    2.599782
     56          1           0        2.587837   -3.733306   -0.593050
     57          1           0       -1.328344   -5.233481    0.262222
     58          1           0       -2.897527   -5.292598    1.331151
     59          1           0       -4.901255   -1.231292   -1.065294
     60          1           0       -5.268951    0.417725   -1.751451
     61          1           0       -4.477834    4.999953    0.068246
     62          1           0       -5.620374    3.675616   -0.078176
     63          1           0       -4.512965    4.269770   -1.551044
     64          1           0       -1.787056    5.005225   -0.747567
     65          1           0        7.712918   -2.231020   -1.199096
     66          1           0        7.468511   -3.929892   -1.768121
     67          1           0        6.971192   -3.458088   -0.056623
     68          1           0        6.792732   -0.508016   -0.264512
     69          1           0        5.316934    1.377964    0.599913
     70          1           0        6.024216    0.487958    2.148858
     71          1           0        4.189174   -0.020725    1.713072
     72          1           0        3.509995    6.410302   -0.683848
     73          1           0        4.378032    4.978582   -1.063017
     74          1           0        0.089728    6.677462   -1.734358
     75          1           0        1.359972    7.368397   -0.766170
     76          1           0       -0.109554    7.041026   -0.171249
     77          1           0        3.862482    6.324089    1.680405
     78          1           0        5.422193    6.242241    0.842155
     79          1           0        4.593179    4.733728    1.572843
     80          1           0       -3.692745   -4.744308   -1.927793
     81          1           0       -8.230274   -1.726857   -1.488047
 ---------------------------------------------------------------------

 SCF Done:  E(RB3LYP) =  -1949.11122160     A.U. after   16 cycles

 Excitation energies and oscillator strengths:

 Excited State   1:      Singlet-A      1.9764 eV  627.32 nm  f=0.4237  <S**2>=0.000
     156 ->157         0.70850
     156 <-157        -0.11691
 This state for optimization and/or second-order correction.
 Total Energy, E(TD-HF/TD-DFT) =  -1949.03858928
 Copying the excited state density for this state as the 1-particle RhoCI density.

 The electronic state is 1-A.
 Alpha  occ. eigenvalues --  -19.18406 -19.17823 -19.15851 -19.12781 -19.12618
 Alpha  occ. eigenvalues --  -19.09939 -14.38949 -14.37393 -14.34867 -14.29041
 Alpha  occ. eigenvalues --  -10.34384 -10.31747 -10.29877 -10.25824 -10.24652
 Alpha  occ. eigenvalues --  -10.24292 -10.23926 -10.23517 -10.23491 -10.23155
 Alpha  occ. eigenvalues --  -10.22630 -10.22304 -10.21866 -10.21660 -10.21519
 Alpha  occ. eigenvalues --  -10.21468 -10.20554 -10.20292 -10.20170 -10.20103
 Alpha  occ. eigenvalues --  -10.20028 -10.19941 -10.19890 -10.19710 -10.19434
 Alpha  occ. eigenvalues --  -10.19431 -10.19415 -10.19397 -10.19035 -10.18855
 Alpha  occ. eigenvalues --  -10.18606 -10.18297 -10.18199  -1.09158  -1.07054
 Alpha  occ. eigenvalues --   -1.06038  -1.05437  -1.01329  -0.99239  -0.99153
 Alpha  occ. eigenvalues --   -0.97031  -0.95322  -0.90158  -0.82378  -0.82300
 Alpha  occ. eigenvalues --   -0.81721  -0.80716  -0.79087  -0.78397  -0.77800
 Alpha  occ. eigenvalues --   -0.76772  -0.75688  -0.75558  -0.74675  -0.72213
 Alpha  occ. eigenvalues --   -0.70570  -0.69682  -0.69026  -0.68352  -0.67822
 Alpha  occ. eigenvalues --   -0.66536  -0.65280  -0.63898  -0.62307  -0.60599
 Alpha  occ. eigenvalues --   -0.59647  -0.59132  -0.57311  -0.57006  -0.56620
 Alpha  occ. eigenvalues --   -0.55263  -0.54927  -0.54838  -0.53371  -0.52819
 Alpha  occ. eigenvalues --   -0.51968  -0.51546  -0.51360  -0.49704  -0.49149
 Alpha  occ. eigenvalues --   -0.48769  -0.48546  -0.48333  -0.47539  -0.47230
 Alpha  occ. eigenvalues --   -0.47104  -0.46549  -0.45929  -0.45411  -0.45021
 Alpha  occ. eigenvalues --   -0.44672  -0.44509  -0.44287  -0.43891  -0.43790
 Alpha  occ. eigenvalues --   -0.43571  -0.42992  -0.42905  -0.42466  -0.42342
 Alpha  occ. eigenvalues --   -0.42025  -0.41920  -0.41475  -0.41220  -0.41018
 Alpha  occ. eigenvalues --   -0.40704  -0.40585  -0.40405  -0.40157  -0.39840
 Alpha  occ. eigenvalues --   -0.39574  -0.39015  -0.38946  -0.38539  -0.38293
 Alpha  occ. eigenvalues --   -0.38196  -0.37614  -0.37309  -0.37166  -0.36844
 Alpha  occ. eigenvalues --   -0.36401  -0.36090  -0.35702  -0.35093  -0.35012
 Alpha  occ. eigenvalues --   -0.34348  -0.33909  -0.33457  -0.33183  -0.32600
 Alpha  occ. eigenvalues --   -0.32450  -0.31870  -0.30954  -0.30455  -0.29197
 Alpha  occ. eigenvalues --   -0.28567  -0.28050  -0.27610  -0.25915  -0.25716
 Alpha  occ. eigenvalues --   -0.25055  -0.24164  -0.23499  -0.22707  -0.22018
 Alpha  occ. eigenvalues --   -0.17681
 Alpha virt. eigenvalues --   -0.09952  -0.05622  -0.03246  -0.02716  -0.00141
 Alpha virt. eigenvalues --   -0.00079   0.02261   0.02686   0.03514   0.04045
 Alpha virt. eigenvalues --    0.04398   0.04606   0.05140   0.05519   0.05596

 Mulliken charges:
               1
     1  O   -0.160272
     2  O   -0.245951
     3  O   -0.273510
     4  O   -0.215044
     5  O   -0.229723
     6  O   -0.122742
     7  N   -0.049255
     8  N   -0.126547
     9  N   -0.177456
    10  N   -0.355366
    11  C   -0.076769
    12  C    0.053082
    13  C   -0.179558
    14  C   -0.005406
    15  C   -0.123068
    16  C    0.079560
    17  C   -0.051350
    18  C   -0.080966
    19  C    0.078794
    20  C   -0.094105
    21  C    0.156826
    22  C    0.089541
    23  C   -0.051044
    24  C    0.208064
    25  C   -0.174784
    26  C    0.111497
    27  C    0.134852
    28  C   -0.016719
    29  C   -0.130832
    30  C   -0.033260
    31  C   -0.072517
    32  C    0.037660
    33  C   -0.087263
    34  C    0.081672
    35  C   -0.088598
    36  C   -0.193713
    37  C    0.158787
    38  C   -0.025633
    39  C    0.189922
    40  C    0.134332
    41  C    0.124773
    42  C    0.159719
    43  C   -0.064098
    44  H    0.173144
    45  H   -0.001557
    46  H    0.024660
    47  H    0.017952
    48  H    0.054784
    49  H   -0.037803
    50  H    0.027630
    51  H    0.080744
    52  H    0.170573
    53  H    0.021823
    54  H   -0.009036
    55  H    0.026018
    56  H    0.153247
    57  H    0.077604
    58  H    0.065322
    59  H    0.102816
    60  H    0.054851
    61  H    0.034198
    62  H    0.022394
    63  H    0.035173
    64  H   -0.057295
    65  H    0.020170
    66  H    0.044247
    67  H    0.016571
    68  H   -0.009689
    69  H    0.083979
    70  H    0.034967
    71  H    0.061080
    72  H   -0.051508
    73  H    0.018826
    74  H   -0.000241
    75  H    0.007918
    76  H   -0.010695
    77  H    0.001945
    78  H    0.021318
    79  H    0.032835
    80  H    0.184203
    81  H    0.213302
 Sum of Mulliken charges =  -0.00000

 Dipole moment (field-independent basis, Debye):
    X=             -1.2473    Y=             -0.2904    Z=             -0.4215  Tot=              1.3482
 Quadrupole moment (field-independent basis, Debye-Ang):
   XX=           -251.6527   YY=           -234.6111   ZZ=           -256.0255
   XY=             16.6259   XZ=             12.5395   YZ=            -11.8600

 Normal termination of Gaussian 16 at Tue Jul  2 11:36:23 2019.
