 Gaussian 16, Revision A.03,
 Gaussian 16:  ES64L-G16RevA.03 25-Dec-2016

 --------------------------
 # td=(NStates=1) B3LYP/SVP
 --------------------------

 --
 TD
 --
 Symbolic Z-matrix:
 Charge =  0 Multiplicity = 1

                         Standard orientation:
 ---------------------------------------------------------------------
 Center     Atomic      Atomic             Coordinates (Angstroms)
 Number     Number       Type             X           Y           Z
 ---------------------------------------------------------------------
      1          8           0       -4.320484   -4.617734    2.227610
      2          8           0        2.967210   -4.744393    1.237382
      3          8           0        6.844080   -1.681710    1.858122
      4          8           0        3.873871   -3.008875   -0.044672
      5          8           0        7.591308   -0.528060    0.033267
      6          8           0       -2.944841    2.454933   -0.378332
      7          7           0       -0.414964   -0.553585   -0.724288
      8          7           0        1.541202    1.836710   -0.456622
      9          7           0       -3.325359   -3.065022    0.784799
     10          7           0       -0.679016    2.918873   -0.091394
     11          6           0        0.528293   -2.393070   -1.441241
     12          6           0        0.808450   -1.093057   -1.114897
     13          6           0       -0.797671   -2.712710   -1.362395
     14          6           0       -1.386318   -1.458766   -0.867329
     15          6           0        3.771294    1.397220   -0.358714
     16          6           0        2.506449    0.825048   -0.760119
     17          6           0        2.164788   -0.460461   -1.027684
     18          6           0        3.580285    2.752012   -0.092015
     19          6           0        1.602922   -3.547921   -1.924158
     20          6           0       -5.524993   -2.602900    1.426105
     21          6           0       -3.621137   -1.877680    0.092748
     22          6           0        2.094719    2.985319   -0.045474
     23          6           0       -5.008114   -1.561132    0.418429
     24          6           0        5.101628    0.613964   -0.424971
     25          6           0       -2.779691   -1.033283   -0.560110
     26          6           0       -1.601095   -3.916676   -1.712031
     27          6           0       -4.307571   -3.559295    1.515886
     28          6           0        2.038646   -4.433796   -0.899015
     29          6           0        5.366636   -0.219767    0.849085
     30          6           0        4.746665    3.652233    0.315990
     31          6           0        1.370060    4.241228    0.327088
     32          6           0       -6.819882   -3.289398    1.075562
     33          6           0       -5.846011   -0.710654   -0.173745
     34          6           0       -0.075486    4.048205    0.271695
     35          6           0       -0.966192    5.175639    0.757402
     36          6           0       -2.193490    4.733705    0.366474
     37          6           0        3.009244   -3.916760    0.114802
     38          6           0       -5.492563    0.348469   -1.255580
     39          6           0        6.739875   -0.840917    0.838727
     40          6           0       -3.591769    5.325916    0.448997
     41          6           0       -2.035536    3.261781   -0.119220
     42          6           0       -0.487055    6.623211    1.072214
     43          6           0       -4.196082    5.777803   -0.911646
     44          1           0       -0.553663    0.318566   -0.403155
     45          1           0        3.120034   -1.149472   -0.912266
     46          1           0        2.388427   -2.957243   -2.087247
     47          1           0        1.115699   -3.988740   -2.841276
     48          1           0       -5.489553   -2.133407    2.425834
     49          1           0        5.120573    0.160333   -1.338225
     50          1           0        6.031548    1.397767   -0.578567
     51          1           0       -3.127927   -0.077904   -0.938148
     52          1           0        0.514545    1.837307   -0.759293
     53          1           0       -1.407072   -4.690980   -0.950663
     54          1           0       -2.607194   -3.841447   -1.980649
     55          1           0       -1.263484   -4.366799   -2.762315
     56          1           0       -2.467458   -3.548911    0.867582
     57          1           0        1.379808   -4.931426    0.119914
     58          1           0        2.515245   -5.351440   -1.251248
     59          1           0        4.602535   -1.119524    0.818268
     60          1           0        5.208917    0.264893    1.738224
     61          1           0        4.505198    4.646288   -0.209369
     62          1           0        5.686917    3.421432   -0.175572
     63          1           0        4.924043    3.886888    1.498853
     64          1           0        1.924560    4.995104    0.811786
     65          1           0       -7.800307   -2.467961    1.057063
     66          1           0       -7.224311   -4.038145    1.699802
     67          1           0       -6.958415   -3.701188    0.141889
     68          1           0       -6.877399   -0.875159    0.138933
     69          1           0       -4.785748    1.146560   -0.907782
     70          1           0       -6.510881    0.804348   -1.468738
     71          1           0       -5.186413   -0.087467   -2.420578
     72          1           0       -3.513791    6.126409    1.370000
     73          1           0       -4.353853    4.438928    0.801697
     74          1           0        0.068329    6.500670    1.952883
     75          1           0       -1.406662    7.277123    1.230538
     76          1           0        0.016804    7.147572    0.298493
     77          1           0       -3.754501    6.698864   -1.475879
     78          1           0       -5.272748    6.143431   -0.697889
     79          1           0       -4.510718    4.890351   -1.595913
     80          1           0        3.946690   -4.666862    1.679257
     81          1           0        7.864243   -1.861931    2.004106
 ---------------------------------------------------------------------

 SCF Done:  E(RB3LYP) =  -1949.08646708     A.U. after   16 cycles

 Excitation energies and oscillator strengths:

 Excited State   1:      Singlet-A      2.1284 eV  582.52 nm  f=0.3475  <S**2>=0.000
     156 ->157         0.70464
 This state for optimization and/or second-order correction.
 Total Energy, E(TD-HF/TD-DFT) =  -1949.00824881
 Copying the excited state density for this state as the 1-particle RhoCI density.

 The electronic state is 1-A.
 Alpha  occ. eigenvalues --  -19.20930 -19.19653 -19.15456 -19.12543 -19.10642
 Alpha  occ. eigenvalues --  -19.09518 -14.37890 -14.37827 -14.36108 -14.29361
 Alpha  occ. eigenvalues --  -10.34789 -10.31785 -10.28365 -10.26987 -10.25325
 Alpha  occ. eigenvalues --  -10.24406 -10.23542 -10.23488 -10.23279 -10.23232
 Alpha  occ. eigenvalues --  -10.23038 -10.22510 -10.21415 -10.20928 -10.20667
 Alpha  occ. eigenvalues --  -10.20615 -10.20573 -10.20402 -10.20302 -10.20214
 Alpha  occ. eigenvalues --  -10.20074 -10.19987 -10.19898 -10.19810 -10.19679
 Alpha  occ. eigenvalues --  -10.19610 -10.19529 -10.19431 -10.19298 -10.19282
 Alpha  occ. eigenvalues --  -10.19266 -10.19205 -10.18950  -1.09883  -1.08801
 Alpha  occ. eigenvalues --   -1.01651  -1.00843  -1.00528  -1.00464  -0.99700
 Alpha  occ. eigenvalues --   -0.97150  -0.94487  -0.91717  -0.83457  -0.81991
 Alpha  occ. eigenvalues --   -0.81418  -0.80159  -0.79618  -0.78917  -0.78191
 Alpha  occ. eigenvalues --   -0.76603  -0.75382  -0.74327  -0.73342  -0.72293
 Alpha  occ. eigenvalues --   -0.70658  -0.69580  -0.69500  -0.68903  -0.67903
 Alpha  occ. eigenvalues --   -0.67247  -0.64874  -0.64188  -0.62428  -0.60955
 Alpha  occ. eigenvalues --   -0.60256  -0.59381  -0.58983  -0.58511  -0.57952
 Alpha  occ. eigenvalues --   -0.55963  -0.54982  -0.54627  -0.53781  -0.52741
 Alpha  occ. eigenvalues --   -0.52144  -0.51805  -0.50842  -0.50641  -0.49541
 Alpha  occ. eigenvalues --   -0.48831  -0.48518  -0.48256  -0.47822  -0.47287
 Alpha  occ. eigenvalues --   -0.46885  -0.46156  -0.45848  -0.45391  -0.45126
 Alpha  occ. eigenvalues --   -0.44898  -0.44885  -0.43935  -0.43678  -0.43463
 Alpha  occ. eigenvalues --   -0.43168  -0.42671  -0.42362  -0.42091  -0.41939
 Alpha  occ. eigenvalues --   -0.41529  -0.41158  -0.41098  -0.40780  -0.40590
 Alpha  occ. eigenvalues --   -0.40399  -0.40220  -0.40166  -0.39813  -0.39640
 Alpha  occ. eigenvalues --   -0.39501  -0.38836  -0.38789  -0.38748  -0.38530
 Alpha  occ. eigenvalues --   -0.38071  -0.37899  -0.37658  -0.36873  -0.36176
 Alpha  occ. eigenvalues --   -0.35814  -0.35102  -0.34801  -0.34073  -0.34064
 Alpha  occ. eigenvalues --   -0.33190  -0.33111  -0.32869  -0.32832  -0.32585
 Alpha  occ. eigenvalues --   -0.32531  -0.31968  -0.31718  -0.29779  -0.29450
 Alpha  occ. eigenvalues --   -0.28072  -0.27826  -0.26515  -0.26093  -0.25526
 Alpha  occ. eigenvalues --   -0.24729  -0.24455  -0.24104  -0.23769  -0.21696
 Alpha  occ. eigenvalues --   -0.18543
 Alpha virt. eigenvalues --   -0.09763  -0.05658  -0.04112  -0.03726   0.00463
 Alpha virt. eigenvalues --    0.00671   0.00799   0.02468   0.02752   0.03047
 Alpha virt. eigenvalues --    0.03460   0.04546   0.04798   0.05377   0.05732

 Mulliken charges:
               1
     1  O   -0.287951
     2  O   -0.264914
     3  O   -0.202770
     4  O   -0.266929
     5  O   -0.230244
     6  O   -0.229273
     7  N    0.023872
     8  N   -0.122728
     9  N   -0.035854
    10  N   -0.300385
    11  C   -0.184622
    12  C    0.057613
    13  C   -0.132743
    14  C   -0.008425
    15  C   -0.084666
    16  C    0.064991
    17  C   -0.089787
    18  C   -0.132118
    19  C    0.257971
    20  C    0.010602
    21  C    0.126412
    22  C    0.054377
    23  C   -0.040193
    24  C    0.079918
    25  C   -0.081117
    26  C    0.084857
    27  C    0.066407
    28  C   -0.065152
    29  C    0.002777
    30  C    0.040984
    31  C   -0.072365
    32  C    0.059119
    33  C   -0.124711
    34  C    0.073142
    35  C   -0.126746
    36  C   -0.136796
    37  C    0.191966
    38  C   -0.035870
    39  C    0.144285
    40  C   -0.022342
    41  C    0.171343
    42  C    0.117844
    43  C   -0.049133
    44  H    0.074186
    45  H    0.075200
    46  H   -0.038560
    47  H    0.028928
    48  H    0.044591
    49  H   -0.004363
    50  H    0.030347
    51  H    0.027485
    52  H    0.175499
    53  H    0.028517
    54  H    0.014647
    55  H    0.014709
    56  H    0.117060
    57  H    0.075169
    58  H    0.053133
    59  H    0.067499
    60  H    0.007309
    61  H    0.017933
    62  H    0.014039
    63  H    0.055656
    64  H   -0.025784
    65  H    0.011535
    66  H    0.015272
    67  H   -0.009195
    68  H   -0.014164
    69  H    0.100242
    70  H    0.011692
    71  H    0.047609
    72  H    0.031978
    73  H    0.044602
    74  H    0.016791
    75  H    0.016672
    76  H    0.029696
    77  H    0.034646
    78  H    0.010046
    79  H    0.047095
    80  H    0.239751
    81  H    0.211886
 Sum of Mulliken charges =  -0.00000

 Dipole moment (field-independent basis, Debye):
    X=              3.7828    Y=             -0.0628    Z=             -0.0263  Tot=              3.7834
 Quadrupole moment (field-independent basis, Debye-Ang):
   XX=           -248.5466   YY=           -236.9684   ZZ=           -255.9715
   XY=            -22.8424   XZ=             26.1954   YZ=             15.8014

 Normal termination of Gaussian 16 at Fri Jun 28 07:01:14 2019.
