 Gaussian 16, Revision A.03,
 Gaussian 16:  ES64L-G16RevA.03 25-Dec-2016

 --------------------------
 # td=(NStates=1) B3LYP/SVP
 --------------------------

 --
 TD
 --
 Symbolic Z-matrix:
 Charge =  0 Multiplicity = 1

                         Standard orientation:
 ---------------------------------------------------------------------
 Center     Atomic      Atomic             Coordinates (Angstroms)
 Number     Number       Type             X           Y           Z
 ---------------------------------------------------------------------
      1          8           0        4.495544   -4.788520   -1.803849
      2          8           0       -3.038975   -4.636589   -1.355014
      3          8           0       -6.897754   -1.534510   -1.948760
      4          8           0       -3.883153   -3.008636   -0.054846
      5          8           0       -7.503190   -0.459234    0.037362
      6          8           0        3.078368    2.276577    0.204276
      7          7           0        0.307280   -0.605371    0.705691
      8          7           0       -1.465280    1.881109    0.301210
      9          7           0        3.443570   -3.198856   -0.583382
     10          7           0        0.780056    2.868627    0.085448
     11          6           0       -0.736975   -2.455935    1.434466
     12          6           0       -0.983206   -1.138184    0.957226
     13          6           0        0.679917   -2.727988    1.401002
     14          6           0        1.321547   -1.508495    0.827459
     15          6           0       -3.821715    1.529423    0.363335
     16          6           0       -2.483140    0.930798    0.494999
     17          6           0       -2.228418   -0.406731    0.765966
     18          6           0       -3.511046    2.901804   -0.071407
     19          6           0       -1.765715   -3.439977    1.935199
     20          6           0        5.423006   -2.565546   -1.548792
     21          6           0        3.598594   -1.926581   -0.069504
     22          6           0       -2.134901    3.023608   -0.043021
     23          6           0        5.039146   -1.567595   -0.367204
     24          6           0       -5.089132    0.722451    0.385975
     25          6           0        2.655003   -1.082723    0.431238
     26          6           0        1.399210   -3.943023    1.861675
     27          6           0        4.460074   -3.699541   -1.328503
     28          6           0       -2.303358   -4.429382    1.072472
     29          6           0       -5.286022   -0.092161   -0.829234
     30          6           0       -4.537749    4.022143   -0.264263
     31          6           0       -1.289946    4.154262   -0.211970
     32          6           0        6.901308   -3.106098   -1.411725
     33          6           0        5.752667   -0.532173    0.155442
     34          6           0        0.161684    4.013172   -0.211829
     35          6           0        1.190231    5.127971   -0.439015
     36          6           0        2.452745    4.551312   -0.309660
     37          6           0       -3.232920   -3.911604   -0.143243
     38          6           0        5.280140    0.339957    1.361592
     39          6           0       -6.717171   -0.778080   -0.862840
     40          6           0        3.689986    5.236659   -0.380623
     41          6           0        2.202290    3.141094    0.001463
     42          6           0        0.654277    6.496485   -0.898348
     43          6           0        4.342285    5.359712    1.041957
     44          1           0        0.606122    0.243795    0.273072
     45          1           0       -3.062703   -1.073525    0.922320
     46          1           0       -2.597979   -3.092309    2.517484
     47          1           0       -1.286159   -4.053283    2.635750
     48          1           0        5.453739   -2.351673   -2.575639
     49          1           0       -4.862065    0.191074    1.253725
     50          1           0       -5.847387    1.269681    0.315466
     51          1           0        3.045426   -0.051033    0.555011
     52          1           0       -0.341963    1.931043    0.406545
     53          1           0        1.297539   -4.573098    1.116596
     54          1           0        2.238950   -3.667658    2.168935
     55          1           0        0.795647   -4.558485    2.685302
     56          1           0        2.437427   -3.551835   -0.729046
     57          1           0       -1.762583   -4.967157    0.557214
     58          1           0       -2.883227   -5.249772    1.649541
     59          1           0       -4.604454   -0.849921   -1.043872
     60          1           0       -5.279117    0.621149   -1.601485
     61          1           0       -4.317956    4.910300    0.406093
     62          1           0       -5.504641    3.743411    0.040538
     63          1           0       -4.657853    4.120858   -1.348996
     64          1           0       -1.771981    5.133293   -0.516142
     65          1           0        7.702656   -2.371530   -1.672188
     66          1           0        6.888508   -4.033669   -2.050505
     67          1           0        6.981613   -3.301246   -0.313036
     68          1           0        6.729464   -0.273214   -0.218439
     69          1           0        4.762803    1.231669    0.925624
     70          1           0        6.093379    0.294977    1.964546
     71          1           0        4.459156   -0.287475    1.777751
     72          1           0        3.369728    6.364793   -0.766079
     73          1           0        4.365900    4.923833   -1.098827
     74          1           0        0.141897    6.228156   -1.891019
     75          1           0        1.348751    7.212348   -0.908281
     76          1           0       -0.289184    6.681447   -0.298150
     77          1           0        3.894046    6.051839    1.596182
     78          1           0        5.444316    5.564769    0.837996
     79          1           0        4.614872    4.479104    1.509845
     80          1           0       -3.694970   -4.054333   -1.856462
     81          1           0       -7.869989   -1.681799   -2.025214
 ---------------------------------------------------------------------

 SCF Done:  E(RB3LYP) =  -1949.04220675     A.U. after   17 cycles

 Excitation energies and oscillator strengths:

 Excited State   1:      Singlet-A      1.9019 eV  651.91 nm  f=0.3635  <S**2>=0.000
     156 ->157         0.70913
     156 <-157        -0.11834
 This state for optimization and/or second-order correction.
 Total Energy, E(TD-HF/TD-DFT) =  -1948.97231418
 Copying the excited state density for this state as the 1-particle RhoCI density.

 The electronic state is 1-A.
 Alpha  occ. eigenvalues --  -19.20785 -19.18486 -19.15911 -19.13263 -19.11124
 Alpha  occ. eigenvalues --  -19.10784 -14.37459 -14.37226 -14.33760 -14.29730
 Alpha  occ. eigenvalues --  -10.32960 -10.32654 -10.28652 -10.27284 -10.24237
 Alpha  occ. eigenvalues --  -10.24200 -10.23671 -10.22979 -10.22859 -10.22633
 Alpha  occ. eigenvalues --  -10.21323 -10.21170 -10.20863 -10.20536 -10.20427
 Alpha  occ. eigenvalues --  -10.20419 -10.20024 -10.20011 -10.19957 -10.19913
 Alpha  occ. eigenvalues --  -10.19895 -10.19771 -10.19706 -10.19420 -10.19199
 Alpha  occ. eigenvalues --  -10.19089 -10.18996 -10.18730 -10.18649 -10.18068
 Alpha  occ. eigenvalues --  -10.17815 -10.17029 -10.16819  -1.13894  -1.10647
 Alpha  occ. eigenvalues --   -1.05105  -1.02586  -1.01046  -1.00441  -0.97454
 Alpha  occ. eigenvalues --   -0.95977  -0.95813  -0.91063  -0.83696  -0.82795
 Alpha  occ. eigenvalues --   -0.80627  -0.80412  -0.80128  -0.79000  -0.78359
 Alpha  occ. eigenvalues --   -0.77203  -0.75865  -0.75253  -0.73936  -0.72471
 Alpha  occ. eigenvalues --   -0.71095  -0.69833  -0.69095  -0.68262  -0.68113
 Alpha  occ. eigenvalues --   -0.67127  -0.64848  -0.64008  -0.63433  -0.61669
 Alpha  occ. eigenvalues --   -0.61089  -0.59294  -0.58535  -0.57787  -0.56523
 Alpha  occ. eigenvalues --   -0.56337  -0.55182  -0.54897  -0.53115  -0.53006
 Alpha  occ. eigenvalues --   -0.52343  -0.51986  -0.51539  -0.50762  -0.50579
 Alpha  occ. eigenvalues --   -0.49630  -0.49411  -0.49194  -0.48709  -0.48606
 Alpha  occ. eigenvalues --   -0.47719  -0.47181  -0.46813  -0.46409  -0.46177
 Alpha  occ. eigenvalues --   -0.45751  -0.45264  -0.45071  -0.44623  -0.44567
 Alpha  occ. eigenvalues --   -0.44361  -0.43780  -0.43375  -0.43166  -0.43002
 Alpha  occ. eigenvalues --   -0.42768  -0.42451  -0.42133  -0.41639  -0.41337
 Alpha  occ. eigenvalues --   -0.40653  -0.40589  -0.40132  -0.39935  -0.39578
 Alpha  occ. eigenvalues --   -0.39394  -0.39287  -0.39154  -0.38450  -0.38126
 Alpha  occ. eigenvalues --   -0.37876  -0.37796  -0.37624  -0.37518  -0.37282
 Alpha  occ. eigenvalues --   -0.36717  -0.36059  -0.35626  -0.35276  -0.34945
 Alpha  occ. eigenvalues --   -0.34405  -0.34214  -0.34124  -0.33644  -0.33399
 Alpha  occ. eigenvalues --   -0.32967  -0.32528  -0.31599  -0.29823  -0.29377
 Alpha  occ. eigenvalues --   -0.28176  -0.27999  -0.26912  -0.25991  -0.25310
 Alpha  occ. eigenvalues --   -0.24737  -0.24501  -0.24191  -0.23143  -0.21317
 Alpha  occ. eigenvalues --   -0.17641
 Alpha virt. eigenvalues --   -0.10128  -0.06070  -0.03651  -0.00513  -0.00216
 Alpha virt. eigenvalues --    0.00269   0.02011   0.02951   0.03630   0.04360
 Alpha virt. eigenvalues --    0.04547   0.04786   0.05139   0.05633   0.06474

 Mulliken charges:
               1
     1  O   -0.179265
     2  O   -0.247439
     3  O   -0.166172
     4  O   -0.115546
     5  O   -0.249338
     6  O   -0.237280
     7  N   -0.077516
     8  N   -0.174464
     9  N   -0.113198
    10  N   -0.333005
    11  C   -0.077660
    12  C    0.051120
    13  C   -0.231572
    14  C    0.035774
    15  C   -0.156286
    16  C    0.128637
    17  C   -0.053527
    18  C   -0.178991
    19  C    0.190514
    20  C   -0.075315
    21  C    0.051713
    22  C    0.124086
    23  C    0.023614
    24  C    0.340913
    25  C   -0.084354
    26  C    0.267316
    27  C    0.100920
    28  C    0.104904
    29  C    0.020441
    30  C    0.132455
    31  C   -0.142310
    32  C   -0.004245
    33  C   -0.183903
    34  C    0.060385
    35  C   -0.117225
    36  C   -0.132803
    37  C    0.080466
    38  C    0.071457
    39  C    0.147145
    40  C    0.037904
    41  C    0.197556
    42  C    0.145168
    43  C    0.077619
    44  H    0.126345
    45  H   -0.014885
    46  H    0.000776
    47  H   -0.035883
    48  H    0.026524
    49  H    0.003312
    50  H   -0.095530
    51  H    0.028566
    52  H    0.192173
    53  H   -0.023491
    54  H   -0.024371
    55  H    0.007514
    56  H    0.158130
    57  H   -0.088066
    58  H    0.034867
    59  H    0.005397
    60  H    0.005609
    61  H    0.042299
    62  H   -0.014125
    63  H    0.021262
    64  H   -0.017714
    65  H    0.025546
    66  H    0.045363
    67  H    0.012268
    68  H   -0.011259
    69  H    0.099821
    70  H   -0.004272
    71  H    0.016807
    72  H    0.004331
    73  H   -0.007650
    74  H    0.039152
    75  H   -0.009692
    76  H    0.030706
    77  H   -0.005587
    78  H   -0.009420
    79  H    0.005667
    80  H    0.179300
    81  H    0.191516
 Sum of Mulliken charges =  -0.00000

 Dipole moment (field-independent basis, Debye):
    X=             -3.3913    Y=              1.2249    Z=             -1.1290  Tot=              3.7784
 Quadrupole moment (field-independent basis, Debye-Ang):
   XX=           -243.1295   YY=           -245.9054   ZZ=           -251.7451
   XY=             19.5912   XZ=             17.9951   YZ=            -14.9237

 Normal termination of Gaussian 16 at Wed Jun 26 21:05:20 2019.
