 Gaussian 16, Revision A.03,
 Gaussian 16:  ES64L-G16RevA.03 25-Dec-2016

 --------------------------
 # td=(NStates=1) B3LYP/SVP
 --------------------------

 --
 TD
 --
 Symbolic Z-matrix:
 Charge =  0 Multiplicity = 1

                         Standard orientation:
 ---------------------------------------------------------------------
 Center     Atomic      Atomic             Coordinates (Angstroms)
 Number     Number       Type             X           Y           Z
 ---------------------------------------------------------------------
      1          8           0        4.693302   -4.760590   -1.718011
      2          8           0       -2.935438   -4.925849   -1.326437
      3          8           0       -7.207591   -1.459840   -1.756611
      4          8           0       -3.719444   -3.125331   -0.213385
      5          8           0       -7.593378   -0.852878    0.443389
      6          8           0        3.077597    2.486042    0.118728
      7          7           0        0.242644   -0.603985    0.549338
      8          7           0       -1.589552    1.684497    0.328483
      9          7           0        3.471791   -3.043003   -0.663605
     10          7           0        0.761961    2.850313    0.034123
     11          6           0       -0.583637   -2.546695    1.275482
     12          6           0       -0.979642   -1.167502    0.941510
     13          6           0        0.785778   -2.638220    1.046213
     14          6           0        1.320250   -1.412781    0.617728
     15          6           0       -3.843793    1.421021    0.323635
     16          6           0       -2.540554    0.799857    0.534222
     17          6           0       -2.236557   -0.525434    0.760951
     18          6           0       -3.594423    2.779560   -0.030844
     19          6           0       -1.661036   -3.421330    1.836295
     20          6           0        5.777314   -2.585235   -1.258952
     21          6           0        3.618968   -1.802391   -0.157034
     22          6           0       -2.150754    2.852178   -0.096451
     23          6           0        5.076522   -1.457734   -0.301007
     24          6           0       -5.258333    0.736224    0.500516
     25          6           0        2.591912   -0.977935    0.318394
     26          6           0        1.557920   -3.772084    1.625615
     27          6           0        4.696400   -3.624312   -1.250085
     28          6           0       -2.071349   -4.520517    0.809588
     29          6           0       -5.459424   -0.147112   -0.657165
     30          6           0       -4.600324    3.853855   -0.358400
     31          6           0       -1.377469    4.155413   -0.374510
     32          6           0        7.121710   -3.111861   -0.814073
     33          6           0        5.687705   -0.493408    0.242957
     34          6           0        0.034493    3.933506   -0.205063
     35          6           0        0.960097    5.206487   -0.461298
     36          6           0        2.217751    4.709763   -0.346355
     37          6           0       -2.904720   -4.089330   -0.317870
     38          6           0        5.292446    0.493128    1.310817
     39          6           0       -6.872101   -0.841543   -0.554037
     40          6           0        3.614244    5.436572   -0.482562
     41          6           0        2.154275    3.234881   -0.074039
     42          6           0        0.517725    6.607154   -0.821235
     43          6           0        4.154029    5.684704    0.983104
     44          1           0        0.322904    0.169500   -0.009074
     45          1           0       -3.232159   -1.185804    0.988301
     46          1           0       -2.519153   -2.787916    2.319377
     47          1           0       -1.061700   -4.096560    2.706834
     48          1           0        5.924052   -2.272421   -2.279380
     49          1           0       -5.399927    0.244551    1.352109
     50          1           0       -5.963163    1.332025    0.557011
     51          1           0        2.668630    0.114392    0.208091
     52          1           0       -0.446326    1.712374    0.471033
     53          1           0        1.707317   -4.598389    0.903380
     54          1           0        2.642010   -3.698224    2.125394
     55          1           0        1.205656   -4.422864    2.430679
     56          1           0        2.534849   -3.569555   -0.847602
     57          1           0       -0.867478   -4.783802    0.539161
     58          1           0       -2.551470   -5.449497    1.408231
     59          1           0       -4.760389   -1.102181   -0.731529
     60          1           0       -5.407823    0.254990   -1.680049
     61          1           0       -4.521828    4.790632    0.382744
     62          1           0       -5.517085    3.422168   -0.542644
     63          1           0       -4.557747    4.355057   -1.412767
     64          1           0       -1.961631    4.993984   -0.562310
     65          1           0        8.121701   -2.501042   -0.994978
     66          1           0        7.309665   -3.876311   -1.458184
     67          1           0        7.143700   -3.481462    0.361342
     68          1           0        6.721252   -0.502247    0.113696
     69          1           0        4.521002    1.245006    0.955191
     70          1           0        6.019069    1.043896    1.665498
     71          1           0        4.725300    0.110747    2.068135
     72          1           0        3.469915    6.302278   -1.086960
     73          1           0        4.244169    4.577043   -1.027230
     74          1           0       -0.202349    6.773136   -1.675509
     75          1           0        1.523927    6.931175   -0.919186
     76          1           0        0.217230    7.057809    0.114305
     77          1           0        3.220841    6.338812    1.439200
     78          1           0        5.029306    6.234743    0.941099
     79          1           0        4.299332    4.793809    1.543142
     80          1           0       -3.508608   -4.484529   -2.149787
     81          1           0       -8.093822   -1.705823   -1.732818
 ---------------------------------------------------------------------

 SCF Done:  E(RB3LYP) =  -1949.03720244     A.U. after   16 cycles

 Excitation energies and oscillator strengths:

 Excited State   1:      Singlet-A      1.9215 eV  645.24 nm  f=0.4744  <S**2>=0.000
     156 ->157         0.70916
     156 <-157        -0.12233
 This state for optimization and/or second-order correction.
 Total Energy, E(TD-HF/TD-DFT) =  -1948.96658738
 Copying the excited state density for this state as the 1-particle RhoCI density.

 The electronic state is 1-A.
 Alpha  occ. eigenvalues --  -19.21227 -19.17336 -19.13558 -19.13258 -19.12930
 Alpha  occ. eigenvalues --  -19.10569 -14.38539 -14.36698 -14.35430 -14.28989
 Alpha  occ. eigenvalues --  -10.33841 -10.32097 -10.31224 -10.26637 -10.25392
 Alpha  occ. eigenvalues --  -10.23974 -10.23277 -10.23095 -10.22998 -10.22798
 Alpha  occ. eigenvalues --  -10.22479 -10.22363 -10.22200 -10.21465 -10.20760
 Alpha  occ. eigenvalues --  -10.20680 -10.20443 -10.20402 -10.20379 -10.20199
 Alpha  occ. eigenvalues --  -10.20056 -10.19710 -10.19676 -10.19619 -10.19255
 Alpha  occ. eigenvalues --  -10.18952 -10.18630 -10.18549 -10.18448 -10.18139
 Alpha  occ. eigenvalues --  -10.17939 -10.17463 -10.15576  -1.10737  -1.08074
 Alpha  occ. eigenvalues --   -1.04067  -1.02169  -0.99948  -0.99520  -0.99077
 Alpha  occ. eigenvalues --   -0.97907  -0.95399  -0.90042  -0.82399  -0.82159
 Alpha  occ. eigenvalues --   -0.81482  -0.80951  -0.78850  -0.78654  -0.77911
 Alpha  occ. eigenvalues --   -0.77159  -0.76068  -0.74301  -0.73292  -0.71472
 Alpha  occ. eigenvalues --   -0.70409  -0.70109  -0.68772  -0.68492  -0.67938
 Alpha  occ. eigenvalues --   -0.67618  -0.66209  -0.64685  -0.61745  -0.60915
 Alpha  occ. eigenvalues --   -0.60183  -0.59137  -0.58455  -0.57958  -0.57628
 Alpha  occ. eigenvalues --   -0.56305  -0.55197  -0.54430  -0.53704  -0.53210
 Alpha  occ. eigenvalues --   -0.52178  -0.51139  -0.50736  -0.49924  -0.49203
 Alpha  occ. eigenvalues --   -0.48816  -0.48664  -0.48585  -0.47928  -0.47413
 Alpha  occ. eigenvalues --   -0.47232  -0.46538  -0.46076  -0.44950  -0.44841
 Alpha  occ. eigenvalues --   -0.44474  -0.44305  -0.44031  -0.43661  -0.43384
 Alpha  occ. eigenvalues --   -0.43149  -0.42911  -0.42582  -0.42466  -0.42253
 Alpha  occ. eigenvalues --   -0.42074  -0.41843  -0.41454  -0.41323  -0.40750
 Alpha  occ. eigenvalues --   -0.40426  -0.40192  -0.39942  -0.39800  -0.39562
 Alpha  occ. eigenvalues --   -0.39223  -0.38787  -0.38543  -0.38315  -0.38254
 Alpha  occ. eigenvalues --   -0.37965  -0.37333  -0.37162  -0.36781  -0.36642
 Alpha  occ. eigenvalues --   -0.35828  -0.35526  -0.35029  -0.34504  -0.34409
 Alpha  occ. eigenvalues --   -0.34235  -0.33923  -0.33025  -0.32834  -0.32629
 Alpha  occ. eigenvalues --   -0.32525  -0.32123  -0.31384  -0.29792  -0.28853
 Alpha  occ. eigenvalues --   -0.27976  -0.27916  -0.26923  -0.26847  -0.25511
 Alpha  occ. eigenvalues --   -0.25419  -0.24548  -0.24249  -0.23144  -0.20804
 Alpha  occ. eigenvalues --   -0.16982
 Alpha virt. eigenvalues --   -0.09541  -0.05100  -0.03806  -0.03134  -0.02070
 Alpha virt. eigenvalues --    0.00087   0.00227   0.01747   0.02999   0.04577
 Alpha virt. eigenvalues --    0.04728   0.04962   0.05459   0.05699   0.06315

 Mulliken charges:
               1
     1  O   -0.202599
     2  O   -0.197995
     3  O   -0.190039
     4  O   -0.281782
     5  O   -0.242615
     6  O   -0.192629
     7  N   -0.044067
     8  N   -0.112636
     9  N   -0.175807
    10  N   -0.343491
    11  C   -0.084293
    12  C    0.033425
    13  C   -0.129485
    14  C    0.081994
    15  C   -0.127779
    16  C    0.048480
    17  C   -0.084106
    18  C   -0.118116
    19  C    0.036189
    20  C    0.004689
    21  C    0.131030
    22  C    0.024209
    23  C    0.006473
    24  C    0.381354
    25  C   -0.109900
    26  C   -0.000440
    27  C    0.145418
    28  C   -0.085284
    29  C   -0.102033
    30  C    0.066877
    31  C   -0.079479
    32  C    0.002892
    33  C   -0.150385
    34  C    0.126249
    35  C   -0.170442
    36  C   -0.203236
    37  C    0.191476
    38  C    0.157374
    39  C    0.151064
    40  C    0.041849
    41  C    0.174196
    42  C    0.165262
    43  C    0.025511
    44  H    0.097284
    45  H    0.064547
    46  H    0.053194
    47  H    0.026720
    48  H    0.044917
    49  H   -0.033715
    50  H   -0.106406
    51  H    0.017223
    52  H    0.208923
    53  H   -0.004483
    54  H    0.038828
    55  H   -0.000424
    56  H    0.173020
    57  H    0.066496
    58  H    0.086007
    59  H    0.084432
    60  H    0.023868
    61  H    0.052086
    62  H   -0.010652
    63  H    0.019768
    64  H   -0.048424
    65  H    0.034345
    66  H    0.004458
    67  H    0.043497
    68  H   -0.034177
    69  H    0.054583
    70  H   -0.042280
    71  H   -0.013186
    72  H    0.003528
    73  H    0.031374
    74  H    0.052537
    75  H   -0.020631
    76  H    0.013280
    77  H    0.019645
    78  H    0.002283
    79  H    0.027099
    80  H    0.251873
    81  H    0.151189
 Sum of Mulliken charges =  -0.00000

 Dipole moment (field-independent basis, Debye):
    X=             -0.5829    Y=             -0.9220    Z=             -1.9850  Tot=              2.2650
 Quadrupole moment (field-independent basis, Debye-Ang):
   XX=           -244.3757   YY=           -241.4126   ZZ=           -251.5924
   XY=              6.0734   XZ=             17.6235   YZ=             -6.2476

 Normal termination of Gaussian 16 at Wed Jul  3 09:43:19 2019.
