 Gaussian 16, Revision A.03,
 Gaussian 16:  ES64L-G16RevA.03 25-Dec-2016

 --------------------------
 # td=(NStates=1) B3LYP/SVP
 --------------------------

 --
 TD
 --
 Symbolic Z-matrix:
 Charge =  0 Multiplicity = 1

                         Standard orientation:
 ---------------------------------------------------------------------
 Center     Atomic      Atomic             Coordinates (Angstroms)
 Number     Number       Type             X           Y           Z
 ---------------------------------------------------------------------
      1          8           0        4.305213   -4.870835   -1.961498
      2          8           0       -2.998216   -4.823153   -1.225862
      3          8           0       -7.172655   -1.346471   -1.782379
      4          8           0       -3.834301   -3.135855   -0.177173
      5          8           0       -7.569316   -0.376365    0.217644
      6          8           0        3.198818    2.453133    0.152341
      7          7           0        0.238540   -0.584859    0.623330
      8          7           0       -1.439773    1.867066    0.301543
      9          7           0        3.303807   -3.250266   -0.667648
     10          7           0        0.934742    2.881033   -0.000248
     11          6           0       -0.794770   -2.426031    1.347755
     12          6           0       -1.028304   -1.134165    0.876175
     13          6           0        0.577726   -2.647243    1.316113
     14          6           0        1.230685   -1.518176    0.823372
     15          6           0       -3.721743    1.636414    0.276279
     16          6           0       -2.455012    0.959462    0.513056
     17          6           0       -2.278990   -0.384368    0.752405
     18          6           0       -3.410118    2.908319   -0.062410
     19          6           0       -1.750160   -3.386984    1.927023
     20          6           0        5.394890   -2.718590   -1.410940
     21          6           0        3.592939   -1.942010   -0.079393
     22          6           0       -1.910608    3.053193   -0.065494
     23          6           0        4.876680   -1.616079   -0.420057
     24          6           0       -5.111439    0.998584    0.345923
     25          6           0        2.588770   -1.183529    0.474146
     26          6           0        1.275281   -3.892788    1.866014
     27          6           0        4.336289   -3.820805   -1.326702
     28          6           0       -2.171407   -4.495701    0.981240
     29          6           0       -5.461621   -0.033775   -0.817345
     30          6           0       -4.344017    3.942741   -0.400742
     31          6           0       -1.048328    4.163035   -0.336957
     32          6           0        6.851093   -3.364810   -1.103016
     33          6           0        5.643886   -0.642995    0.065601
     34          6           0        0.284817    3.971343   -0.229021
     35          6           0        1.154621    5.175529   -0.513402
     36          6           0        2.443604    4.775446   -0.218547
     37          6           0       -3.046098   -4.063328   -0.145090
     38          6           0        5.289411    0.388946    1.148614
     39          6           0       -6.786393   -0.633474   -0.733788
     40          6           0        3.788740    5.319331   -0.367048
     41          6           0        2.318051    3.242427    0.056957
     42          6           0        0.672691    6.524526   -0.838555
     43          6           0        4.462554    5.190010    1.136728
     44          1           0        0.351796    0.261268    0.229641
     45          1           0       -2.954477   -1.042719    1.085198
     46          1           0       -2.601898   -2.889865    2.386436
     47          1           0       -1.535329   -3.829760    2.952880
     48          1           0        5.557248   -2.408808   -2.343522
     49          1           0       -5.384327    0.522139    1.236540
     50          1           0       -5.768286    1.854472    0.460328
     51          1           0        2.997705   -0.232356    0.568028
     52          1           0       -0.278093    1.672142    0.477896
     53          1           0        1.152182   -4.953027    1.316306
     54          1           0        2.339020   -3.943636    2.339303
     55          1           0        0.652324   -4.150335    2.942092
     56          1           0        2.421676   -3.621468   -0.521049
     57          1           0       -1.319316   -4.956876    0.576001
     58          1           0       -2.811316   -5.221593    1.538047
     59          1           0       -4.704810   -0.828750   -0.892179
     60          1           0       -5.323557    0.548996   -1.884705
     61          1           0       -4.500813    4.879860    0.235741
     62          1           0       -5.564414    3.456090   -0.551042
     63          1           0       -3.928099    4.202154   -1.508838
     64          1           0       -1.431395    5.364358   -0.600265
     65          1           0        7.788254   -2.706425   -1.401145
     66          1           0        6.873909   -4.367417   -1.881140
     67          1           0        6.985947   -3.680208    0.030653
     68          1           0        6.803672   -0.544937   -0.303439
     69          1           0        4.468407    1.041677    0.804170
     70          1           0        6.268870    1.012602    1.458488
     71          1           0        4.918466   -0.355981    2.087640
     72          1           0        3.546687    6.434787   -0.532002
     73          1           0        4.208353    4.766066   -1.212863
     74          1           0       -0.201707    6.472697   -1.666883
     75          1           0        1.426983    7.207808   -1.080403
     76          1           0        0.206669    6.943385   -0.036782
     77          1           0        4.071339    5.952116    1.867289
     78          1           0        5.505436    5.616711    1.224628
     79          1           0        4.132485    4.102487    1.299292
     80          1           0       -3.742300   -4.572407   -1.764269
     81          1           0       -8.107179   -1.666415   -1.552854
 ---------------------------------------------------------------------

 SCF Done:  E(RB3LYP) =  -1949.06471317     A.U. after   16 cycles

 Excitation energies and oscillator strengths:

 Excited State   1:      Singlet-A      2.0687 eV  599.35 nm  f=0.4092  <S**2>=0.000
     156 ->157         0.70506
 This state for optimization and/or second-order correction.
 Total Energy, E(TD-HF/TD-DFT) =  -1948.98869166
 Copying the excited state density for this state as the 1-particle RhoCI density.

 The electronic state is 1-A.
 Alpha  occ. eigenvalues --  -19.19422 -19.18955 -19.13216 -19.11935 -19.11811
 Alpha  occ. eigenvalues --  -19.09878 -14.37524 -14.37391 -14.36091 -14.29539
 Alpha  occ. eigenvalues --  -10.32949 -10.32071 -10.28355 -10.27453 -10.25396
 Alpha  occ. eigenvalues --  -10.23939 -10.23935 -10.23665 -10.23463 -10.22708
 Alpha  occ. eigenvalues --  -10.22511 -10.22240 -10.21899 -10.21744 -10.21344
 Alpha  occ. eigenvalues --  -10.21179 -10.20976 -10.20933 -10.20624 -10.20554
 Alpha  occ. eigenvalues --  -10.20109 -10.20081 -10.20054 -10.19984 -10.19974
 Alpha  occ. eigenvalues --  -10.19917 -10.19901 -10.19901 -10.19413 -10.19303
 Alpha  occ. eigenvalues --  -10.19226 -10.19129 -10.18962  -1.12358  -1.09910
 Alpha  occ. eigenvalues --   -1.04584  -1.02114  -1.00820  -0.99470  -0.98572
 Alpha  occ. eigenvalues --   -0.98376  -0.94435  -0.92970  -0.83864  -0.82349
 Alpha  occ. eigenvalues --   -0.81976  -0.81322  -0.80357  -0.79386  -0.78642
 Alpha  occ. eigenvalues --   -0.77472  -0.76858  -0.75287  -0.73775  -0.72465
 Alpha  occ. eigenvalues --   -0.70983  -0.70001  -0.69355  -0.68562  -0.67947
 Alpha  occ. eigenvalues --   -0.67065  -0.65599  -0.64192  -0.62614  -0.62204
 Alpha  occ. eigenvalues --   -0.61174  -0.59719  -0.59257  -0.58337  -0.58213
 Alpha  occ. eigenvalues --   -0.56310  -0.55935  -0.55531  -0.53743  -0.53156
 Alpha  occ. eigenvalues --   -0.53014  -0.52125  -0.51175  -0.50211  -0.49988
 Alpha  occ. eigenvalues --   -0.49680  -0.48839  -0.48549  -0.48188  -0.47644
 Alpha  occ. eigenvalues --   -0.47354  -0.46884  -0.46304  -0.45744  -0.45599
 Alpha  occ. eigenvalues --   -0.45348  -0.44785  -0.44577  -0.44319  -0.44030
 Alpha  occ. eigenvalues --   -0.43358  -0.43229  -0.42831  -0.42580  -0.42223
 Alpha  occ. eigenvalues --   -0.41935  -0.41658  -0.41447  -0.41251  -0.40869
 Alpha  occ. eigenvalues --   -0.40737  -0.40488  -0.40234  -0.39963  -0.39432
 Alpha  occ. eigenvalues --   -0.39393  -0.39141  -0.38649  -0.38455  -0.38432
 Alpha  occ. eigenvalues --   -0.37954  -0.37663  -0.37181  -0.36339  -0.36138
 Alpha  occ. eigenvalues --   -0.35502  -0.35207  -0.35040  -0.34752  -0.34535
 Alpha  occ. eigenvalues --   -0.34140  -0.34091  -0.33423  -0.33352  -0.33073
 Alpha  occ. eigenvalues --   -0.32423  -0.31798  -0.31462  -0.30249  -0.28989
 Alpha  occ. eigenvalues --   -0.28774  -0.27483  -0.26633  -0.26212  -0.26136
 Alpha  occ. eigenvalues --   -0.25383  -0.24956  -0.24647  -0.23635  -0.21912
 Alpha  occ. eigenvalues --   -0.18521
 Alpha virt. eigenvalues --   -0.10178  -0.05739  -0.04170  -0.01171  -0.00740
 Alpha virt. eigenvalues --    0.00704   0.02003   0.02783   0.03192   0.03654
 Alpha virt. eigenvalues --    0.04102   0.04341   0.04779   0.05240   0.05659

 Mulliken charges:
               1
     1  O   -0.235143
     2  O   -0.137960
     3  O   -0.175812
     4  O   -0.245369
     5  O   -0.291676
     6  O   -0.168876
     7  N   -0.036239
     8  N   -0.147361
     9  N   -0.096524
    10  N   -0.280560
    11  C   -0.024328
    12  C   -0.065122
    13  C   -0.106299
    14  C    0.128119
    15  C   -0.069216
    16  C    0.129398
    17  C    0.060340
    18  C   -0.063998
    19  C    0.051512
    20  C   -0.007493
    21  C    0.037445
    22  C    0.113860
    23  C    0.070117
    24  C    0.166375
    25  C   -0.027421
    26  C   -0.083362
    27  C    0.158990
    28  C    0.104151
    29  C   -0.047649
    30  C   -0.084834
    31  C   -0.237534
    32  C   -0.107211
    33  C   -0.197531
    34  C    0.114537
    35  C   -0.129121
    36  C   -0.208734
    37  C    0.070399
    38  C   -0.059562
    39  C    0.160746
    40  C    0.065416
    41  C    0.148815
    42  C    0.141753
    43  C   -0.049605
    44  H    0.060956
    45  H   -0.072865
    46  H   -0.005189
    47  H    0.009869
    48  H    0.000738
    49  H   -0.004280
    50  H   -0.008950
    51  H   -0.065278
    52  H    0.224927
    53  H    0.049252
    54  H    0.056678
    55  H    0.024328
    56  H    0.095444
    57  H    0.012519
    58  H    0.047634
    59  H    0.061490
    60  H    0.055584
    61  H    0.060037
    62  H    0.048084
    63  H    0.050233
    64  H    0.034861
    65  H    0.038947
    66  H    0.064951
    67  H    0.037887
    68  H    0.029102
    69  H    0.117882
    70  H    0.036815
    71  H    0.048365
    72  H    0.004495
    73  H    0.045014
    74  H    0.034347
    75  H   -0.003651
    76  H    0.000720
    77  H    0.009101
    78  H    0.015491
    79  H    0.069491
    80  H    0.173029
    81  H    0.204512
 Sum of Mulliken charges =  -0.00000

 Dipole moment (field-independent basis, Debye):
    X=             -3.1885    Y=              1.7427    Z=              0.8116  Tot=              3.7232
 Quadrupole moment (field-independent basis, Debye-Ang):
   XX=           -258.1986   YY=           -238.9509   ZZ=           -255.8628
   XY=             24.2496   XZ=             16.5547   YZ=            -15.3467

 Normal termination of Gaussian 16 at Sat Jul  6 23:47:21 2019.
