 Gaussian 16, Revision A.03,
 Gaussian 16:  ES64L-G16RevA.03 25-Dec-2016

 --------------------------
 # td=(NStates=1) B3LYP/SVP
 --------------------------

 --
 TD
 --
 Symbolic Z-matrix:
 Charge =  0 Multiplicity = 1

                         Standard orientation:
 ---------------------------------------------------------------------
 Center     Atomic      Atomic             Coordinates (Angstroms)
 Number     Number       Type             X           Y           Z
 ---------------------------------------------------------------------
      1          8           0        4.644745   -4.673406   -1.691921
      2          8           0       -2.606527   -4.722103   -1.548730
      3          8           0       -7.136316   -1.598692   -1.696656
      4          8           0       -3.733656   -3.369465   -0.191423
      5          8           0       -7.486476   -0.739247    0.304705
      6          8           0        3.013601    2.553231    0.398926
      7          7           0        0.281128   -0.574607    0.577677
      8          7           0       -1.552903    1.776455    0.332381
      9          7           0        3.419184   -3.109576   -0.641004
     10          7           0        0.672057    2.919225   -0.023949
     11          6           0       -0.567286   -2.490405    1.445468
     12          6           0       -0.824831   -1.272352    1.009820
     13          6           0        0.771971   -2.625265    1.300788
     14          6           0        1.300872   -1.397143    0.735034
     15          6           0       -3.796215    1.403662    0.266795
     16          6           0       -2.486541    0.767317    0.589058
     17          6           0       -2.246131   -0.603479    0.790399
     18          6           0       -3.675535    2.706684   -0.031333
     19          6           0       -1.461335   -3.568644    1.920001
     20          6           0        5.599960   -2.472849   -1.380007
     21          6           0        3.631698   -1.812970   -0.132451
     22          6           0       -2.169950    2.923259   -0.004752
     23          6           0        5.043159   -1.451248   -0.342732
     24          6           0       -5.108721    0.603554    0.398019
     25          6           0        2.722104   -1.007765    0.488152
     26          6           0        1.639575   -3.624893    2.013049
     27          6           0        4.534718   -3.577277   -1.264954
     28          6           0       -1.987699   -4.534175    0.759666
     29          6           0       -5.422279   -0.154401   -0.823146
     30          6           0       -4.665277    3.719300   -0.261893
     31          6           0       -1.417475    4.129121   -0.431249
     32          6           0        6.934201   -3.141610   -1.207210
     33          6           0        5.849403   -0.457279    0.193004
     34          6           0        0.035151    4.020422   -0.332002
     35          6           0        0.904597    5.155223   -0.466605
     36          6           0        2.129995    4.664009   -0.393732
     37          6           0       -2.855671   -4.196995   -0.396548
     38          6           0        5.375354    0.639969    1.143658
     39          6           0       -6.775097   -0.872488   -0.644382
     40          6           0        3.458686    5.419794   -0.448445
     41          6           0        1.991206    3.285266    0.045889
     42          6           0        0.330806    6.481701   -0.856096
     43          6           0        4.042348    5.723668    0.914743
     44          1           0        0.259182    0.368549    0.199653
     45          1           0       -3.016322   -1.240548    1.154270
     46          1           0       -2.297122   -2.972602    2.372770
     47          1           0       -1.066557   -4.156503    2.679680
     48          1           0        5.610904   -1.888572   -2.414788
     49          1           0       -5.058681   -0.182493    1.398372
     50          1           0       -5.978823    1.150780    0.511277
     51          1           0        2.965697    0.072148    0.597857
     52          1           0       -0.596634    1.841688    0.552848
     53          1           0        1.795942   -4.608467    1.344362
     54          1           0        2.667859   -3.310736    2.428482
     55          1           0        1.127971   -4.128760    2.810291
     56          1           0        2.620833   -3.634940   -0.439413
     57          1           0       -1.158364   -4.995542    0.411539
     58          1           0       -2.597706   -5.375429    1.275778
     59          1           0       -4.650873   -0.935016   -1.285385
     60          1           0       -5.517850    0.554021   -1.718555
     61          1           0       -4.818845    4.482842    0.669143
     62          1           0       -5.662432    3.380550   -0.376587
     63          1           0       -4.555331    4.235198   -1.266856
     64          1           0       -1.981757    4.927342   -0.806016
     65          1           0        7.720855   -2.401480   -1.025441
     66          1           0        7.009610   -3.862946   -2.026704
     67          1           0        7.032522   -3.707337   -0.304351
     68          1           0        6.817445   -0.418026   -0.416416
     69          1           0        4.890512    1.611272    0.627705
     70          1           0        6.042263    0.946615    1.766205
     71          1           0        4.530223    0.312949    1.747074
     72          1           0        3.348760    6.362358   -1.108234
     73          1           0        4.238560    4.768720   -1.009731
     74          1           0       -0.219469    6.410713   -1.492818
     75          1           0        1.247242    7.259744   -1.136770
     76          1           0       -0.169609    6.777931    0.072690
     77          1           0        3.342788    6.268202    1.535933
     78          1           0        5.146517    6.461726    0.703978
     79          1           0        4.220166    4.794325    1.472537
     80          1           0       -3.520065   -4.402874   -2.020156
     81          1           0       -8.083205   -1.738705   -1.375184
 ---------------------------------------------------------------------

 SCF Done:  E(RB3LYP) =  -1949.05110783     A.U. after   16 cycles

 Excitation energies and oscillator strengths:

 Excited State   1:      Singlet-A      1.7587 eV  704.98 nm  f=0.2205  <S**2>=0.000
     156 ->157         0.70487
 This state for optimization and/or second-order correction.
 Total Energy, E(TD-HF/TD-DFT) =  -1948.98647678
 Copying the excited state density for this state as the 1-particle RhoCI density.

 The electronic state is 1-A.
 Alpha  occ. eigenvalues --  -19.21560 -19.19100 -19.13305 -19.12825 -19.10650
 Alpha  occ. eigenvalues --  -19.09996 -14.38265 -14.37392 -14.36078 -14.29565
 Alpha  occ. eigenvalues --  -10.32945 -10.32134 -10.27874 -10.26941 -10.26102
 Alpha  occ. eigenvalues --  -10.24764 -10.23614 -10.23399 -10.23054 -10.22867
 Alpha  occ. eigenvalues --  -10.22701 -10.21720 -10.21682 -10.21438 -10.21414
 Alpha  occ. eigenvalues --  -10.21375 -10.21180 -10.21142 -10.20365 -10.20195
 Alpha  occ. eigenvalues --  -10.20159 -10.19830 -10.19752 -10.19422 -10.19288
 Alpha  occ. eigenvalues --  -10.19138 -10.18689 -10.18524 -10.18468 -10.18449
 Alpha  occ. eigenvalues --  -10.18366 -10.17197 -10.16083  -1.12933  -1.11857
 Alpha  occ. eigenvalues --   -1.04617  -1.01722  -1.01229  -1.00466  -0.99588
 Alpha  occ. eigenvalues --   -0.98678  -0.94953  -0.93313  -0.83818  -0.83454
 Alpha  occ. eigenvalues --   -0.80803  -0.80501  -0.80315  -0.78687  -0.78232
 Alpha  occ. eigenvalues --   -0.77651  -0.76447  -0.74921  -0.73422  -0.72526
 Alpha  occ. eigenvalues --   -0.71844  -0.70662  -0.70054  -0.69232  -0.67759
 Alpha  occ. eigenvalues --   -0.67295  -0.65150  -0.64358  -0.61885  -0.61063
 Alpha  occ. eigenvalues --   -0.60552  -0.59348  -0.59098  -0.57973  -0.57583
 Alpha  occ. eigenvalues --   -0.56989  -0.55938  -0.55393  -0.54497  -0.53555
 Alpha  occ. eigenvalues --   -0.52982  -0.51868  -0.51152  -0.51066  -0.50486
 Alpha  occ. eigenvalues --   -0.49990  -0.49390  -0.49125  -0.48827  -0.48171
 Alpha  occ. eigenvalues --   -0.47925  -0.47426  -0.46464  -0.46032  -0.45794
 Alpha  occ. eigenvalues --   -0.45568  -0.45167  -0.44725  -0.44396  -0.43844
 Alpha  occ. eigenvalues --   -0.43312  -0.43278  -0.43052  -0.42728  -0.42431
 Alpha  occ. eigenvalues --   -0.41948  -0.41758  -0.41450  -0.41377  -0.41084
 Alpha  occ. eigenvalues --   -0.40836  -0.40592  -0.40435  -0.40263  -0.39668
 Alpha  occ. eigenvalues --   -0.39465  -0.39345  -0.38865  -0.38721  -0.38153
 Alpha  occ. eigenvalues --   -0.37940  -0.37901  -0.37594  -0.37299  -0.36668
 Alpha  occ. eigenvalues --   -0.36255  -0.35435  -0.35361  -0.34733  -0.34236
 Alpha  occ. eigenvalues --   -0.33935  -0.33620  -0.33309  -0.33104  -0.32916
 Alpha  occ. eigenvalues --   -0.32303  -0.32036  -0.31718  -0.29708  -0.29210
 Alpha  occ. eigenvalues --   -0.28579  -0.28354  -0.26963  -0.26685  -0.25416
 Alpha  occ. eigenvalues --   -0.25233  -0.24743  -0.24560  -0.23665  -0.21628
 Alpha  occ. eigenvalues --   -0.18278
 Alpha virt. eigenvalues --   -0.10834  -0.06280  -0.03839  -0.00991   0.00191
 Alpha virt. eigenvalues --    0.00846   0.01081   0.02357   0.03257   0.03678
 Alpha virt. eigenvalues --    0.03985   0.04273   0.04873   0.05241   0.05671

 Mulliken charges:
               1
     1  O   -0.178810
     2  O   -0.156184
     3  O   -0.172974
     4  O   -0.273916
     5  O   -0.229468
     6  O   -0.290148
     7  N   -0.000532
     8  N   -0.038720
     9  N   -0.056632
    10  N   -0.253688
    11  C   -0.077198
    12  C   -0.057771
    13  C   -0.165960
    14  C    0.016891
    15  C   -0.067072
    16  C    0.092083
    17  C    0.027311
    18  C   -0.086461
    19  C    0.188567
    20  C   -0.146207
    21  C    0.122184
    22  C    0.020398
    23  C   -0.059851
    24  C    0.083993
    25  C   -0.131001
    26  C    0.035640
    27  C    0.097547
    28  C    0.055834
    29  C   -0.075174
    30  C    0.066417
    31  C   -0.082021
    32  C    0.106909
    33  C   -0.120800
    34  C    0.079927
    35  C   -0.154048
    36  C   -0.160522
    37  C    0.098074
    38  C    0.093110
    39  C    0.139787
    40  C    0.056401
    41  C    0.165988
    42  C    0.288537
    43  C   -0.026171
    44  H    0.126198
    45  H   -0.004744
    46  H    0.009797
    47  H   -0.022322
    48  H    0.063940
    49  H    0.057540
    50  H   -0.013873
    51  H    0.033137
    52  H    0.122361
    53  H    0.006421
    54  H    0.058942
    55  H   -0.009440
    56  H    0.104182
    57  H   -0.021744
    58  H    0.051689
    59  H    0.063206
    60  H    0.037428
    61  H    0.055185
    62  H   -0.012290
    63  H    0.031715
    64  H   -0.040177
    65  H   -0.001162
    66  H    0.036292
    67  H   -0.014544
    68  H    0.009522
    69  H    0.092113
    70  H   -0.048559
    71  H    0.007705
    72  H    0.005504
    73  H    0.020379
    74  H   -0.105256
    75  H    0.035581
    76  H    0.018004
    77  H    0.003947
    78  H    0.026514
    79  H    0.035343
    80  H    0.225415
    81  H    0.181778
 Sum of Mulliken charges =  -0.00000

 Dipole moment (field-independent basis, Debye):
    X=             -5.6865    Y=              1.5993    Z=             -0.5963  Tot=              5.9372
 Quadrupole moment (field-independent basis, Debye-Ang):
   XX=           -257.3517   YY=           -239.6172   ZZ=           -253.4404
   XY=              9.8404   XZ=             15.9875   YZ=            -14.2014

 Normal termination of Gaussian 16 at Sun Jun 30 03:49:31 2019.
