 Gaussian 16, Revision A.03,
 Gaussian 16:  ES64L-G16RevA.03 25-Dec-2016

 --------------------------
 # td=(NStates=1) B3LYP/SVP
 --------------------------

 --
 TD
 --
 Symbolic Z-matrix:
 Charge =  0 Multiplicity = 1

                         Standard orientation:
 ---------------------------------------------------------------------
 Center     Atomic      Atomic             Coordinates (Angstroms)
 Number     Number       Type             X           Y           Z
 ---------------------------------------------------------------------
      1          8           0        4.915185   -4.436026   -1.654354
      2          8           0       -2.263385   -5.032914   -1.362254
      3          8           0       -7.146709   -1.695226   -1.814289
      4          8           0       -3.297493   -3.268571   -0.407139
      5          8           0       -7.582296   -1.040907    0.245390
      6          8           0        2.792012    2.623474    0.238339
      7          7           0        0.307026   -0.573679    0.636964
      8          7           0       -1.714212    1.650792    0.438454
      9          7           0        3.725296   -2.962806   -0.520999
     10          7           0        0.481295    2.985164    0.036207
     11          6           0       -0.517920   -2.555207    1.337256
     12          6           0       -0.864726   -1.173696    0.951408
     13          6           0        0.865898   -2.591566    1.312354
     14          6           0        1.385098   -1.286903    0.742752
     15          6           0       -3.894970    1.192086    0.293011
     16          6           0       -2.587626    0.647183    0.556261
     17          6           0       -2.198215   -0.601830    0.738811
     18          6           0       -3.777606    2.508901    0.087898
     19          6           0       -1.407289   -3.603277    1.755463
     20          6           0        5.720391   -2.170312   -1.272483
     21          6           0        3.678879   -1.646391   -0.071027
     22          6           0       -2.327182    2.807739    0.001234
     23          6           0        5.096251   -1.207624   -0.382104
     24          6           0       -5.230376    0.362659    0.465405
     25          6           0        2.780482   -0.831211    0.582564
     26          6           0        1.712907   -3.837719    1.705415
     27          6           0        4.782260   -3.374373   -1.246708
     28          6           0       -1.687042   -4.642029    0.762438
     29          6           0       -5.580874   -0.405407   -0.666185
     30          6           0       -4.853352    3.578433   -0.247770
     31          6           0       -1.552124    3.942123   -0.302828
     32          6           0        7.241124   -2.671244   -1.187621
     33          6           0        5.821759   -0.188578    0.263846
     34          6           0       -0.132117    4.075499   -0.287387
     35          6           0        0.684650    5.206574   -0.560794
     36          6           0        1.908673    4.802260   -0.372110
     37          6           0       -2.519502   -4.266761   -0.349289
     38          6           0        5.360793    0.708159    1.350605
     39          6           0       -6.816500   -1.143537   -0.668969
     40          6           0        3.151178    5.433136   -0.583069
     41          6           0        1.808377    3.323456    0.020637
     42          6           0        0.037624    6.534314   -0.908034
     43          6           0        3.782750    5.737949    0.815621
     44          1           0        0.365551    0.342760    0.143565
     45          1           0       -2.773022   -1.299056    0.875864
     46          1           0       -2.385003   -3.219050    2.042232
     47          1           0       -1.150862   -4.014099    2.890609
     48          1           0        5.620081   -1.878734   -2.409184
     49          1           0       -5.092978   -0.129703    1.332255
     50          1           0       -5.861472    1.113177    0.689559
     51          1           0        3.084086    0.197814    0.706197
     52          1           0       -0.894037    1.749363    0.643646
     53          1           0        1.706257   -4.688496    0.908930
     54          1           0        2.589982   -3.531906    1.896898
     55          1           0        1.147702   -4.206224    2.593549
     56          1           0        2.892023   -3.396797   -0.612986
     57          1           0       -0.837939   -4.844391    0.150665
     58          1           0       -2.240279   -5.628532    1.211338
     59          1           0       -4.784639   -1.092795   -0.708645
     60          1           0       -5.607927    0.300089   -1.735312
     61          1           0       -4.521052    4.457537    0.603876
     62          1           0       -5.800851    3.040728   -0.024156
     63          1           0       -4.723504    3.949886   -1.105299
     64          1           0       -2.244559    4.920477   -0.327311
     65          1           0        7.866344   -1.713261   -1.532325
     66          1           0        7.484233   -3.474396   -2.014132
     67          1           0        7.725688   -3.114181   -0.241723
     68          1           0        7.043162   -0.162099    0.237777
     69          1           0        4.703849    1.385853    0.827874
     70          1           0        6.242643    1.323942    1.870848
     71          1           0        4.885192    0.358218    2.243482
     72          1           0        3.094449    6.307705   -1.269367
     73          1           0        3.975601    4.768706   -1.050399
     74          1           0       -0.610490    6.283866   -1.742495
     75          1           0        0.873419    7.303092   -1.282106
     76          1           0       -0.484710    6.970628    0.109468
     77          1           0        2.929432    6.344625    1.450081
     78          1           0        4.640674    6.417703    0.907579
     79          1           0        3.996246    4.806007    1.420583
     80          1           0       -2.903170   -4.797641   -2.098818
     81          1           0       -8.114491   -2.022574   -1.522157
 ---------------------------------------------------------------------

 SCF Done:  E(RB3LYP) =  -1948.97652496     A.U. after   16 cycles

 Excitation energies and oscillator strengths:

 Excited State   1:      Singlet-A      1.9440 eV  637.78 nm  f=0.3475  <S**2>=0.000
     156 ->157         0.70793
     156 <-157        -0.10980
 This state for optimization and/or second-order correction.
 Total Energy, E(TD-HF/TD-DFT) =  -1948.90508472
 Copying the excited state density for this state as the 1-particle RhoCI density.

 The electronic state is 1-A.
 Alpha  occ. eigenvalues --  -19.21081 -19.19054 -19.13176 -19.11915 -19.11285
 Alpha  occ. eigenvalues --  -19.10545 -14.38584 -14.36289 -14.34612 -14.28139
 Alpha  occ. eigenvalues --  -10.33103 -10.30918 -10.28446 -10.26147 -10.24716
 Alpha  occ. eigenvalues --  -10.24096 -10.23460 -10.22710 -10.22171 -10.22113
 Alpha  occ. eigenvalues --  -10.21681 -10.21233 -10.21063 -10.21011 -10.20983
 Alpha  occ. eigenvalues --  -10.20916 -10.20451 -10.20300 -10.20261 -10.20089
 Alpha  occ. eigenvalues --  -10.20071 -10.19465 -10.19395 -10.19238 -10.19205
 Alpha  occ. eigenvalues --  -10.19034 -10.18985 -10.18856 -10.18672 -10.18499
 Alpha  occ. eigenvalues --  -10.18160 -10.17812 -10.17803  -1.12783  -1.11106
 Alpha  occ. eigenvalues --   -1.07762  -1.01487  -1.00740  -1.00466  -0.99643
 Alpha  occ. eigenvalues --   -0.99571  -0.97127  -0.94191  -0.84078  -0.83806
 Alpha  occ. eigenvalues --   -0.81633  -0.81239  -0.80993  -0.79623  -0.78765
 Alpha  occ. eigenvalues --   -0.78323  -0.76100  -0.75129  -0.74137  -0.72687
 Alpha  occ. eigenvalues --   -0.71973  -0.70178  -0.69637  -0.69126  -0.68294
 Alpha  occ. eigenvalues --   -0.67595  -0.65787  -0.64497  -0.62555  -0.61906
 Alpha  occ. eigenvalues --   -0.61490  -0.61213  -0.59123  -0.58329  -0.57578
 Alpha  occ. eigenvalues --   -0.56642  -0.56020  -0.54905  -0.53706  -0.52928
 Alpha  occ. eigenvalues --   -0.52829  -0.52013  -0.51579  -0.51119  -0.50462
 Alpha  occ. eigenvalues --   -0.50323  -0.49661  -0.49509  -0.48743  -0.47858
 Alpha  occ. eigenvalues --   -0.47655  -0.47314  -0.46813  -0.46165  -0.45756
 Alpha  occ. eigenvalues --   -0.45208  -0.44905  -0.44518  -0.44316  -0.43956
 Alpha  occ. eigenvalues --   -0.43511  -0.43405  -0.43172  -0.42739  -0.42557
 Alpha  occ. eigenvalues --   -0.42140  -0.41869  -0.41550  -0.41260  -0.41107
 Alpha  occ. eigenvalues --   -0.40951  -0.40801  -0.40573  -0.40297  -0.39678
 Alpha  occ. eigenvalues --   -0.38979  -0.38690  -0.38498  -0.38283  -0.38106
 Alpha  occ. eigenvalues --   -0.37475  -0.37325  -0.37008  -0.36648  -0.36516
 Alpha  occ. eigenvalues --   -0.36076  -0.35585  -0.35399  -0.35059  -0.34697
 Alpha  occ. eigenvalues --   -0.34551  -0.34134  -0.33496  -0.33169  -0.32761
 Alpha  occ. eigenvalues --   -0.32398  -0.31861  -0.31700  -0.29955  -0.28613
 Alpha  occ. eigenvalues --   -0.28460  -0.27797  -0.27090  -0.26392  -0.26048
 Alpha  occ. eigenvalues --   -0.25313  -0.24475  -0.24114  -0.23498  -0.21493
 Alpha  occ. eigenvalues --   -0.17358
 Alpha virt. eigenvalues --   -0.09637  -0.05168  -0.03549  -0.01781   0.00111
 Alpha virt. eigenvalues --    0.00427   0.01927   0.02993   0.03166   0.03487
 Alpha virt. eigenvalues --    0.03976   0.04174   0.05002   0.05828   0.06273

 Mulliken charges:
               1
     1  O   -0.124094
     2  O   -0.142217
     3  O   -0.192053
     4  O   -0.284705
     5  O   -0.236654
     6  O   -0.207936
     7  N    0.023567
     8  N    0.083317
     9  N   -0.046024
    10  N   -0.239669
    11  C   -0.062037
    12  C   -0.057850
    13  C   -0.232301
    14  C   -0.005220
    15  C   -0.168936
    16  C    0.128119
    17  C    0.141325
    18  C   -0.143902
    19  C    0.066751
    20  C   -0.087343
    21  C    0.088664
    22  C    0.019610
    23  C   -0.012205
    24  C    0.288882
    25  C   -0.069939
    26  C    0.158669
    27  C    0.049398
    28  C    0.064166
    29  C    0.010852
    30  C    0.154331
    31  C   -0.143764
    32  C   -0.036361
    33  C   -0.171128
    34  C    0.048957
    35  C   -0.076996
    36  C   -0.160105
    37  C    0.078928
    38  C    0.007409
    39  C    0.112703
    40  C    0.058930
    41  C    0.136756
    42  C    0.055413
    43  C   -0.072718
    44  H    0.149235
    45  H   -0.192425
    46  H   -0.003374
    47  H    0.032143
    48  H    0.054792
    49  H   -0.026163
    50  H   -0.061466
    51  H    0.006314
    52  H   -0.009180
    53  H    0.038539
    54  H   -0.033062
    55  H    0.014581
    56  H    0.089274
    57  H    0.020943
    58  H    0.073510
    59  H    0.027740
    60  H    0.058747
    61  H    0.043665
    62  H    0.029573
    63  H   -0.019116
    64  H   -0.005266
    65  H    0.031067
    66  H    0.043698
    67  H    0.040605
    68  H    0.040955
    69  H    0.078264
    70  H    0.010213
    71  H    0.026840
    72  H    0.000890
    73  H    0.025925
    74  H    0.032954
    75  H    0.029511
    76  H    0.061805
    77  H    0.007112
    78  H    0.015350
    79  H    0.048600
    80  H    0.206157
    81  H    0.208462
 Sum of Mulliken charges =  -0.00000

 Dipole moment (field-independent basis, Debye):
    X=             -2.6958    Y=             -0.4608    Z=             -1.1325  Tot=              2.9601
 Quadrupole moment (field-independent basis, Debye-Ang):
   XX=           -256.1214   YY=           -237.3672   ZZ=           -251.5355
   XY=             16.8856   XZ=             14.0286   YZ=             -5.6815

 Normal termination of Gaussian 16 at Mon Jul  1 07:26:14 2019.
