 Gaussian 16, Revision A.03,
 Gaussian 16:  ES64L-G16RevA.03 25-Dec-2016

 --------------------------
 # td=(NStates=1) B3LYP/SVP
 --------------------------

 --
 TD
 --
 Symbolic Z-matrix:
 Charge =  0 Multiplicity = 1

                         Standard orientation:
 ---------------------------------------------------------------------
 Center     Atomic      Atomic             Coordinates (Angstroms)
 Number     Number       Type             X           Y           Z
 ---------------------------------------------------------------------
      1          8           0        4.795430   -4.598775   -1.879698
      2          8           0       -2.509309   -4.839229   -1.365231
      3          8           0       -7.016461   -1.914670   -1.782327
      4          8           0       -3.456350   -3.208319   -0.163100
      5          8           0       -7.697073   -0.557282    0.011056
      6          8           0        2.904006    2.755532    0.116719
      7          7           0        0.333923   -0.574476    0.494642
      8          7           0       -1.615338    1.630518    0.393164
      9          7           0        3.574594   -3.130831   -0.519636
     10          7           0        0.609246    3.004162    0.049423
     11          6           0       -0.538005   -2.543165    1.339213
     12          6           0       -0.878150   -1.165857    0.959935
     13          6           0        0.835370   -2.687224    1.340120
     14          6           0        1.393789   -1.452323    0.852389
     15          6           0       -3.866677    1.195064    0.427558
     16          6           0       -2.463995    0.661310    0.567402
     17          6           0       -2.146628   -0.679870    0.845828
     18          6           0       -3.710981    2.494517   -0.026893
     19          6           0       -1.499914   -3.561021    1.939209
     20          6           0        5.760145   -2.376875   -1.320247
     21          6           0        3.727786   -1.878745   -0.071395
     22          6           0       -2.242337    2.857743    0.064318
     23          6           0        5.154903   -1.418096   -0.365944
     24          6           0       -5.127711    0.433339    0.510517
     25          6           0        2.744734   -1.105648    0.436642
     26          6           0        1.685543   -3.775716    1.792247
     27          6           0        4.682011   -3.572889   -1.257412
     28          6           0       -1.878836   -4.674894    0.897539
     29          6           0       -5.415090   -0.358086   -0.818198
     30          6           0       -4.766044    3.569552   -0.363490
     31          6           0       -1.559341    3.994003   -0.211852
     32          6           0        7.248542   -2.936710   -0.966762
     33          6           0        5.832396   -0.341257    0.103171
     34          6           0       -0.115575    4.127668   -0.210667
     35          6           0        0.783477    5.269711   -0.429088
     36          6           0        1.981656    4.905546   -0.312564
     37          6           0       -2.746643   -4.228127   -0.199751
     38          6           0        5.262827    0.714220    1.069441
     39          6           0       -6.837152   -0.982530   -0.828368
     40          6           0        3.256792    5.721042   -0.497257
     41          6           0        1.899368    3.439831   -0.023652
     42          6           0        0.179620    6.641810   -0.770508
     43          6           0        3.766864    6.141068    0.886938
     44          1           0        0.337163    0.199065   -0.102571
     45          1           0       -2.974995   -1.275206    1.130958
     46          1           0       -2.395866   -3.415350    2.309706
     47          1           0       -0.926785   -4.123954    2.691897
     48          1           0        5.445861   -2.308899   -2.368807
     49          1           0       -5.097836   -0.314103    1.457222
     50          1           0       -5.857649    1.127142    0.726319
     51          1           0        2.872418   -0.118804    0.606031
     52          1           0       -0.637402    1.672220    0.458701
     53          1           0        1.550419   -4.519509    0.989951
     54          1           0        2.735294   -3.574582    1.735644
     55          1           0        1.370447   -4.053648    2.864361
     56          1           0        2.663621   -3.620552   -0.360440
     57          1           0       -0.947507   -5.164263    0.536518
     58          1           0       -2.458752   -5.623789    1.340721
     59          1           0       -4.869864   -1.537601   -0.833465
     60          1           0       -5.266112    0.082055   -1.789664
     61          1           0       -4.520235    4.532203   -0.011884
     62          1           0       -5.801240    3.125381    0.142173
     63          1           0       -5.022758    3.542959   -1.547231
     64          1           0       -2.182109    4.895946   -0.344878
     65          1           0        7.800217   -2.125450   -1.439013
     66          1           0        7.383032   -3.936005   -1.701119
     67          1           0        7.342345   -3.284088    0.185872
     68          1           0        6.907508   -0.282569   -0.212511
     69          1           0        4.911608    1.615032    0.677660
     70          1           0        6.152964    1.150821    1.578803
     71          1           0        4.578650    0.234100    1.734496
     72          1           0        2.915327    6.624857   -0.914397
     73          1           0        4.052675    5.193519   -1.133131
     74          1           0       -0.157222    6.426738   -1.768127
     75          1           0        1.102194    7.184943   -1.113396
     76          1           0       -0.501168    7.172902   -0.195393
     77          1           0        3.212384    6.801035    1.555015
     78          1           0        4.633681    6.708853    0.767831
     79          1           0        3.931345    5.165826    1.544498
     80          1           0       -3.208970   -4.253639   -2.092386
     81          1           0       -7.968074   -2.091589   -1.678980
 ---------------------------------------------------------------------

 SCF Done:  E(RB3LYP) =  -1949.08815004     A.U. after   17 cycles

 Excitation energies and oscillator strengths:

 Excited State   1:      Singlet-A      1.8610 eV  666.21 nm  f=0.4566  <S**2>=0.000
     156 ->157         0.71587
     156 <-157        -0.15612
 This state for optimization and/or second-order correction.
 Total Energy, E(TD-HF/TD-DFT) =  -1949.01975864
 Copying the excited state density for this state as the 1-particle RhoCI density.

 The electronic state is 1-A.
 Alpha  occ. eigenvalues --  -19.20572 -19.20264 -19.13844 -19.12357 -19.11604
 Alpha  occ. eigenvalues --  -19.09226 -14.37978 -14.37533 -14.35688 -14.28353
 Alpha  occ. eigenvalues --  -10.33300 -10.32571 -10.29548 -10.25125 -10.24220
 Alpha  occ. eigenvalues --  -10.23724 -10.23670 -10.22860 -10.22783 -10.22758
 Alpha  occ. eigenvalues --  -10.22712 -10.21924 -10.21772 -10.21602 -10.20976
 Alpha  occ. eigenvalues --  -10.20686 -10.20633 -10.20618 -10.20532 -10.20348
 Alpha  occ. eigenvalues --  -10.20272 -10.19939 -10.19872 -10.19598 -10.19393
 Alpha  occ. eigenvalues --  -10.19115 -10.18811 -10.18556 -10.18485 -10.17577
 Alpha  occ. eigenvalues --  -10.17548 -10.17052 -10.16737  -1.10173  -1.09697
 Alpha  occ. eigenvalues --   -1.04190  -1.00600  -0.99734  -0.98471  -0.98430
 Alpha  occ. eigenvalues --   -0.96886  -0.95949  -0.92077  -0.83030  -0.81575
 Alpha  occ. eigenvalues --   -0.81249  -0.81092  -0.80500  -0.79249  -0.77916
 Alpha  occ. eigenvalues --   -0.76183  -0.75592  -0.74850  -0.73718  -0.72712
 Alpha  occ. eigenvalues --   -0.70781  -0.69703  -0.69323  -0.68553  -0.67877
 Alpha  occ. eigenvalues --   -0.67107  -0.65457  -0.64592  -0.62534  -0.61311
 Alpha  occ. eigenvalues --   -0.59932  -0.59887  -0.58651  -0.58477  -0.57195
 Alpha  occ. eigenvalues --   -0.55936  -0.55366  -0.54601  -0.53528  -0.53060
 Alpha  occ. eigenvalues --   -0.52215  -0.51779  -0.51297  -0.50013  -0.49316
 Alpha  occ. eigenvalues --   -0.49261  -0.49011  -0.48597  -0.48270  -0.47304
 Alpha  occ. eigenvalues --   -0.47048  -0.46675  -0.46004  -0.45807  -0.45684
 Alpha  occ. eigenvalues --   -0.45353  -0.45182  -0.44315  -0.43942  -0.43624
 Alpha  occ. eigenvalues --   -0.43301  -0.42991  -0.42852  -0.42700  -0.42075
 Alpha  occ. eigenvalues --   -0.42004  -0.41538  -0.41397  -0.41193  -0.40895
 Alpha  occ. eigenvalues --   -0.40830  -0.40344  -0.40222  -0.39958  -0.39839
 Alpha  occ. eigenvalues --   -0.38846  -0.38413  -0.38055  -0.37666  -0.37610
 Alpha  occ. eigenvalues --   -0.37429  -0.37239  -0.37178  -0.37010  -0.36934
 Alpha  occ. eigenvalues --   -0.36361  -0.35923  -0.35840  -0.35373  -0.34818
 Alpha  occ. eigenvalues --   -0.34249  -0.33421  -0.33247  -0.33099  -0.32873
 Alpha  occ. eigenvalues --   -0.32697  -0.32250  -0.31890  -0.29623  -0.29258
 Alpha  occ. eigenvalues --   -0.27566  -0.26988  -0.26948  -0.26249  -0.25706
 Alpha  occ. eigenvalues --   -0.25213  -0.24581  -0.23657  -0.23371  -0.21728
 Alpha  occ. eigenvalues --   -0.16633
 Alpha virt. eigenvalues --   -0.09829  -0.04943  -0.02846  -0.02285  -0.00965
 Alpha virt. eigenvalues --   -0.00321   0.00543   0.01974   0.02541   0.04085
 Alpha virt. eigenvalues --    0.04367   0.04760   0.05122   0.05844   0.06005

 Mulliken charges:
               1
     1  O   -0.196870
     2  O   -0.248578
     3  O   -0.163172
     4  O   -0.265579
     5  O   -0.294162
     6  O   -0.208778
     7  N   -0.119278
     8  N   -0.000723
     9  N   -0.090602
    10  N   -0.272141
    11  C   -0.102059
    12  C    0.112670
    13  C   -0.189525
    14  C    0.065675
    15  C   -0.109266
    16  C    0.022532
    17  C   -0.034136
    18  C   -0.114752
    19  C    0.226356
    20  C   -0.095737
    21  C    0.091721
    22  C    0.089935
    23  C    0.015744
    24  C    0.159628
    25  C   -0.065253
    26  C    0.095266
    27  C    0.098602
    28  C   -0.078122
    29  C   -0.085780
    30  C    0.023650
    31  C   -0.103472
    32  C   -0.017539
    33  C   -0.158465
    34  C    0.049430
    35  C   -0.099050
    36  C   -0.206449
    37  C    0.165769
    38  C    0.113012
    39  C    0.159533
    40  C    0.144203
    41  C    0.106250
    42  C    0.190711
    43  C   -0.018666
    44  H    0.119505
    45  H   -0.025347
    46  H   -0.034017
    47  H   -0.009722
    48  H    0.048348
    49  H    0.035892
    50  H   -0.011234
    51  H   -0.039391
    52  H    0.088477
    53  H    0.024158
    54  H    0.016934
    55  H    0.054646
    56  H    0.134947
    57  H    0.032970
    58  H    0.057617
    59  H    0.093352
    60  H    0.039680
    61  H    0.031044
    62  H    0.039563
    63  H    0.046806
    64  H   -0.034196
    65  H    0.043818
    66  H    0.056572
    67  H    0.065705
    68  H   -0.001249
    69  H    0.039623
    70  H   -0.012251
    71  H    0.025994
    72  H   -0.031856
    73  H    0.035236
    74  H   -0.004417
    75  H   -0.020379
    76  H    0.030246
    77  H    0.004062
    78  H   -0.009695
    79  H    0.036604
    80  H    0.258935
    81  H    0.180485
 Sum of Mulliken charges =  -0.00000

 Dipole moment (field-independent basis, Debye):
    X=             -2.4702    Y=             -0.8229    Z=             -0.6347  Tot=              2.6799
 Quadrupole moment (field-independent basis, Debye-Ang):
   XX=           -258.1848   YY=           -234.6508   ZZ=           -251.4063
   XY=             17.7402   XZ=             17.4627   YZ=            -14.3292

 Normal termination of Gaussian 16 at Fri Jun 28 13:57:29 2019.
