 Gaussian 16, Revision A.03,
 Gaussian 16:  ES64L-G16RevA.03 25-Dec-2016

 --------------------------
 # td=(NStates=1) B3LYP/SVP
 --------------------------

 --
 TD
 --
 Symbolic Z-matrix:
 Charge =  0 Multiplicity = 1

                         Standard orientation:
 ---------------------------------------------------------------------
 Center     Atomic      Atomic             Coordinates (Angstroms)
 Number     Number       Type             X           Y           Z
 ---------------------------------------------------------------------
      1          8           0        4.471774   -4.704706   -1.968045
      2          8           0       -2.885278   -4.956363   -1.045877
      3          8           0       -7.107636   -1.678626   -1.868812
      4          8           0       -3.868214   -3.244458    0.085757
      5          8           0       -7.510648   -0.678068    0.039656
      6          8           0        2.940562    2.528267    0.084196
      7          7           0        0.281859   -0.521718    0.498729
      8          7           0       -1.494344    1.729289    0.282378
      9          7           0        3.529201   -3.044575   -0.782502
     10          7           0        0.630951    3.074797    0.210795
     11          6           0       -0.593558   -2.394879    1.256476
     12          6           0       -0.950914   -1.150015    0.847008
     13          6           0        0.806514   -2.626466    1.186569
     14          6           0        1.304907   -1.461185    0.640688
     15          6           0       -3.762776    1.408030    0.299454
     16          6           0       -2.459650    0.772433    0.531712
     17          6           0       -2.223434   -0.555930    0.841164
     18          6           0       -3.550551    2.676256   -0.014289
     19          6           0       -1.578389   -3.363400    2.031794
     20          6           0        5.740829   -2.621728   -1.333354
     21          6           0        3.629423   -1.769643   -0.199289
     22          6           0       -2.105884    2.950569    0.021914
     23          6           0        5.154063   -1.491730   -0.342872
     24          6           0       -5.064606    0.562875    0.338382
     25          6           0        2.695391   -1.080600    0.394795
     26          6           0        1.572967   -3.945640    1.613663
     27          6           0        4.559265   -3.596004   -1.403438
     28          6           0       -2.016974   -4.457926    1.146285
     29          6           0       -5.414200   -0.046848   -0.947577
     30          6           0       -4.591255    3.740332   -0.394601
     31          6           0       -1.465233    4.107204   -0.056022
     32          6           0        7.063193   -3.240067   -1.014154
     33          6           0        5.782535   -0.461696    0.228653
     34          6           0       -0.036197    4.176211   -0.021168
     35          6           0        0.833958    5.235950   -0.376940
     36          6           0        2.171436    4.839732   -0.284079
     37          6           0       -3.055594   -4.058098    0.015836
     38          6           0        5.333088    0.493066    1.212354
     39          6           0       -6.752198   -0.821544   -0.908205
     40          6           0        3.450153    5.360797   -0.458663
     41          6           0        2.115982    3.362611    0.074281
     42          6           0        0.390728    6.693042   -0.774198
     43          6           0        4.295554    5.647591    0.780001
     44          1           0        0.392939    0.152001   -0.444564
     45          1           0       -3.066038   -1.086238    1.170655
     46          1           0       -2.481771   -3.043169    2.803454
     47          1           0       -0.788809   -3.838148    2.615720
     48          1           0        5.969872   -2.217632   -2.319551
     49          1           0       -4.935419   -0.283913    1.156318
     50          1           0       -5.920443    1.221536    0.662417
     51          1           0        2.930695    0.021551    0.520228
     52          1           0       -0.484474    1.825342    0.669632
     53          1           0        1.519674   -4.870521    0.846167
     54          1           0        2.733130   -3.601630    1.746739
     55          1           0        1.314038   -4.658979    2.644484
     56          1           0        2.612873   -3.553194   -0.617708
     57          1           0       -1.237111   -5.049786    0.637301
     58          1           0       -2.683127   -5.258799    1.921036
     59          1           0       -4.629251   -0.714575   -1.360932
     60          1           0       -5.605032    0.566481   -1.796803
     61          1           0       -4.413859    4.597983    0.117187
     62          1           0       -5.531072    3.252345   -0.107936
     63          1           0       -4.764796    3.826011   -1.529418
     64          1           0       -1.885300    5.036126   -0.468657
     65          1           0        7.849172   -2.647781   -1.022257
     66          1           0        6.936746   -4.049746   -1.717892
     67          1           0        6.968027   -3.837667   -0.000517
     68          1           0        6.861448   -0.438556   -0.022658
     69          1           0        5.070339    1.489361    0.848882
     70          1           0        6.068201    0.592970    2.162303
     71          1           0        4.579622    0.053299    1.863121
     72          1           0        3.498219    6.304467   -1.082619
     73          1           0        4.281781    4.637212   -1.166137
     74          1           0       -0.144915    6.565290   -1.753632
     75          1           0        1.195993    7.544216   -0.756504
     76          1           0       -0.535700    6.889847   -0.135788
     77          1           0        3.711785    6.424934    1.471857
     78          1           0        5.269926    6.005332    0.789721
     79          1           0        4.094653    4.655009    1.434275
     80          1           0       -3.434804   -4.587178   -1.927280
     81          1           0       -7.946785   -2.016533   -1.524540
 ---------------------------------------------------------------------

 SCF Done:  E(RB3LYP) =  -1949.06456020     A.U. after   16 cycles

 Excitation energies and oscillator strengths:

 Excited State   1:      Singlet-A      1.8631 eV  665.49 nm  f=0.2879  <S**2>=0.000
     156 ->157         0.70444
     156 <-157        -0.10652
 This state for optimization and/or second-order correction.
 Total Energy, E(TD-HF/TD-DFT) =  -1948.99609421
 Copying the excited state density for this state as the 1-particle RhoCI density.

 The electronic state is 1-A.
 Alpha  occ. eigenvalues --  -19.18697 -19.18186 -19.14486 -19.13655 -19.11876
 Alpha  occ. eigenvalues --  -19.09844 -14.37656 -14.37051 -14.35140 -14.28969
 Alpha  occ. eigenvalues --  -10.32349 -10.31969 -10.28617 -10.28229 -10.24209
 Alpha  occ. eigenvalues --  -10.23798 -10.23398 -10.23380 -10.22930 -10.22796
 Alpha  occ. eigenvalues --  -10.22320 -10.22155 -10.22002 -10.21928 -10.21422
 Alpha  occ. eigenvalues --  -10.21285 -10.21120 -10.21031 -10.20931 -10.20448
 Alpha  occ. eigenvalues --  -10.20393 -10.20276 -10.20115 -10.19956 -10.19929
 Alpha  occ. eigenvalues --  -10.19736 -10.19716 -10.19656 -10.19306 -10.18664
 Alpha  occ. eigenvalues --  -10.18663 -10.18416 -10.17978  -1.10836  -1.10170
 Alpha  occ. eigenvalues --   -1.06020  -1.02150  -1.00520  -0.99659  -0.97418
 Alpha  occ. eigenvalues --   -0.96438  -0.94202  -0.92347  -0.82485  -0.81612
 Alpha  occ. eigenvalues --   -0.81194  -0.81007  -0.80589  -0.79387  -0.78022
 Alpha  occ. eigenvalues --   -0.77235  -0.76205  -0.75749  -0.75234  -0.72124
 Alpha  occ. eigenvalues --   -0.70563  -0.69345  -0.68856  -0.67363  -0.67294
 Alpha  occ. eigenvalues --   -0.65747  -0.65567  -0.64534  -0.62954  -0.61778
 Alpha  occ. eigenvalues --   -0.59816  -0.59431  -0.57741  -0.57256  -0.56306
 Alpha  occ. eigenvalues --   -0.55824  -0.55485  -0.53475  -0.53439  -0.52485
 Alpha  occ. eigenvalues --   -0.52247  -0.51317  -0.50202  -0.50040  -0.49445
 Alpha  occ. eigenvalues --   -0.49266  -0.48714  -0.48382  -0.48107  -0.47305
 Alpha  occ. eigenvalues --   -0.47286  -0.47022  -0.46544  -0.46389  -0.45950
 Alpha  occ. eigenvalues --   -0.45280  -0.44178  -0.44047  -0.43870  -0.43600
 Alpha  occ. eigenvalues --   -0.43327  -0.43069  -0.42795  -0.42439  -0.42258
 Alpha  occ. eigenvalues --   -0.42127  -0.41989  -0.41632  -0.41553  -0.41359
 Alpha  occ. eigenvalues --   -0.41152  -0.40775  -0.40261  -0.40228  -0.40040
 Alpha  occ. eigenvalues --   -0.39931  -0.39670  -0.39612  -0.39053  -0.38277
 Alpha  occ. eigenvalues --   -0.38232  -0.38019  -0.37987  -0.37214  -0.35719
 Alpha  occ. eigenvalues --   -0.35681  -0.35351  -0.35038  -0.34806  -0.34648
 Alpha  occ. eigenvalues --   -0.34458  -0.34198  -0.33479  -0.32648  -0.32508
 Alpha  occ. eigenvalues --   -0.31996  -0.30869  -0.30699  -0.30359  -0.28891
 Alpha  occ. eigenvalues --   -0.28742  -0.27784  -0.26608  -0.26418  -0.25949
 Alpha  occ. eigenvalues --   -0.25800  -0.25239  -0.24079  -0.23558  -0.22257
 Alpha  occ. eigenvalues --   -0.18111
 Alpha virt. eigenvalues --   -0.10648  -0.06217  -0.03207  -0.00578   0.00317
 Alpha virt. eigenvalues --    0.00725   0.01246   0.01704   0.02904   0.03024
 Alpha virt. eigenvalues --    0.03683   0.04206   0.04553   0.05055   0.05549

 Mulliken charges:
               1
     1  O   -0.257645
     2  O   -0.294825
     3  O   -0.159071
     4  O   -0.149153
     5  O   -0.263398
     6  O   -0.123608
     7  N   -0.175911
     8  N   -0.136418
     9  N   -0.086435
    10  N   -0.353537
    11  C   -0.140861
    12  C    0.109018
    13  C   -0.052593
    14  C    0.019472
    15  C   -0.049643
    16  C    0.055035
    17  C   -0.042238
    18  C   -0.174286
    19  C    0.128805
    20  C   -0.067074
    21  C    0.132295
    22  C    0.155837
    23  C   -0.006658
    24  C    0.068112
    25  C   -0.159094
    26  C   -0.127100
    27  C    0.112017
    28  C   -0.083270
    29  C    0.063488
    30  C    0.157601
    31  C   -0.140155
    32  C    0.086177
    33  C   -0.153120
    34  C    0.065754
    35  C   -0.096374
    36  C   -0.117743
    37  C    0.139909
    38  C    0.054785
    39  C    0.112440
    40  C   -0.033944
    41  C    0.170247
    42  C    0.063192
    43  C   -0.021639
    44  H    0.203049
    45  H   -0.040635
    46  H    0.058186
    47  H   -0.005834
    48  H    0.035245
    49  H    0.048017
    50  H    0.030020
    51  H    0.052068
    52  H    0.185667
    53  H    0.067831
    54  H    0.069590
    55  H    0.063729
    56  H    0.143532
    57  H    0.035418
    58  H    0.054564
    59  H    0.027070
    60  H    0.011272
    61  H    0.009933
    62  H   -0.007855
    63  H    0.034290
    64  H   -0.027551
    65  H   -0.004718
    66  H    0.027300
    67  H    0.008638
    68  H   -0.014012
    69  H    0.065238
    70  H    0.010651
    71  H    0.016555
    72  H    0.000040
    73  H    0.039264
    74  H    0.026560
    75  H    0.063046
    76  H    0.026397
    77  H    0.004073
    78  H    0.018456
    79  H    0.030198
    80  H    0.229135
    81  H    0.177178
 Sum of Mulliken charges =  -0.00000

 Dipole moment (field-independent basis, Debye):
    X=             -1.7107    Y=              3.2977    Z=             -0.6369  Tot=              3.7692
 Quadrupole moment (field-independent basis, Debye-Ang):
   XX=           -255.0732   YY=           -245.1938   ZZ=           -254.2287
   XY=             16.4880   XZ=             18.3213   YZ=            -15.8219

 Normal termination of Gaussian 16 at Fri Jul  5 18:17:22 2019.
