 Gaussian 16, Revision A.03,
 Gaussian 16:  ES64L-G16RevA.03 25-Dec-2016

 --------------------------
 # td=(NStates=1) B3LYP/SVP
 --------------------------

 --
 TD
 --
 Symbolic Z-matrix:
 Charge =  0 Multiplicity = 1

                         Standard orientation:
 ---------------------------------------------------------------------
 Center     Atomic      Atomic             Coordinates (Angstroms)
 Number     Number       Type             X           Y           Z
 ---------------------------------------------------------------------
      1          8           0       -4.686514   -4.646611    1.738135
      2          8           0        2.758213   -4.905532    1.484828
      3          8           0        6.948118   -1.642842    1.848523
      4          8           0        3.670132   -3.301745    0.109216
      5          8           0        7.558446   -0.791752   -0.231648
      6          8           0       -2.901211    2.644771   -0.255847
      7          7           0       -0.236825   -0.619796   -0.519519
      8          7           0        1.593137    1.713002   -0.343699
      9          7           0       -3.534039   -2.908814    0.657032
     10          7           0       -0.670076    3.011314   -0.142453
     11          6           0        0.478563   -2.561230   -1.304239
     12          6           0        0.864717   -1.303966   -0.858970
     13          6           0       -0.899060   -2.633509   -1.286533
     14          6           0       -1.438723   -1.379721   -0.709236
     15          6           0        3.850250    1.277684   -0.504021
     16          6           0        2.569456    0.642980   -0.585922
     17          6           0        2.166136   -0.667160   -0.812907
     18          6           0        3.674010    2.640841   -0.073089
     19          6           0        1.404027   -3.702120   -1.788067
     20          6           0       -5.735470   -2.416074    1.314570
     21          6           0       -3.712816   -1.653601    0.178758
     22          6           0        2.272200    2.810440   -0.009289
     23          6           0       -5.212284   -1.339849    0.427546
     24          6           0        5.127603    0.528778   -0.611260
     25          6           0       -2.726289   -0.968075   -0.526775
     26          6           0       -1.808742   -3.765111   -1.781082
     27          6           0       -4.651241   -3.481938    1.305876
     28          6           0        1.755465   -4.743033   -0.717301
     29          6           0        5.424199   -0.329994    0.775465
     30          6           0        4.793241    3.581464    0.155764
     31          6           0        1.508318    3.979177    0.207711
     32          6           0       -7.074015   -3.055526    0.838077
     33          6           0       -5.949741   -0.350503   -0.131467
     34          6           0        0.089247    4.007326    0.237164
     35          6           0       -0.688894    5.193623    0.606597
     36          6           0       -1.966306    4.858124    0.368555
     37          6           0        2.796703   -4.217048    0.297016
     38          6           0       -5.405949    0.629623   -1.145707
     39          6           0        6.711209   -1.038354    0.646393
     40          6           0       -3.264777    5.565499    0.556620
     41          6           0       -1.892487    3.380672   -0.057651
     42          6           0       -0.031992    6.514518    1.007104
     43          6           0       -3.844987    6.125649   -0.874131
     44          1           0       -0.215315    0.247031   -0.127392
     45          1           0        3.141719   -1.314211   -0.983247
     46          1           0        2.324047   -3.209939   -2.204564
     47          1           0        0.758192   -4.262275   -2.620844
     48          1           0       -5.740243   -1.685383    2.229479
     49          1           0        5.297171   -0.192083   -1.547835
     50          1           0        6.033673    1.205661   -0.615543
     51          1           0       -2.930892    0.136208   -0.606713
     52          1           0        0.413939    1.801743   -0.575219
     53          1           0       -1.950625   -4.651086   -1.268716
     54          1           0       -2.773482   -3.299829   -1.934649
     55          1           0       -1.375055   -3.903585   -2.937402
     56          1           0       -2.739274   -3.375639    0.707917
     57          1           0        0.914533   -5.040109   -0.225108
     58          1           0        2.372390   -5.507090   -1.303571
     59          1           0        4.696340   -1.063042    0.957941
     60          1           0        5.348502    0.728475    1.472387
     61          1           0        4.500224    4.572054   -0.345847
     62          1           0        5.775964    3.266518   -0.310815
     63          1           0        4.804556    3.823660    1.090749
     64          1           0        2.026216    4.894178    0.557838
     65          1           0       -8.022038   -2.277016    0.817102
     66          1           0       -7.305118   -3.992429    1.676831
     67          1           0       -7.083342   -3.334272   -0.118850
     68          1           0       -6.973578   -0.274880    0.161734
     69          1           0       -4.754572    1.375081   -0.802103
     70          1           0       -6.306940    1.138521   -1.638535
     71          1           0       -4.842874    0.315294   -2.034293
     72          1           0       -3.251766    6.378800    1.391931
     73          1           0       -3.980349    4.930137    1.005334
     74          1           0        0.546517    6.472739    1.987447
     75          1           0       -0.743438    7.231693    1.220242
     76          1           0        0.485162    6.899459    0.051459
     77          1           0       -3.135411    6.920353   -1.232500
     78          1           0       -4.697397    6.652130   -0.589355
     79          1           0       -4.097774    5.409238   -1.424049
     80          1           0        3.652753   -4.946498    2.031416
     81          1           0        7.895308   -2.067376    2.108747
 ---------------------------------------------------------------------

 SCF Done:  E(RB3LYP) =  -1949.06683803     A.U. after   19 cycles

 Excitation energies and oscillator strengths:

 Excited State   1:      Singlet-A      1.9163 eV  646.99 nm  f=0.4237  <S**2>=0.000
     156 ->157         0.71061
     156 <-157        -0.11516
 This state for optimization and/or second-order correction.
 Total Energy, E(TD-HF/TD-DFT) =  -1948.99641402
 Copying the excited state density for this state as the 1-particle RhoCI density.

 The electronic state is 1-A.
 Alpha  occ. eigenvalues --  -19.19838 -19.18606 -19.14291 -19.12706 -19.12355
 Alpha  occ. eigenvalues --  -19.08265 -14.37433 -14.37296 -14.34810 -14.28505
 Alpha  occ. eigenvalues --  -10.34597 -10.32453 -10.30566 -10.25421 -10.24867
 Alpha  occ. eigenvalues --  -10.23689 -10.23211 -10.23085 -10.23027 -10.22623
 Alpha  occ. eigenvalues --  -10.22115 -10.22033 -10.22031 -10.21890 -10.21370
 Alpha  occ. eigenvalues --  -10.21108 -10.20977 -10.20795 -10.20758 -10.20356
 Alpha  occ. eigenvalues --  -10.20159 -10.19915 -10.19783 -10.19400 -10.19295
 Alpha  occ. eigenvalues --  -10.19260 -10.18759 -10.18672 -10.18540 -10.17976
 Alpha  occ. eigenvalues --  -10.17966 -10.17101 -10.16341  -1.07959  -1.06883
 Alpha  occ. eigenvalues --   -1.03444  -0.99601  -0.98885  -0.98838  -0.98497
 Alpha  occ. eigenvalues --   -0.96698  -0.95792  -0.92728  -0.82712  -0.82300
 Alpha  occ. eigenvalues --   -0.81291  -0.80834  -0.79051  -0.78882  -0.78069
 Alpha  occ. eigenvalues --   -0.76397  -0.75829  -0.74762  -0.73681  -0.72125
 Alpha  occ. eigenvalues --   -0.71491  -0.69843  -0.68864  -0.68288  -0.67902
 Alpha  occ. eigenvalues --   -0.67289  -0.65791  -0.65281  -0.63361  -0.62112
 Alpha  occ. eigenvalues --   -0.61301  -0.59195  -0.59038  -0.58349  -0.57567
 Alpha  occ. eigenvalues --   -0.55669  -0.54968  -0.54571  -0.53711  -0.52809
 Alpha  occ. eigenvalues --   -0.52236  -0.52134  -0.51467  -0.49813  -0.49302
 Alpha  occ. eigenvalues --   -0.48635  -0.48446  -0.48022  -0.47403  -0.47178
 Alpha  occ. eigenvalues --   -0.46624  -0.46589  -0.45971  -0.45462  -0.45071
 Alpha  occ. eigenvalues --   -0.44743  -0.44492  -0.44158  -0.44032  -0.43634
 Alpha  occ. eigenvalues --   -0.43571  -0.42898  -0.42419  -0.42137  -0.42002
 Alpha  occ. eigenvalues --   -0.41762  -0.41384  -0.41086  -0.40362  -0.40217
 Alpha  occ. eigenvalues --   -0.40109  -0.40031  -0.39672  -0.39410  -0.39080
 Alpha  occ. eigenvalues --   -0.38930  -0.38617  -0.38290  -0.38086  -0.37613
 Alpha  occ. eigenvalues --   -0.37497  -0.37044  -0.36527  -0.36376  -0.36227
 Alpha  occ. eigenvalues --   -0.35957  -0.35737  -0.35017  -0.34783  -0.34719
 Alpha  occ. eigenvalues --   -0.33968  -0.33922  -0.33757  -0.33420  -0.32974
 Alpha  occ. eigenvalues --   -0.32690  -0.31866  -0.31480  -0.29318  -0.29002
 Alpha  occ. eigenvalues --   -0.27859  -0.27239  -0.27065  -0.26264  -0.25699
 Alpha  occ. eigenvalues --   -0.25034  -0.24157  -0.23398  -0.23104  -0.21233
 Alpha  occ. eigenvalues --   -0.17701
 Alpha virt. eigenvalues --   -0.10141  -0.05486  -0.03979  -0.03377  -0.02756
 Alpha virt. eigenvalues --   -0.01632   0.01281   0.01684   0.02437   0.03432
 Alpha virt. eigenvalues --    0.04059   0.04694   0.05214   0.05377   0.06399

 Mulliken charges:
               1
     1  O   -0.224304
     2  O   -0.246710
     3  O   -0.268906
     4  O   -0.277437
     5  O   -0.251073
     6  O   -0.266871
     7  N   -0.017316
     8  N   -0.240625
     9  N   -0.038471
    10  N   -0.159703
    11  C   -0.113414
    12  C    0.056752
    13  C   -0.181527
    14  C    0.112853
    15  C   -0.023350
    16  C    0.051422
    17  C   -0.058266
    18  C   -0.159854
    19  C    0.054960
    20  C   -0.073866
    21  C    0.057749
    22  C    0.132118
    23  C   -0.060441
    24  C   -0.025670
    25  C   -0.140822
    26  C    0.065254
    27  C    0.157997
    28  C    0.110424
    29  C   -0.059971
    30  C    0.181947
    31  C   -0.162856
    32  C    0.016036
    33  C   -0.094854
    34  C    0.052920
    35  C   -0.120707
    36  C   -0.154429
    37  C    0.157417
    38  C    0.050315
    39  C    0.221810
    40  C    0.021050
    41  C    0.089529
    42  C    0.129029
    43  C    0.108130
    44  H    0.078047
    45  H    0.048725
    46  H    0.027170
    47  H    0.019673
    48  H    0.085581
    49  H    0.049437
    50  H    0.019155
    51  H    0.036486
    52  H    0.230778
    53  H    0.027665
    54  H    0.019057
    55  H    0.042960
    56  H    0.081078
    57  H    0.007192
    58  H    0.065115
    59  H    0.037036
    60  H    0.086293
    61  H    0.017501
    62  H    0.040443
    63  H   -0.028920
    64  H   -0.030031
    65  H    0.032150
    66  H    0.070612
    67  H   -0.006734
    68  H   -0.022293
    69  H    0.052431
    70  H   -0.000064
    71  H    0.017472
    72  H   -0.000990
    73  H   -0.004687
    74  H    0.032555
    75  H   -0.026082
    76  H    0.041663
    77  H    0.018627
    78  H   -0.015327
    79  H   -0.023781
    80  H    0.236720
    81  H    0.231018
 Sum of Mulliken charges =  -0.00000

 Dipole moment (field-independent basis, Debye):
    X=              2.9736    Y=             -1.4106    Z=              1.8202  Tot=              3.7610
 Quadrupole moment (field-independent basis, Debye-Ang):
   XX=           -244.9248   YY=           -233.8310   ZZ=           -252.3739
   XY=            -19.2223   XZ=             21.9831   YZ=              8.9481

 Normal termination of Gaussian 16 at Sat Jul  6 09:20:23 2019.
