 Gaussian 16, Revision A.03,
 Gaussian 16:  ES64L-G16RevA.03 25-Dec-2016

 --------------------------
 # td=(NStates=1) B3LYP/SVP
 --------------------------

 --
 TD
 --
 Symbolic Z-matrix:
 Charge =  0 Multiplicity = 1

                         Standard orientation:
 ---------------------------------------------------------------------
 Center     Atomic      Atomic             Coordinates (Angstroms)
 Number     Number       Type             X           Y           Z
 ---------------------------------------------------------------------
      1          8           0        4.680981   -4.774930   -1.637367
      2          8           0       -2.554346   -5.127912   -1.182286
      3          8           0       -6.983753   -1.594961   -1.944786
      4          8           0       -3.539252   -3.310602   -0.282395
      5          8           0       -7.659385   -0.589505    0.034817
      6          8           0        2.998836    2.539291    0.187683
      7          7           0        0.300907   -0.531249    0.559965
      8          7           0       -1.655638    1.743973    0.356978
      9          7           0        3.387649   -3.087645   -0.580675
     10          7           0        0.617879    2.949200    0.156394
     11          6           0       -0.630758   -2.498065    1.353088
     12          6           0       -0.947467   -1.134995    0.872645
     13          6           0        0.750944   -2.681858    1.307982
     14          6           0        1.326160   -1.457062    0.670341
     15          6           0       -3.820175    1.422550    0.415949
     16          6           0       -2.571640    0.722746    0.554623
     17          6           0       -2.232565   -0.521216    0.844196
     18          6           0       -3.662895    2.734781   -0.015311
     19          6           0       -1.594133   -3.421345    1.882854
     20          6           0        5.609453   -2.506530   -1.409228
     21          6           0        3.549530   -1.755412   -0.195080
     22          6           0       -2.232239    2.958822   -0.000736
     23          6           0        5.008919   -1.442697   -0.504247
     24          6           0       -5.121437    0.672317    0.418921
     25          6           0        2.669659   -0.984606    0.440169
     26          6           0        1.555807   -3.710909    1.863631
     27          6           0        4.455540   -3.597446   -1.271862
     28          6           0       -1.847748   -4.495690    0.983482
     29          6           0       -5.365752   -0.319700   -0.782958
     30          6           0       -4.784850    3.759056   -0.245526
     31          6           0       -1.479624    4.109993   -0.183404
     32          6           0        7.077966   -2.964123   -1.102976
     33          6           0        5.706039   -0.467857    0.136395
     34          6           0       -0.006015    4.032119   -0.097845
     35          6           0        0.894542    5.201926   -0.337572
     36          6           0        2.114421    4.716534   -0.331601
     37          6           0       -2.767987   -4.208529   -0.209171
     38          6           0        5.339151    0.489911    1.300988
     39          6           0       -6.803168   -0.826668   -0.798278
     40          6           0        3.525989    5.268897   -0.602978
     41          6           0        2.047687    3.280171    0.078103
     42          6           0        0.498711    6.566807   -0.763571
     43          6           0        4.190594    5.769262    0.718234
     44          1           0        0.566585    0.229454   -0.190395
     45          1           0       -2.985449   -1.336829    1.055124
     46          1           0       -2.632067   -3.154276    2.014135
     47          1           0       -1.370632   -3.967245    2.958412
     48          1           0        5.363268   -1.928138   -2.341977
     49          1           0       -5.067635    0.070748    1.374891
     50          1           0       -5.854731    1.396911    0.563077
     51          1           0        2.779077    0.177391    0.443992
     52          1           0       -0.614411    1.834381    0.458051
     53          1           0        1.863615   -4.566010    1.059844
     54          1           0        2.675083   -3.219160    2.014733
     55          1           0        1.203027   -4.299661    2.836861
     56          1           0        2.431797   -3.498011   -0.473414
     57          1           0       -1.011741   -5.094776    0.582487
     58          1           0       -2.442250   -5.432109    1.402841
     59          1           0       -4.652275   -0.948284   -1.035360
     60          1           0       -5.220585    0.247922   -1.686263
     61          1           0       -4.537352    4.680462    0.316794
     62          1           0       -5.619041    3.362919    0.197078
     63          1           0       -4.827085    3.971365   -1.242798
     64          1           0       -2.046703    5.041787   -0.558558
     65          1           0        7.673713   -2.167949   -1.429026
     66          1           0        7.308020   -3.774351   -1.776781
     67          1           0        7.033729   -3.049990    0.095691
     68          1           0        6.787317   -0.389466   -0.264133
     69          1           0        4.814770    1.579874    0.868234
     70          1           0        6.435321    0.608492    1.949070
     71          1           0        4.490235    0.144746    2.048734
     72          1           0        3.458882    6.221977   -1.335261
     73          1           0        4.094435    4.498840   -1.168294
     74          1           0       -0.163285    6.764301   -1.627145
     75          1           0        1.342330    7.242327   -1.047966
     76          1           0       -0.065423    7.212346   -0.052094
     77          1           0        3.671076    6.745380    0.940804
     78          1           0        5.213438    6.160090    0.502271
     79          1           0        4.272549    4.914621    1.444330
     80          1           0       -3.365964   -5.161726   -1.788729
     81          1           0       -7.817820   -2.036460   -1.898765
 ---------------------------------------------------------------------

 SCF Done:  E(RB3LYP) =  -1949.12562319     A.U. after   16 cycles

 Excitation energies and oscillator strengths:

 Excited State   1:      Singlet-A      1.9181 eV  646.39 nm  f=0.3668  <S**2>=0.000
     156 ->157         0.70819
     156 <-157        -0.11398
 This state for optimization and/or second-order correction.
 Total Energy, E(TD-HF/TD-DFT) =  -1949.05513462
 Copying the excited state density for this state as the 1-particle RhoCI density.

 The electronic state is 1-A.
 Alpha  occ. eigenvalues --  -19.19260 -19.17728 -19.14340 -19.13347 -19.12927
 Alpha  occ. eigenvalues --  -19.10740 -14.38573 -14.38384 -14.34122 -14.29860
 Alpha  occ. eigenvalues --  -10.32937 -10.32614 -10.29800 -10.28173 -10.24404
 Alpha  occ. eigenvalues --  -10.23833 -10.23804 -10.23468 -10.23248 -10.22253
 Alpha  occ. eigenvalues --  -10.22163 -10.21568 -10.21559 -10.21195 -10.21010
 Alpha  occ. eigenvalues --  -10.20588 -10.20583 -10.20401 -10.20290 -10.20244
 Alpha  occ. eigenvalues --  -10.20149 -10.19988 -10.19821 -10.19713 -10.19669
 Alpha  occ. eigenvalues --  -10.19665 -10.19389 -10.19380 -10.19341 -10.19338
 Alpha  occ. eigenvalues --  -10.19034 -10.18834 -10.18725  -1.10738  -1.08334
 Alpha  occ. eigenvalues --   -1.03793  -1.02502  -1.01616  -1.00681  -0.97075
 Alpha  occ. eigenvalues --   -0.96267  -0.95204  -0.93607  -0.84432  -0.81732
 Alpha  occ. eigenvalues --   -0.81143  -0.81067  -0.80246  -0.79197  -0.78467
 Alpha  occ. eigenvalues --   -0.76990  -0.75647  -0.74709  -0.73194  -0.72080
 Alpha  occ. eigenvalues --   -0.71556  -0.69842  -0.68777  -0.68139  -0.67840
 Alpha  occ. eigenvalues --   -0.67240  -0.65109  -0.63316  -0.62120  -0.61167
 Alpha  occ. eigenvalues --   -0.60607  -0.60295  -0.59075  -0.58448  -0.56868
 Alpha  occ. eigenvalues --   -0.55485  -0.55271  -0.54913  -0.53386  -0.52408
 Alpha  occ. eigenvalues --   -0.52229  -0.51668  -0.50960  -0.50377  -0.49749
 Alpha  occ. eigenvalues --   -0.49245  -0.48593  -0.48307  -0.47821  -0.47460
 Alpha  occ. eigenvalues --   -0.47311  -0.46525  -0.46211  -0.46048  -0.45360
 Alpha  occ. eigenvalues --   -0.44839  -0.44698  -0.44515  -0.44000  -0.43696
 Alpha  occ. eigenvalues --   -0.43353  -0.42605  -0.42372  -0.42134  -0.41861
 Alpha  occ. eigenvalues --   -0.41607  -0.41508  -0.41201  -0.40902  -0.40885
 Alpha  occ. eigenvalues --   -0.40482  -0.40232  -0.39660  -0.39597  -0.39342
 Alpha  occ. eigenvalues --   -0.39084  -0.38888  -0.38637  -0.38361  -0.38220
 Alpha  occ. eigenvalues --   -0.37676  -0.37453  -0.36951  -0.36809  -0.36598
 Alpha  occ. eigenvalues --   -0.35902  -0.35534  -0.35230  -0.34870  -0.34232
 Alpha  occ. eigenvalues --   -0.34134  -0.33952  -0.33846  -0.33743  -0.33691
 Alpha  occ. eigenvalues --   -0.33364  -0.32610  -0.32480  -0.30536  -0.29471
 Alpha  occ. eigenvalues --   -0.29399  -0.28681  -0.26535  -0.25706  -0.25501
 Alpha  occ. eigenvalues --   -0.25373  -0.25006  -0.24282  -0.24090  -0.21967
 Alpha  occ. eigenvalues --   -0.17532
 Alpha virt. eigenvalues --   -0.09968  -0.06085  -0.03560  -0.00468  -0.00131
 Alpha virt. eigenvalues --   -0.00065   0.01095   0.02041   0.03202   0.03931
 Alpha virt. eigenvalues --    0.04264   0.04872   0.05204   0.05489   0.05705

 Mulliken charges:
               1
     1  O   -0.248987
     2  O   -0.213703
     3  O   -0.205611
     4  O   -0.187230
     5  O   -0.218319
     6  O   -0.189687
     7  N   -0.138501
     8  N   -0.142058
     9  N   -0.105995
    10  N   -0.292508
    11  C   -0.029708
    12  C    0.028389
    13  C   -0.098909
    14  C    0.017656
    15  C   -0.134970
    16  C    0.179433
    17  C   -0.080621
    18  C   -0.173030
    19  C    0.124670
    20  C   -0.069929
    21  C    0.116170
    22  C    0.083921
    23  C   -0.091774
    24  C    0.155496
    25  C   -0.177517
    26  C   -0.070197
    27  C    0.139024
    28  C   -0.065380
    29  C    0.102239
    30  C    0.217094
    31  C   -0.129975
    32  C    0.108986
    33  C   -0.127637
    34  C    0.052545
    35  C   -0.036723
    36  C   -0.166384
    37  C    0.099427
    38  C   -0.092737
    39  C    0.166064
    40  C    0.025602
    41  C    0.181555
    42  C    0.056535
    43  C    0.000615
    44  H    0.189750
    45  H    0.017905
    46  H    0.001041
    47  H    0.029745
    48  H    0.047003
    49  H    0.012468
    50  H   -0.026039
    51  H    0.068959
    52  H    0.135162
    53  H    0.034825
    54  H    0.058662
    55  H    0.052644
    56  H    0.153902
    57  H    0.020724
    58  H    0.041547
    59  H   -0.027284
    60  H    0.007962
    61  H    0.016422
    62  H   -0.013224
    63  H    0.003765
    64  H   -0.002239
    65  H    0.002775
    66  H    0.033306
    67  H    0.055555
    68  H    0.007736
    69  H    0.109891
    70  H    0.038455
    71  H    0.053703
    72  H    0.007026
    73  H    0.023466
    74  H    0.014842
    75  H    0.005238
    76  H    0.011123
    77  H    0.020058
    78  H    0.009751
    79  H    0.048033
    80  H    0.203829
    81  H    0.164178
 Sum of Mulliken charges =  -0.00000

 Dipole moment (field-independent basis, Debye):
    X=             -2.6396    Y=              0.8718    Z=             -1.3444  Tot=              3.0879
 Quadrupole moment (field-independent basis, Debye-Ang):
   XX=           -260.0728   YY=           -235.2746   ZZ=           -253.7970
   XY=             25.8165   XZ=             12.5819   YZ=            -12.6255

 Normal termination of Gaussian 16 at Wed Jun 26 21:27:20 2019.
