 Gaussian 16, Revision A.03,
 Gaussian 16:  ES64L-G16RevA.03 25-Dec-2016

 --------------------------
 # td=(NStates=1) B3LYP/SVP
 --------------------------

 --
 TD
 --
 Symbolic Z-matrix:
 Charge =  0 Multiplicity = 1

                         Standard orientation:
 ---------------------------------------------------------------------
 Center     Atomic      Atomic             Coordinates (Angstroms)
 Number     Number       Type             X           Y           Z
 ---------------------------------------------------------------------
      1          8           0        4.309585   -4.839851   -1.786571
      2          8           0       -3.047707   -4.746640   -1.216901
      3          8           0       -7.149160   -1.374365   -1.844129
      4          8           0       -3.864784   -3.106134   -0.078738
      5          8           0       -7.568840   -0.402668    0.127175
      6          8           0        3.076346    2.359955    0.232089
      7          7           0        0.258019   -0.618300    0.541010
      8          7           0       -1.416889    1.876125    0.417369
      9          7           0        3.275014   -3.147495   -0.671524
     10          7           0        0.869364    2.873420    0.106673
     11          6           0       -0.667216   -2.390346    1.431079
     12          6           0       -1.004982   -1.091977    1.066303
     13          6           0        0.596720   -2.661457    1.267781
     14          6           0        1.219102   -1.562392    0.818824
     15          6           0       -3.761811    1.578770    0.331348
     16          6           0       -2.405655    0.852635    0.544027
     17          6           0       -2.146173   -0.442302    0.881983
     18          6           0       -3.496045    2.879003    0.020494
     19          6           0       -1.728374   -3.373269    1.900316
     20          6           0        5.425657   -2.756020   -1.314184
     21          6           0        3.464694   -1.902231   -0.136338
     22          6           0       -2.009887    3.092742   -0.006625
     23          6           0        4.931631   -1.653445   -0.375275
     24          6           0       -5.045512    0.869335    0.376319
     25          6           0        2.548078   -1.055807    0.443899
     26          6           0        1.341724   -3.929501    1.803990
     27          6           0        4.305460   -3.747611   -1.311044
     28          6           0       -2.057913   -4.473109    0.813221
     29          6           0       -5.345722   -0.132950   -0.755743
     30          6           0       -4.377949    3.957551   -0.552713
     31          6           0       -1.199665    4.151995   -0.107849
     32          6           0        6.841074   -3.265861   -1.180251
     33          6           0        5.801466   -0.710666    0.096580
     34          6           0        0.196225    4.071849   -0.131921
     35          6           0        1.172047    5.101803   -0.514035
     36          6           0        2.346392    4.597763   -0.247829
     37          6           0       -3.108211   -3.992162   -0.160711
     38          6           0        5.495902    0.282757    1.150419
     39          6           0       -6.789732   -0.564050   -0.796869
     40          6           0        3.719452    5.254376   -0.496280
     41          6           0        2.157563    3.151413    0.027084
     42          6           0        0.757618    6.564005   -0.782866
     43          6           0        4.430409    5.557424    0.787852
     44          1           0        0.405597    0.178440    0.048969
     45          1           0       -3.096247   -0.926440    1.122523
     46          1           0       -2.636143   -2.804668    2.286259
     47          1           0       -1.315121   -3.898520    2.874965
     48          1           0        5.463119   -2.412509   -2.523707
     49          1           0       -5.235775    0.352246    1.303168
     50          1           0       -5.907684    1.602498    0.234260
     51          1           0        2.640933    0.098251    0.417333
     52          1           0       -0.476826    1.890689    0.384043
     53          1           0        1.408767   -4.698507    1.045685
     54          1           0        2.233747   -3.673842    2.189445
     55          1           0        0.839000   -4.320265    2.738194
     56          1           0        2.259197   -3.545139   -0.980757
     57          1           0       -1.237112   -4.903927    0.279041
     58          1           0       -2.670286   -5.425360    1.240776
     59          1           0       -4.784772   -1.119945   -0.849390
     60          1           0       -5.296953    0.250028   -1.741247
     61          1           0       -4.494723    4.706480    0.366287
     62          1           0       -5.377550    3.444000   -0.502427
     63          1           0       -4.060098    4.490016   -1.561707
     64          1           0       -1.738079    4.997626   -0.426996
     65          1           0        7.846155   -2.586741   -1.282037
     66          1           0        6.960289   -4.165357   -1.625612
     67          1           0        6.814551   -4.012726   -0.229283
     68          1           0        6.820447   -0.922908   -0.323344
     69          1           0        5.164695    1.196757    0.766678
     70          1           0        6.340528    0.578559    1.684147
     71          1           0        4.737103   -0.067147    1.964727
     72          1           0        3.831839    6.213346   -1.139101
     73          1           0        4.341555    4.423263   -0.961984
     74          1           0       -0.175655    6.595624   -1.552240
     75          1           0        1.633821    7.196897   -1.305440
     76          1           0        0.363516    7.115077    0.238699
     77          1           0        3.742208    6.190078    1.538157
     78          1           0        5.310049    6.036287    0.770516
     79          1           0        4.683328    4.616097    1.446070
     80          1           0       -3.801201   -4.536758   -1.766724
     81          1           0       -8.116488   -1.709722   -1.731955
 ---------------------------------------------------------------------

 SCF Done:  E(RB3LYP) =  -1949.09486003     A.U. after   16 cycles

 Excitation energies and oscillator strengths:

 Excited State   1:      Singlet-A      1.8946 eV  654.41 nm  f=0.3708  <S**2>=0.000
     156 ->157         0.70794
     156 <-157        -0.11923
 This state for optimization and/or second-order correction.
 Total Energy, E(TD-HF/TD-DFT) =  -1949.02523476
 Copying the excited state density for this state as the 1-particle RhoCI density.

 The electronic state is 1-A.
 Alpha  occ. eigenvalues --  -19.19208 -19.18057 -19.13871 -19.12010 -19.11201
 Alpha  occ. eigenvalues --  -19.09344 -14.38188 -14.36004 -14.34724 -14.28175
 Alpha  occ. eigenvalues --  -10.32611 -10.31740 -10.29015 -10.25237 -10.24752
 Alpha  occ. eigenvalues --  -10.23725 -10.23720 -10.23140 -10.22828 -10.22620
 Alpha  occ. eigenvalues --  -10.22324 -10.21981 -10.21950 -10.21900 -10.21611
 Alpha  occ. eigenvalues --  -10.21399 -10.20955 -10.20951 -10.20671 -10.20162
 Alpha  occ. eigenvalues --  -10.19887 -10.19705 -10.19695 -10.19511 -10.19318
 Alpha  occ. eigenvalues --  -10.19156 -10.19119 -10.19027 -10.18280 -10.18169
 Alpha  occ. eigenvalues --  -10.18130 -10.17474 -10.16809  -1.13955  -1.08063
 Alpha  occ. eigenvalues --   -1.05225  -1.03756  -1.00776  -0.98977  -0.98375
 Alpha  occ. eigenvalues --   -0.96441  -0.95800  -0.91877  -0.83136  -0.82721
 Alpha  occ. eigenvalues --   -0.82090  -0.80934  -0.79383  -0.79083  -0.78205
 Alpha  occ. eigenvalues --   -0.77868  -0.77114  -0.74941  -0.74228  -0.72692
 Alpha  occ. eigenvalues --   -0.71500  -0.70041  -0.69431  -0.68694  -0.68121
 Alpha  occ. eigenvalues --   -0.67298  -0.65461  -0.64536  -0.63313  -0.61858
 Alpha  occ. eigenvalues --   -0.60841  -0.59397  -0.58907  -0.58253  -0.57106
 Alpha  occ. eigenvalues --   -0.55959  -0.55857  -0.54392  -0.53502  -0.52465
 Alpha  occ. eigenvalues --   -0.52212  -0.51706  -0.51116  -0.50676  -0.49956
 Alpha  occ. eigenvalues --   -0.49561  -0.49271  -0.48729  -0.47931  -0.47403
 Alpha  occ. eigenvalues --   -0.47092  -0.46938  -0.46131  -0.45966  -0.45505
 Alpha  occ. eigenvalues --   -0.44471  -0.44326  -0.43929  -0.43718  -0.43371
 Alpha  occ. eigenvalues --   -0.43224  -0.42932  -0.42817  -0.42312  -0.42191
 Alpha  occ. eigenvalues --   -0.41725  -0.41556  -0.41201  -0.41130  -0.40423
 Alpha  occ. eigenvalues --   -0.40342  -0.39940  -0.39657  -0.39381  -0.39306
 Alpha  occ. eigenvalues --   -0.39115  -0.38962  -0.38839  -0.38448  -0.38229
 Alpha  occ. eigenvalues --   -0.37772  -0.37678  -0.37265  -0.37176  -0.36711
 Alpha  occ. eigenvalues --   -0.36334  -0.36212  -0.35496  -0.35181  -0.34823
 Alpha  occ. eigenvalues --   -0.34561  -0.34242  -0.33768  -0.33501  -0.33254
 Alpha  occ. eigenvalues --   -0.31761  -0.31137  -0.30489  -0.30153  -0.29846
 Alpha  occ. eigenvalues --   -0.27428  -0.27282  -0.26912  -0.26379  -0.26238
 Alpha  occ. eigenvalues --   -0.25588  -0.24980  -0.24039  -0.23408  -0.21995
 Alpha  occ. eigenvalues --   -0.17778
 Alpha virt. eigenvalues --   -0.10335  -0.05805  -0.03508  -0.01092   0.00063
 Alpha virt. eigenvalues --    0.00673   0.01493   0.02421   0.02849   0.03738
 Alpha virt. eigenvalues --    0.04500   0.04746   0.04927   0.05518   0.05920

 Mulliken charges:
               1
     1  O   -0.181821
     2  O   -0.130119
     3  O   -0.245080
     4  O   -0.179191
     5  O   -0.246726
     6  O   -0.229792
     7  N   -0.104213
     8  N   -0.076401
     9  N   -0.137983
    10  N   -0.263543
    11  C   -0.064606
    12  C    0.147355
    13  C   -0.205555
    14  C    0.084111
    15  C   -0.017453
    16  C    0.052825
    17  C   -0.058101
    18  C   -0.129484
    19  C    0.068427
    20  C   -0.113753
    21  C    0.141442
    22  C    0.061150
    23  C   -0.041492
    24  C    0.084885
    25  C   -0.154031
    26  C    0.158175
    27  C    0.080624
    28  C    0.002273
    29  C    0.012282
    30  C    0.051139
    31  C   -0.061146
    32  C    0.036571
    33  C   -0.106281
    34  C    0.098217
    35  C   -0.079980
    36  C   -0.119140
    37  C    0.061225
    38  C    0.113839
    39  C    0.115268
    40  C    0.063907
    41  C    0.115134
    42  C   -0.029543
    43  C   -0.028780
    44  H    0.086921
    45  H   -0.007133
    46  H    0.026580
    47  H    0.019598
    48  H    0.066301
    49  H    0.026957
    50  H    0.020076
    51  H    0.078310
    52  H    0.047534
    53  H    0.015652
    54  H   -0.008950
    55  H    0.006804
    56  H    0.179210
    57  H    0.028724
    58  H    0.059480
    59  H    0.071128
    60  H    0.001044
    61  H    0.038320
    62  H    0.006009
    63  H    0.075311
    64  H   -0.056546
    65  H    0.069490
    66  H   -0.016866
    67  H   -0.005749
    68  H   -0.004720
    69  H    0.034364
    70  H   -0.022186
    71  H    0.040148
    72  H    0.020467
    73  H    0.022457
    74  H    0.034856
    75  H    0.044706
    76  H    0.061337
    77  H    0.007647
    78  H   -0.020346
    79  H    0.027577
    80  H    0.167038
    81  H    0.213812
 Sum of Mulliken charges =  -0.00000

 Dipole moment (field-independent basis, Debye):
    X=             -2.9709    Y=             -0.4157    Z=             -1.5704  Tot=              3.3860
 Quadrupole moment (field-independent basis, Debye-Ang):
   XX=           -248.9621   YY=           -239.4721   ZZ=           -253.6907
   XY=             16.0400   XZ=             14.7787   YZ=            -11.0841

 Normal termination of Gaussian 16 at Sat Jun 29 03:20:33 2019.
