 Gaussian 16, Revision A.03,
 Gaussian 16:  ES64L-G16RevA.03 25-Dec-2016

 --------------------------
 # td=(NStates=1) B3LYP/SVP
 --------------------------

 --
 TD
 --
 Symbolic Z-matrix:
 Charge =  0 Multiplicity = 1

                         Standard orientation:
 ---------------------------------------------------------------------
 Center     Atomic      Atomic             Coordinates (Angstroms)
 Number     Number       Type             X           Y           Z
 ---------------------------------------------------------------------
      1          8           0       -4.850689   -4.283792    2.144726
      2          8           0        2.192877   -4.931125    1.270047
      3          8           0        6.848806   -1.790726    2.130237
      4          8           0        3.470964   -3.529940   -0.099861
      5          8           0        7.695790   -1.055662    0.189730
      6          8           0       -2.773260    2.736734   -0.218065
      7          7           0       -0.348482   -0.625485   -0.638623
      8          7           0        1.703607    1.665234   -0.332425
      9          7           0       -3.696162   -2.853045    0.678260
     10          7           0       -0.377783    2.979130   -0.058872
     11          6           0        0.349375   -2.518708   -1.518290
     12          6           0        0.731500   -1.212410   -1.018623
     13          6           0       -1.152085   -2.631798   -1.326664
     14          6           0       -1.459700   -1.487212   -0.760796
     15          6           0        3.919482    1.005648   -0.377907
     16          6           0        2.534132    0.533409   -0.638279
     17          6           0        2.125710   -0.654591   -0.911675
     18          6           0        3.959786    2.403441   -0.062413
     19          6           0        1.236313   -3.538846   -2.041601
     20          6           0       -5.821404   -2.068863    1.416918
     21          6           0       -3.838456   -1.551035    0.237364
     22          6           0        2.447365    2.729955   -0.041989
     23          6           0       -5.238057   -1.112528    0.475757
     24          6           0        5.096102    0.185436   -0.460349
     25          6           0       -2.788482   -0.905430   -0.460188
     26          6           0       -2.013918   -3.722032   -1.744908
     27          6           0       -4.752169   -3.244835    1.462686
     28          6           0        1.567099   -4.711636   -1.070907
     29          6           0        5.362357   -0.585127    0.775996
     30          6           0        5.104934    3.332552    0.154919
     31          6           0        1.736919    3.948015    0.196923
     32          6           0       -7.260897   -2.563342    1.119238
     33          6           0       -5.911938   -0.140998   -0.196688
     34          6           0        0.404750    4.037079    0.164566
     35          6           0       -0.456675    5.248574    0.560880
     36          6           0       -1.708603    4.842563    0.442642
     37          6           0        2.567613   -4.265855    0.063116
     38          6           0       -5.301166    0.799215   -1.309101
     39          6           0        6.836047   -1.190980    0.944938
     40          6           0       -2.990795    5.610721    0.516574
     41          6           0       -1.680897    3.450810   -0.088395
     42          6           0        0.135176    6.526490    0.754849
     43          6           0       -3.690744    5.910312   -0.866049
     44          1           0       -0.454340    0.079313   -0.055848
     45          1           0        2.825694   -1.354448   -1.200171
     46          1           0        2.076534   -3.226448   -2.686013
     47          1           0        0.719917   -3.994341   -2.962346
     48          1           0       -5.715317   -1.752631    2.607544
     49          1           0        4.940942   -0.525305   -1.287561
     50          1           0        5.857146    0.840616   -0.675813
     51          1           0       -2.848439    0.101076   -0.829416
     52          1           0        0.607828    1.727964   -0.209639
     53          1           0       -2.187106   -4.428822   -0.914944
     54          1           0       -3.142790   -3.572751   -2.139769
     55          1           0       -1.518302   -4.412230   -2.664856
     56          1           0       -2.916127   -3.422028    0.791779
     57          1           0        0.765190   -5.225738   -0.379790
     58          1           0        2.107578   -5.305104   -1.795861
     59          1           0        4.479331   -1.233720    1.061134
     60          1           0        5.581418    0.134792    1.602302
     61          1           0        4.609299    4.613826   -0.002439
     62          1           0        5.986818    3.202870   -0.657053
     63          1           0        5.555778    3.329132    1.193666
     64          1           0        2.428506    4.750467    0.425475
     65          1           0       -7.746360   -1.673435    1.294104
     66          1           0       -7.811124   -3.161938    1.821908
     67          1           0       -7.306414   -2.885116    0.162195
     68          1           0       -6.959246   -0.043473   -0.175943
     69          1           0       -4.811150    1.678753   -0.829811
     70          1           0       -6.051762    1.405127   -1.802380
     71          1           0       -4.606849    0.298121   -2.011942
     72          1           0       -2.684630    6.548462    0.805828
     73          1           0       -3.763483    5.117229    1.318684
     74          1           0        0.785789    6.580588    1.480237
     75          1           0       -0.561055    7.311894    0.932280
     76          1           0        0.765659    6.984542   -0.018977
     77          1           0       -3.143144    6.644341   -1.450660
     78          1           0       -4.820003    6.529995   -0.755221
     79          1           0       -3.718413    5.077125   -1.378112
     80          1           0        2.861119   -4.688823    1.957444
     81          1           0        7.875312   -2.122608    2.201819
 ---------------------------------------------------------------------

 SCF Done:  E(RB3LYP) =  -1949.04593080     A.U. after   16 cycles

 Excitation energies and oscillator strengths:

 Excited State   1:      Singlet-A      2.0184 eV  614.28 nm  f=0.2732  <S**2>=0.000
     156 ->157         0.70277
 This state for optimization and/or second-order correction.
 Total Energy, E(TD-HF/TD-DFT) =  -1948.97175751
 Copying the excited state density for this state as the 1-particle RhoCI density.

 The electronic state is 1-A.
 Alpha  occ. eigenvalues --  -19.19917 -19.18841 -19.15382 -19.13998 -19.10176
 Alpha  occ. eigenvalues --  -19.09412 -14.36837 -14.36533 -14.35943 -14.29319
 Alpha  occ. eigenvalues --  -10.33410 -10.32465 -10.28370 -10.26234 -10.25647
 Alpha  occ. eigenvalues --  -10.24721 -10.24534 -10.23635 -10.23436 -10.22637
 Alpha  occ. eigenvalues --  -10.22489 -10.22074 -10.22062 -10.21786 -10.21465
 Alpha  occ. eigenvalues --  -10.21138 -10.21120 -10.21107 -10.20911 -10.19997
 Alpha  occ. eigenvalues --  -10.19888 -10.19711 -10.19463 -10.19242 -10.19121
 Alpha  occ. eigenvalues --  -10.18818 -10.18474 -10.18396 -10.18215 -10.17898
 Alpha  occ. eigenvalues --  -10.17599 -10.17252 -10.16893  -1.11817  -1.09852
 Alpha  occ. eigenvalues --   -1.03471  -1.02276  -1.01695  -1.00206  -0.97860
 Alpha  occ. eigenvalues --   -0.96686  -0.95094  -0.91400  -0.84124  -0.82274
 Alpha  occ. eigenvalues --   -0.81714  -0.81644  -0.80723  -0.79201  -0.77264
 Alpha  occ. eigenvalues --   -0.77019  -0.76236  -0.74975  -0.73981  -0.72113
 Alpha  occ. eigenvalues --   -0.70994  -0.70056  -0.69974  -0.68891  -0.68155
 Alpha  occ. eigenvalues --   -0.67312  -0.65434  -0.64499  -0.62272  -0.61578
 Alpha  occ. eigenvalues --   -0.60622  -0.59486  -0.58812  -0.57347  -0.57143
 Alpha  occ. eigenvalues --   -0.56063  -0.55682  -0.55072  -0.54660  -0.54465
 Alpha  occ. eigenvalues --   -0.53209  -0.51431  -0.51124  -0.50236  -0.49879
 Alpha  occ. eigenvalues --   -0.49495  -0.49070  -0.48862  -0.48144  -0.47556
 Alpha  occ. eigenvalues --   -0.47279  -0.47166  -0.46495  -0.46095  -0.45616
 Alpha  occ. eigenvalues --   -0.44976  -0.44745  -0.44224  -0.44106  -0.43857
 Alpha  occ. eigenvalues --   -0.43650  -0.42983  -0.42840  -0.42741  -0.42275
 Alpha  occ. eigenvalues --   -0.42062  -0.41860  -0.41579  -0.41058  -0.40940
 Alpha  occ. eigenvalues --   -0.40772  -0.40594  -0.40386  -0.40223  -0.39931
 Alpha  occ. eigenvalues --   -0.39526  -0.39367  -0.39272  -0.38660  -0.38097
 Alpha  occ. eigenvalues --   -0.37768  -0.37401  -0.36812  -0.36471  -0.36296
 Alpha  occ. eigenvalues --   -0.36157  -0.35555  -0.35167  -0.34740  -0.34666
 Alpha  occ. eigenvalues --   -0.34284  -0.34178  -0.33851  -0.33612  -0.33156
 Alpha  occ. eigenvalues --   -0.32846  -0.32452  -0.32171  -0.29713  -0.29294
 Alpha  occ. eigenvalues --   -0.28711  -0.27262  -0.26236  -0.26037  -0.25381
 Alpha  occ. eigenvalues --   -0.24556  -0.24104  -0.23544  -0.23069  -0.21402
 Alpha  occ. eigenvalues --   -0.18734
 Alpha virt. eigenvalues --   -0.10245  -0.05482  -0.03878  -0.01250   0.00264
 Alpha virt. eigenvalues --    0.01136   0.01249   0.01995   0.02456   0.03057
 Alpha virt. eigenvalues --    0.03372   0.04207   0.04469   0.05358   0.05700

 Mulliken charges:
               1
     1  O   -0.249688
     2  O   -0.248442
     3  O   -0.219899
     4  O   -0.171388
     5  O   -0.154959
     6  O   -0.303552
     7  N    0.056937
     8  N   -0.145152
     9  N   -0.060623
    10  N   -0.291850
    11  C   -0.122116
    12  C   -0.015507
    13  C   -0.033483
    14  C   -0.003813
    15  C   -0.145923
    16  C    0.211011
    17  C   -0.038538
    18  C   -0.048952
    19  C    0.015873
    20  C   -0.147240
    21  C    0.087960
    22  C    0.040233
    23  C    0.062128
    24  C    0.234875
    25  C   -0.116804
    26  C   -0.026016
    27  C    0.099749
    28  C    0.029921
    29  C   -0.064548
    30  C   -0.071400
    31  C   -0.134645
    32  C    0.161563
    33  C   -0.136298
    34  C    0.142634
    35  C   -0.049665
    36  C   -0.190052
    37  C    0.139223
    38  C    0.033687
    39  C    0.118190
    40  C    0.104599
    41  C    0.197206
    42  C    0.201703
    43  C    0.006585
    44  H    0.080765
    45  H   -0.047678
    46  H    0.013631
    47  H    0.003063
    48  H    0.064898
    49  H    0.012124
    50  H   -0.042716
    51  H    0.017788
    52  H    0.179146
    53  H    0.017967
    54  H    0.053738
    55  H    0.031323
    56  H    0.114366
    57  H    0.065480
    58  H    0.031204
    59  H    0.055092
    60  H    0.019290
    61  H    0.049354
    62  H    0.074221
    63  H    0.061528
    64  H   -0.050926
    65  H   -0.009988
    66  H    0.009567
    67  H   -0.005365
    68  H   -0.014832
    69  H    0.064647
    70  H   -0.014312
    71  H    0.042017
    72  H   -0.040784
    73  H    0.043036
    74  H   -0.042611
    75  H   -0.014594
    76  H    0.007677
    77  H   -0.001560
    78  H    0.022797
    79  H   -0.004473
    80  H    0.188145
    81  H    0.213455
 Sum of Mulliken charges =  -0.00000

 Dipole moment (field-independent basis, Debye):
    X=              5.6091    Y=              1.2587    Z=              0.1870  Tot=              5.7517
 Quadrupole moment (field-independent basis, Debye-Ang):
   XX=           -244.8271   YY=           -241.7236   ZZ=           -253.4311
   XY=             -9.7049   XZ=             20.5983   YZ=             12.2926

 Normal termination of Gaussian 16 at Fri Jul  5 18:02:16 2019.
