 Gaussian 16, Revision A.03,
 Gaussian 16:  ES64L-G16RevA.03 25-Dec-2016

 --------------------------
 # td=(NStates=1) B3LYP/SVP
 --------------------------

 --
 TD
 --
 Symbolic Z-matrix:
 Charge =  0 Multiplicity = 1

                         Standard orientation:
 ---------------------------------------------------------------------
 Center     Atomic      Atomic             Coordinates (Angstroms)
 Number     Number       Type             X           Y           Z
 ---------------------------------------------------------------------
      1          8           0        4.931739   -4.617824   -1.635819
      2          8           0       -2.283092   -5.219399   -1.195344
      3          8           0       -6.822510   -1.733836   -2.171939
      4          8           0       -3.495377   -3.530050   -0.210056
      5          8           0       -7.508894   -1.158244   -0.074492
      6          8           0        2.751228    2.659265    0.083976
      7          7           0        0.356902   -0.521243    0.606029
      8          7           0       -1.732217    1.713754    0.363525
      9          7           0        3.620082   -2.937417   -0.644990
     10          7           0        0.501316    2.969548    0.077816
     11          6           0       -0.465268   -2.447240    1.477128
     12          6           0       -0.846398   -1.165406    0.962097
     13          6           0        0.954816   -2.566043    1.321677
     14          6           0        1.395690   -1.395678    0.778683
     15          6           0       -3.961806    1.205915    0.454660
     16          6           0       -2.594766    0.669632    0.609568
     17          6           0       -2.138402   -0.658023    0.904086
     18          6           0       -3.859600    2.587831    0.094360
     19          6           0       -1.502144   -3.487328    1.905424
     20          6           0        5.698593   -2.272897   -1.357627
     21          6           0        3.785465   -1.593107   -0.105122
     22          6           0       -2.357483    2.833467    0.138283
     23          6           0        5.175207   -1.222686   -0.429566
     24          6           0       -5.198857    0.387881    0.548744
     25          6           0        2.767263   -0.869660    0.416261
     26          6           0        1.770232   -3.709393    1.898544
     27          6           0        4.723885   -3.432262   -1.248985
     28          6           0       -1.693748   -4.607117    0.993990
     29          6           0       -5.278309   -0.529267   -0.843121
     30          6           0       -4.889341    3.642310   -0.173414
     31          6           0       -1.657491    4.061525   -0.136135
     32          6           0        7.196477   -2.693674   -1.073643
     33          6           0        5.854021   -0.126602    0.009128
     34          6           0       -0.318668    4.029887   -0.179280
     35          6           0        0.512365    5.228145   -0.390179
     36          6           0        1.825360    4.789191   -0.277000
     37          6           0       -2.613915   -4.346479   -0.147257
     38          6           0        5.420001    0.851260    1.027888
     39          6           0       -6.676892   -1.209732   -0.935507
     40          6           0        3.138867    5.564353   -0.488274
     41          6           0        1.756248    3.397023   -0.041745
     42          6           0       -0.076798    6.588492   -0.866685
     43          6           0        3.908969    5.825062    0.869180
     44          1           0        0.322574    0.216484    0.077380
     45          1           0       -3.007038   -1.276366    1.155764
     46          1           0       -2.511099   -3.022755    2.162513
     47          1           0       -1.216156   -3.966413    2.758913
     48          1           0        5.446149   -1.859174   -2.421170
     49          1           0       -5.071325   -0.084595    1.471085
     50          1           0       -6.114391    0.803782    0.673415
     51          1           0        2.760234    0.188622    0.562415
     52          1           0       -0.793692    1.900413    0.535840
     53          1           0        1.927486   -4.633364    1.133545
     54          1           0        2.803757   -3.669425    2.084821
     55          1           0        1.414812   -3.835476    2.931717
     56          1           0        2.714331   -3.507745   -0.652280
     57          1           0       -0.877989   -5.226088    0.558933
     58          1           0       -1.984842   -5.374680    1.665930
     59          1           0       -4.429425   -1.078513   -0.822817
     60          1           0       -5.078624    0.090603   -1.813442
     61          1           0       -4.755957    4.547384    0.458316
     62          1           0       -5.852906    3.292875   -0.109992
     63          1           0       -4.664515    4.031064   -1.230806
     64          1           0       -2.279183    4.892547   -0.620071
     65          1           0        7.791930   -1.905572   -1.349791
     66          1           0        7.190145   -3.572314   -1.927442
     67          1           0        7.384259   -3.145375   -0.194741
     68          1           0        6.752086    0.084536   -0.520199
     69          1           0        4.873356    1.524073    0.360629
     70          1           0        6.149151    1.258316    1.398880
     71          1           0        4.917425    0.378182    1.964555
     72          1           0        3.005463    6.507202   -1.063291
     73          1           0        3.824416    4.987933   -1.211946
     74          1           0       -0.667318    6.488319   -1.780908
     75          1           0        0.636518    7.242780   -1.099482
     76          1           0       -0.771998    7.086298   -0.137454
     77          1           0        3.222338    6.494148    1.420428
     78          1           0        4.976048    6.279399    0.604975
     79          1           0        4.208427    4.992208    1.596769
     80          1           0       -2.736207   -4.915606   -1.956186
     81          1           0       -7.837018   -1.961796   -2.149052
 ---------------------------------------------------------------------

 SCF Done:  E(RB3LYP) =  -1949.11358386     A.U. after   19 cycles

 Excitation energies and oscillator strengths:

 Excited State   1:      Singlet-A      1.9896 eV  623.18 nm  f=0.3668  <S**2>=0.000
     154 ->157         0.10792
     156 ->157         0.70035
     156 <-157        -0.10799
 This state for optimization and/or second-order correction.
 Total Energy, E(TD-HF/TD-DFT) =  -1949.04046909
 Copying the excited state density for this state as the 1-particle RhoCI density.

 The electronic state is 1-A.
 Alpha  occ. eigenvalues --  -19.19596 -19.18481 -19.15113 -19.13887 -19.10151
 Alpha  occ. eigenvalues --  -19.07944 -14.37687 -14.37238 -14.36298 -14.27063
 Alpha  occ. eigenvalues --  -10.33594 -10.32852 -10.28656 -10.24785 -10.24457
 Alpha  occ. eigenvalues --  -10.24291 -10.24196 -10.23890 -10.23665 -10.22633
 Alpha  occ. eigenvalues --  -10.21646 -10.21309 -10.21183 -10.21143 -10.21120
 Alpha  occ. eigenvalues --  -10.20998 -10.20974 -10.20768 -10.20738 -10.20305
 Alpha  occ. eigenvalues --  -10.20305 -10.19645 -10.19526 -10.19415 -10.19395
 Alpha  occ. eigenvalues --  -10.19326 -10.19178 -10.18794 -10.18706 -10.18587
 Alpha  occ. eigenvalues --  -10.18026 -10.17893 -10.16263  -1.10218  -1.10103
 Alpha  occ. eigenvalues --   -1.02462  -1.01840  -1.00878  -1.00414  -0.99106
 Alpha  occ. eigenvalues --   -0.98954  -0.93704  -0.91176  -0.84103  -0.82506
 Alpha  occ. eigenvalues --   -0.81504  -0.81254  -0.80013  -0.78506  -0.77806
 Alpha  occ. eigenvalues --   -0.76876  -0.76548  -0.75434  -0.73829  -0.72461
 Alpha  occ. eigenvalues --   -0.71810  -0.70506  -0.69806  -0.69009  -0.68494
 Alpha  occ. eigenvalues --   -0.68070  -0.65960  -0.65067  -0.62311  -0.61489
 Alpha  occ. eigenvalues --   -0.60229  -0.59636  -0.59038  -0.58693  -0.57505
 Alpha  occ. eigenvalues --   -0.57025  -0.56549  -0.55440  -0.54655  -0.53476
 Alpha  occ. eigenvalues --   -0.53180  -0.52837  -0.51360  -0.50259  -0.49864
 Alpha  occ. eigenvalues --   -0.49342  -0.49048  -0.48852  -0.48450  -0.47627
 Alpha  occ. eigenvalues --   -0.47494  -0.47049  -0.46065  -0.45637  -0.45243
 Alpha  occ. eigenvalues --   -0.45179  -0.44788  -0.43954  -0.43712  -0.43550
 Alpha  occ. eigenvalues --   -0.43320  -0.43099  -0.43037  -0.42838  -0.42577
 Alpha  occ. eigenvalues --   -0.42411  -0.42113  -0.41592  -0.41440  -0.41217
 Alpha  occ. eigenvalues --   -0.41126  -0.40724  -0.40487  -0.39900  -0.39801
 Alpha  occ. eigenvalues --   -0.39585  -0.39215  -0.38933  -0.38864  -0.38656
 Alpha  occ. eigenvalues --   -0.38186  -0.37880  -0.37755  -0.37034  -0.36903
 Alpha  occ. eigenvalues --   -0.36741  -0.36384  -0.35882  -0.34996  -0.34112
 Alpha  occ. eigenvalues --   -0.34081  -0.33925  -0.33526  -0.33489  -0.32907
 Alpha  occ. eigenvalues --   -0.32754  -0.31630  -0.31136  -0.30357  -0.29972
 Alpha  occ. eigenvalues --   -0.29447  -0.26252  -0.25943  -0.25784  -0.25445
 Alpha  occ. eigenvalues --   -0.25048  -0.24532  -0.23033  -0.22678  -0.21380
 Alpha  occ. eigenvalues --   -0.18490
 Alpha virt. eigenvalues --   -0.10579  -0.05811  -0.03989  -0.02231  -0.00331
 Alpha virt. eigenvalues --    0.00519   0.01967   0.02520   0.03286   0.04078
 Alpha virt. eigenvalues --    0.04550   0.04808   0.05229   0.05971   0.06215

 Mulliken charges:
               1
     1  O   -0.268561
     2  O   -0.201352
     3  O   -0.207818
     4  O   -0.196262
     5  O   -0.214795
     6  O   -0.246966
     7  N    0.004146
     8  N    0.044628
     9  N   -0.161416
    10  N   -0.272523
    11  C   -0.101914
    12  C    0.085238
    13  C   -0.145444
    14  C    0.043115
    15  C   -0.118504
    16  C    0.003659
    17  C   -0.030662
    18  C   -0.142110
    19  C    0.185502
    20  C   -0.099208
    21  C    0.179891
    22  C   -0.025089
    23  C   -0.020710
    24  C    0.176965
    25  C   -0.090220
    26  C    0.043337
    27  C    0.125850
    28  C    0.010764
    29  C   -0.014303
    30  C    0.137143
    31  C   -0.143910
    32  C    0.107757
    33  C   -0.175279
    34  C    0.114705
    35  C   -0.117719
    36  C   -0.139862
    37  C    0.142400
    38  C    0.199808
    39  C    0.181315
    40  C    0.066189
    41  C    0.094959
    42  C    0.157231
    43  C   -0.051937
    44  H    0.071459
    45  H    0.003617
    46  H    0.026383
    47  H   -0.046997
    48  H    0.061192
    49  H    0.001125
    50  H   -0.031117
    51  H    0.015065
    52  H    0.093709
    53  H    0.034134
    54  H   -0.002109
    55  H    0.035331
    56  H    0.153818
    57  H    0.029569
    58  H    0.024038
    59  H    0.004948
    60  H    0.047006
    61  H    0.031026
    62  H   -0.004252
    63  H    0.027744
    64  H    0.004006
    65  H    0.000513
    66  H    0.046891
    67  H   -0.004609
    68  H   -0.024473
    69  H    0.077998
    70  H   -0.079704
    71  H    0.032983
    72  H   -0.002609
    73  H    0.016189
    74  H    0.012400
    75  H   -0.035029
    76  H    0.019347
    77  H    0.018004
    78  H    0.019596
    79  H    0.041813
    80  H    0.162339
    81  H    0.200616
 Sum of Mulliken charges =  -0.00000

 Dipole moment (field-independent basis, Debye):
    X=             -4.2952    Y=              0.6657    Z=             -0.1115  Tot=              4.3479
 Quadrupole moment (field-independent basis, Debye-Ang):
   XX=           -252.5890   YY=           -249.4619   ZZ=           -247.8889
   XY=             12.5594   XZ=             17.2213   YZ=            -16.1639

 Normal termination of Gaussian 16 at Mon Jul  1 22:43:44 2019.
