 Gaussian 16, Revision A.03,
 Gaussian 16:  ES64L-G16RevA.03 25-Dec-2016

 --------------------------
 # td=(NStates=1) B3LYP/SVP
 --------------------------

 --
 TD
 --
 Symbolic Z-matrix:
 Charge =  0 Multiplicity = 1

                         Standard orientation:
 ---------------------------------------------------------------------
 Center     Atomic      Atomic             Coordinates (Angstroms)
 Number     Number       Type             X           Y           Z
 ---------------------------------------------------------------------
      1          8           0       -4.541566   -4.706852    1.873454
      2          8           0        2.900484   -4.769217    1.276535
      3          8           0        6.980194   -1.789458    1.794380
      4          8           0        3.805235   -3.130941   -0.033415
      5          8           0        7.585319   -0.674352   -0.062096
      6          8           0       -2.862444    2.301172   -0.091238
      7          7           0       -0.333473   -0.475065   -0.680384
      8          7           0        1.572128    1.836855   -0.550371
      9          7           0       -3.462007   -3.039831    0.677345
     10          7           0       -0.704343    2.971388   -0.160386
     11          6           0        0.677206   -2.428006   -1.306196
     12          6           0        0.870357   -1.143103   -0.922503
     13          6           0       -0.704964   -2.631245   -1.208648
     14          6           0       -1.341817   -1.414416   -0.777838
     15          6           0        3.803513    1.415043   -0.347772
     16          6           0        2.487004    0.816251   -0.703596
     17          6           0        2.159382   -0.453499   -0.973227
     18          6           0        3.559046    2.710691    0.019503
     19          6           0        1.590519   -3.470044   -1.786983
     20          6           0       -5.569673   -2.638155    1.368298
     21          6           0       -3.711942   -1.771594    0.170513
     22          6           0        2.169194    2.926367   -0.055511
     23          6           0       -5.129940   -1.432283    0.453973
     24          6           0        5.156959    0.716257   -0.458387
     25          6           0       -2.731936   -0.987579   -0.511990
     26          6           0       -1.560959   -3.818089   -1.707658
     27          6           0       -4.489734   -3.640764    1.332276
     28          6           0        2.059679   -4.465243   -0.857157
     29          6           0        5.443853   -0.183258    0.827338
     30          6           0        4.717174    3.795519    0.445212
     31          6           0        1.366136    4.099544    0.379461
     32          6           0       -7.062845   -3.133875    1.020585
     33          6           0       -5.943208   -0.489784   -0.185317
     34          6           0        0.001433    4.064515    0.266636
     35          6           0       -0.914977    5.210803    0.594683
     36          6           0       -2.142535    4.717817    0.310846
     37          6           0        2.992980   -3.975459    0.231384
     38          6           0       -5.525294    0.478317   -1.245403
     39          6           0        6.789014   -0.829264    0.753499
     40          6           0       -3.552688    5.253023    0.514961
     41          6           0       -1.963129    3.168557   -0.008436
     42          6           0       -0.492628    6.590919    0.870016
     43          6           0       -4.214526    5.651159   -0.884074
     44          1           0       -0.583130    0.679956   -0.552681
     45          1           0        3.037011   -1.177330   -1.034334
     46          1           0        2.570839   -2.983980   -2.158443
     47          1           0        1.021311   -3.994004   -2.660741
     48          1           0       -5.531112   -2.209764    2.390697
     49          1           0        5.446199    0.055851   -1.547444
     50          1           0        5.966352    1.355850   -0.647543
     51          1           0       -2.835565    0.134509   -0.955365
     52          1           0        0.549230    1.890142   -0.678376
     53          1           0       -1.709993   -4.466608   -0.873955
     54          1           0       -2.449571   -3.648434   -2.452059
     55          1           0       -0.880284   -4.366739   -2.496785
     56          1           0       -2.491499   -3.619492    0.487907
     57          1           0        1.145981   -4.905232   -0.417876
     58          1           0        2.489180   -5.457219   -1.286467
     59          1           0        4.537509   -1.018814    1.098796
     60          1           0        5.540845    0.284500    1.674544
     61          1           0        4.685652    4.694910   -0.043157
     62          1           0        5.781803    3.469047    0.091639
     63          1           0        4.677908    3.837063    1.508608
     64          1           0        1.629677    5.072644    0.811664
     65          1           0       -7.921469   -2.464480    1.047199
     66          1           0       -7.118050   -3.980966    1.758097
     67          1           0       -6.914460   -3.438927   -0.014579
     68          1           0       -6.972828   -0.663707    0.046006
     69          1           0       -4.909700    1.462540   -1.122342
     70          1           0       -6.484920    0.787111   -1.653219
     71          1           0       -4.810814   -0.343800   -1.894349
     72          1           0       -3.812634    6.140214    1.217391
     73          1           0       -4.266836    4.315714    0.870883
     74          1           0        0.178438    6.599068    1.686063
     75          1           0       -1.455605    6.951982    1.110474
     76          1           0        0.097440    7.077105   -0.141939
     77          1           0       -3.495903    6.467313   -1.417810
     78          1           0       -5.364433    6.050071   -0.626957
     79          1           0       -4.210863    4.832014   -1.500484
     80          1           0        3.720902   -4.497329    1.733716
     81          1           0        7.955557   -2.071771    1.867909
 ---------------------------------------------------------------------

 SCF Done:  E(RB3LYP) =  -1949.05211852     A.U. after   16 cycles

 Excitation energies and oscillator strengths:

 Excited State   1:      Singlet-A      1.9666 eV  630.44 nm  f=0.3406  <S**2>=0.000
     156 ->157         0.70599
 This state for optimization and/or second-order correction.
 Total Energy, E(TD-HF/TD-DFT) =  -1948.97984674
 Copying the excited state density for this state as the 1-particle RhoCI density.

 The electronic state is 1-A.
 Alpha  occ. eigenvalues --  -19.21546 -19.16446 -19.15176 -19.13685 -19.10649
 Alpha  occ. eigenvalues --  -19.08598 -14.38173 -14.37890 -14.36774 -14.28406
 Alpha  occ. eigenvalues --  -10.33832 -10.31798 -10.28565 -10.25377 -10.25268
 Alpha  occ. eigenvalues --  -10.24991 -10.23569 -10.23493 -10.23202 -10.22587
 Alpha  occ. eigenvalues --  -10.22191 -10.21973 -10.21943 -10.21404 -10.21323
 Alpha  occ. eigenvalues --  -10.21195 -10.21129 -10.21058 -10.20732 -10.20204
 Alpha  occ. eigenvalues --  -10.20188 -10.20183 -10.20019 -10.19942 -10.19855
 Alpha  occ. eigenvalues --  -10.19671 -10.19603 -10.19558 -10.19240 -10.19189
 Alpha  occ. eigenvalues --  -10.19042 -10.18986 -10.18856  -1.13742  -1.09902
 Alpha  occ. eigenvalues --   -1.04420  -1.04194  -0.99932  -0.99705  -0.99125
 Alpha  occ. eigenvalues --   -0.97204  -0.95472  -0.91759  -0.83626  -0.82001
 Alpha  occ. eigenvalues --   -0.81075  -0.79875  -0.79556  -0.78075  -0.77836
 Alpha  occ. eigenvalues --   -0.77565  -0.76071  -0.74558  -0.73337  -0.72398
 Alpha  occ. eigenvalues --   -0.71051  -0.69238  -0.68799  -0.68376  -0.67884
 Alpha  occ. eigenvalues --   -0.67505  -0.65638  -0.63614  -0.61931  -0.61053
 Alpha  occ. eigenvalues --   -0.59871  -0.59110  -0.57656  -0.57252  -0.56957
 Alpha  occ. eigenvalues --   -0.56019  -0.55650  -0.54558  -0.53247  -0.52792
 Alpha  occ. eigenvalues --   -0.52209  -0.51922  -0.51658  -0.51004  -0.50419
 Alpha  occ. eigenvalues --   -0.50085  -0.49019  -0.48859  -0.48078  -0.47678
 Alpha  occ. eigenvalues --   -0.47314  -0.46389  -0.46212  -0.45708  -0.45141
 Alpha  occ. eigenvalues --   -0.44835  -0.44497  -0.44176  -0.43946  -0.43403
 Alpha  occ. eigenvalues --   -0.43157  -0.42955  -0.42642  -0.42348  -0.41982
 Alpha  occ. eigenvalues --   -0.41871  -0.41616  -0.41497  -0.41017  -0.40766
 Alpha  occ. eigenvalues --   -0.40402  -0.40108  -0.39813  -0.39648  -0.39423
 Alpha  occ. eigenvalues --   -0.39131  -0.39092  -0.38611  -0.38442  -0.38166
 Alpha  occ. eigenvalues --   -0.37655  -0.37274  -0.36938  -0.36657  -0.36463
 Alpha  occ. eigenvalues --   -0.35380  -0.35302  -0.35051  -0.34762  -0.34647
 Alpha  occ. eigenvalues --   -0.33865  -0.33764  -0.33324  -0.33124  -0.32562
 Alpha  occ. eigenvalues --   -0.32079  -0.31782  -0.31713  -0.30342  -0.29706
 Alpha  occ. eigenvalues --   -0.28934  -0.27223  -0.26634  -0.26364  -0.25972
 Alpha  occ. eigenvalues --   -0.24956  -0.24174  -0.23483  -0.22988  -0.21327
 Alpha  occ. eigenvalues --   -0.18538
 Alpha virt. eigenvalues --   -0.10418  -0.05143  -0.03838  -0.01987   0.00689
 Alpha virt. eigenvalues --    0.00706   0.01637   0.02188   0.03136   0.03515
 Alpha virt. eigenvalues --    0.03977   0.04582   0.04788   0.05608   0.05705

 Mulliken charges:
               1
     1  O   -0.194533
     2  O   -0.122075
     3  O   -0.297048
     4  O   -0.219722
     5  O   -0.148474
     6  O   -0.277626
     7  N   -0.191465
     8  N   -0.041380
     9  N   -0.165301
    10  N   -0.261057
    11  C   -0.062003
    12  C    0.055035
    13  C   -0.210786
    14  C    0.041932
    15  C   -0.028780
    16  C    0.100479
    17  C   -0.101512
    18  C   -0.133862
    19  C    0.092808
    20  C   -0.087048
    21  C    0.086484
    22  C    0.087350
    23  C   -0.044976
    24  C    0.025170
    25  C   -0.121275
    26  C    0.051102
    27  C    0.116126
    28  C    0.003496
    29  C    0.029833
    30  C    0.117477
    31  C   -0.077127
    32  C    0.027454
    33  C   -0.077706
    34  C    0.036746
    35  C   -0.124701
    36  C   -0.140008
    37  C    0.126033
    38  C   -0.022426
    39  C    0.127582
    40  C   -0.036204
    41  C    0.126022
    42  C    0.105242
    43  C   -0.046782
    44  H    0.224964
    45  H    0.040459
    46  H    0.018824
    47  H    0.026658
    48  H    0.052262
    49  H    0.051944
    50  H   -0.006530
    51  H    0.091517
    52  H    0.126025
    53  H    0.016100
    54  H    0.063306
    55  H    0.003664
    56  H    0.183137
    57  H    0.001015
    58  H    0.055524
    59  H    0.086863
    60  H   -0.021709
    61  H    0.009535
    62  H    0.020697
    63  H    0.029788
    64  H   -0.040941
    65  H    0.035292
    66  H    0.044857
    67  H    0.016589
    68  H   -0.022983
    69  H    0.103245
    70  H    0.011274
    71  H    0.054644
    72  H    0.026419
    73  H    0.046931
    74  H    0.013134
    75  H    0.012287
    76  H    0.058203
    77  H    0.023193
    78  H    0.034483
    79  H    0.010995
    80  H    0.177865
    81  H    0.197978
 Sum of Mulliken charges =  -0.00000

 Dipole moment (field-independent basis, Debye):
    X=              4.5700    Y=              0.0129    Z=             -0.1551  Tot=              4.5727
 Quadrupole moment (field-independent basis, Debye-Ang):
   XX=           -246.0982   YY=           -244.3298   ZZ=           -255.1893
   XY=            -11.4177   XZ=             19.2457   YZ=             12.6371

 Normal termination of Gaussian 16 at Thu Jul  4 22:42:47 2019.
