 Gaussian 16, Revision A.03,
 Gaussian 16:  ES64L-G16RevA.03 25-Dec-2016

 --------------------------
 # td=(NStates=1) B3LYP/SVP
 --------------------------

 --
 TD
 --
 Symbolic Z-matrix:
 Charge =  0 Multiplicity = 1

                         Standard orientation:
 ---------------------------------------------------------------------
 Center     Atomic      Atomic             Coordinates (Angstroms)
 Number     Number       Type             X           Y           Z
 ---------------------------------------------------------------------
      1          8           0       -4.790078   -4.582295    1.869566
      2          8           0        2.447743   -4.860961    1.436349
      3          8           0        7.330219   -1.507620    1.860288
      4          8           0        3.542257   -3.356263    0.149871
      5          8           0        7.559202   -1.012368   -0.410916
      6          8           0       -2.853167    2.556328   -0.227823
      7          7           0       -0.293112   -0.641101   -0.562501
      8          7           0        1.599506    1.706088   -0.362941
      9          7           0       -3.599588   -3.090419    0.548573
     10          7           0       -0.549861    2.949419   -0.158805
     11          6           0        0.519742   -2.520723   -1.377082
     12          6           0        0.904789   -1.281784   -0.898225
     13          6           0       -0.854033   -2.676222   -1.198460
     14          6           0       -1.367744   -1.420499   -0.684274
     15          6           0        3.906928    1.253196   -0.429489
     16          6           0        2.559270    0.667109   -0.613640
     17          6           0        2.174860   -0.597370   -0.848245
     18          6           0        3.660051    2.605930    0.013286
     19          6           0        1.451225   -3.557277   -1.804336
     20          6           0       -5.593874   -2.340818    1.259648
     21          6           0       -3.698063   -1.697880    0.079742
     22          6           0        2.218693    2.898520   -0.018589
     23          6           0       -5.071393   -1.369134    0.345049
     24          6           0        5.123174    0.560283   -0.440299
     25          6           0       -2.695766   -1.051186   -0.518691
     26          6           0       -1.574281   -3.703491   -1.763835
     27          6           0       -4.619833   -3.527116    1.274551
     28          6           0        1.723583   -4.694739   -0.835174
     29          6           0        5.547548   -0.300989    0.802393
     30          6           0        4.649562    3.688534    0.524445
     31          6           0        1.510506    4.042551    0.139363
     32          6           0       -7.127918   -2.846871    1.037579
     33          6           0       -5.879161   -0.402252   -0.116361
     34          6           0        0.156830    4.076389    0.172573
     35          6           0       -0.720324    5.238102    0.452082
     36          6           0       -2.005185    4.830040    0.389671
     37          6           0        2.633508   -4.224597    0.304004
     38          6           0       -5.424266    0.657546   -1.111073
     39          6           0        6.827466   -0.941636    0.723858
     40          6           0       -3.237833    5.599250    0.457934
     41          6           0       -1.892334    3.281154   -0.004411
     42          6           0       -0.385582    6.681107    0.815788
     43          6           0       -3.836939    5.933082   -0.914630
     44          1           0       -0.392222    0.450582   -0.215982
     45          1           0        2.987542   -1.403370   -0.933866
     46          1           0        2.408610   -3.217487   -2.052535
     47          1           0        1.097206   -4.114556   -2.776450
     48          1           0       -5.765470   -2.131304    2.345962
     49          1           0        5.095188   -0.430832   -1.056760
     50          1           0        5.959599    0.982809   -0.908013
     51          1           0       -2.895064   -0.082244   -0.598653
     52          1           0        0.595110    1.742621   -0.623030
     53          1           0       -1.696087   -4.515232   -1.037423
     54          1           0       -2.713007   -3.431591   -2.218849
     55          1           0       -1.153370   -4.258134   -2.498836
     56          1           0       -2.773900   -3.528424    0.425115
     57          1           0        0.805639   -5.190147   -0.492697
     58          1           0        2.234368   -5.298085   -1.385496
     59          1           0        4.720577   -1.087354    1.079410
     60          1           0        5.323445    0.377116    1.653454
     61          1           0        5.011109    4.275217   -0.337429
     62          1           0        5.748664    3.270790    0.826608
     63          1           0        4.279477    4.184923    1.529691
     64          1           0        2.068935    4.889594    0.347068
     65          1           0       -8.060534   -2.195524    1.124663
     66          1           0       -7.368160   -3.856272    1.692096
     67          1           0       -7.253346   -3.402484    0.008083
     68          1           0       -6.753289   -0.303834    0.317689
     69          1           0       -4.890961    1.631123   -0.711453
     70          1           0       -6.157382    0.955467   -1.770837
     71          1           0       -4.700489    0.226882   -1.746001
     72          1           0       -3.220124    6.458836    1.208133
     73          1           0       -4.101881    5.021633    1.170378
     74          1           0        0.326002    6.794188    1.815371
     75          1           0       -1.351296    7.335541    1.071780
     76          1           0        0.145270    6.908284   -0.112793
     77          1           0       -3.428851    6.698404   -1.715143
     78          1           0       -4.834232    6.189425   -0.684064
     79          1           0       -4.032082    5.000468   -1.306696
     80          1           0        3.161083   -4.578791    1.965835
     81          1           0        8.086666   -1.879983    1.641773
 ---------------------------------------------------------------------

 SCF Done:  E(RB3LYP) =  -1949.04263755     A.U. after   16 cycles

 Excitation energies and oscillator strengths:

 Excited State   1:      Singlet-A      2.0206 eV  613.61 nm  f=0.3943  <S**2>=0.000
     156 ->157         0.70732
 This state for optimization and/or second-order correction.
 Total Energy, E(TD-HF/TD-DFT) =  -1948.96838351
 Copying the excited state density for this state as the 1-particle RhoCI density.

 The electronic state is 1-A.
 Alpha  occ. eigenvalues --  -19.21513 -19.19312 -19.14633 -19.12721 -19.10646
 Alpha  occ. eigenvalues --  -19.09711 -14.38757 -14.36395 -14.35883 -14.29483
 Alpha  occ. eigenvalues --  -10.34619 -10.34015 -10.28173 -10.26995 -10.24697
 Alpha  occ. eigenvalues --  -10.24450 -10.24013 -10.23545 -10.23286 -10.23249
 Alpha  occ. eigenvalues --  -10.22528 -10.22358 -10.22152 -10.21992 -10.21857
 Alpha  occ. eigenvalues --  -10.21356 -10.20976 -10.20756 -10.20684 -10.20279
 Alpha  occ. eigenvalues --  -10.20250 -10.19890 -10.19757 -10.19477 -10.19311
 Alpha  occ. eigenvalues --  -10.19166 -10.18790 -10.18738 -10.18679 -10.18286
 Alpha  occ. eigenvalues --  -10.17838 -10.17755 -10.16760  -1.13859  -1.10838
 Alpha  occ. eigenvalues --   -1.02476  -1.01198  -1.01011  -0.98906  -0.96506
 Alpha  occ. eigenvalues --   -0.95705  -0.95367  -0.91452  -0.84157  -0.83283
 Alpha  occ. eigenvalues --   -0.82777  -0.82099  -0.80514  -0.79926  -0.79631
 Alpha  occ. eigenvalues --   -0.78131  -0.77129  -0.75176  -0.74469  -0.73965
 Alpha  occ. eigenvalues --   -0.72475  -0.70334  -0.69379  -0.68653  -0.68124
 Alpha  occ. eigenvalues --   -0.67315  -0.65994  -0.65618  -0.63859  -0.63228
 Alpha  occ. eigenvalues --   -0.62733  -0.61281  -0.59787  -0.58345  -0.57011
 Alpha  occ. eigenvalues --   -0.56591  -0.56138  -0.55561  -0.54598  -0.53543
 Alpha  occ. eigenvalues --   -0.52726  -0.52477  -0.52156  -0.51725  -0.51454
 Alpha  occ. eigenvalues --   -0.50158  -0.49727  -0.49087  -0.48440  -0.48122
 Alpha  occ. eigenvalues --   -0.47603  -0.47036  -0.46697  -0.46366  -0.45917
 Alpha  occ. eigenvalues --   -0.45592  -0.45361  -0.45017  -0.44907  -0.44140
 Alpha  occ. eigenvalues --   -0.43681  -0.43369  -0.42875  -0.42666  -0.42447
 Alpha  occ. eigenvalues --   -0.42365  -0.41582  -0.41326  -0.41275  -0.40979
 Alpha  occ. eigenvalues --   -0.40808  -0.40665  -0.40342  -0.39831  -0.39473
 Alpha  occ. eigenvalues --   -0.39282  -0.38925  -0.38842  -0.38560  -0.38169
 Alpha  occ. eigenvalues --   -0.37934  -0.37763  -0.37289  -0.37134  -0.36847
 Alpha  occ. eigenvalues --   -0.36408  -0.35930  -0.35679  -0.35257  -0.34768
 Alpha  occ. eigenvalues --   -0.34657  -0.34303  -0.33875  -0.33557  -0.32183
 Alpha  occ. eigenvalues --   -0.31894  -0.31572  -0.30689  -0.30305  -0.30079
 Alpha  occ. eigenvalues --   -0.28507  -0.27599  -0.26873  -0.25927  -0.25334
 Alpha  occ. eigenvalues --   -0.24923  -0.24354  -0.24095  -0.23491  -0.22344
 Alpha  occ. eigenvalues --   -0.18755
 Alpha virt. eigenvalues --   -0.10641  -0.05959  -0.04387  -0.03914  -0.02617
 Alpha virt. eigenvalues --    0.00690   0.01817   0.03080   0.03522   0.04204
 Alpha virt. eigenvalues --    0.04332   0.04430   0.04921   0.05621   0.06004

 Mulliken charges:
               1
     1  O   -0.227921
     2  O   -0.088400
     3  O   -0.107760
     4  O   -0.292178
     5  O   -0.347866
     6  O   -0.209736
     7  N   -0.119017
     8  N   -0.156647
     9  N   -0.071640
    10  N   -0.334489
    11  C   -0.036579
    12  C    0.010626
    13  C   -0.138068
    14  C    0.098597
    15  C    0.031760
    16  C    0.129883
    17  C   -0.069144
    18  C   -0.134329
    19  C    0.028051
    20  C   -0.099380
    21  C    0.090042
    22  C    0.125288
    23  C    0.079004
    24  C    0.018969
    25  C   -0.036398
    26  C    0.078968
    27  C    0.125156
    28  C    0.164995
    29  C   -0.034160
    30  C    0.014711
    31  C   -0.118252
    32  C   -0.087768
    33  C   -0.050910
    34  C    0.143648
    35  C   -0.075635
    36  C   -0.136977
    37  C    0.110515
    38  C    0.081724
    39  C    0.205617
    40  C   -0.065730
    41  C    0.167326
    42  C    0.016725
    43  C    0.087086
    44  H    0.191932
    45  H    0.039195
    46  H   -0.009559
    47  H    0.011795
    48  H    0.052793
    49  H    0.030930
    50  H    0.012120
    51  H   -0.071030
    52  H    0.149300
    53  H   -0.000191
    54  H    0.055453
    55  H   -0.036880
    56  H    0.076343
    57  H    0.020805
    58  H   -0.019828
    59  H    0.075673
    60  H    0.035352
    61  H    0.040692
    62  H    0.022533
    63  H    0.064271
    64  H   -0.067763
    65  H    0.041548
    66  H    0.046412
    67  H    0.012872
    68  H   -0.073247
    69  H    0.088342
    70  H   -0.020702
    71  H   -0.008515
    72  H    0.007043
    73  H    0.022321
    74  H    0.044252
    75  H    0.047417
    76  H    0.036614
    77  H    0.043786
    78  H   -0.018736
    79  H   -0.006294
    80  H    0.162162
    81  H    0.131084
 Sum of Mulliken charges =  -0.00000

 Dipole moment (field-independent basis, Debye):
    X=              3.2834    Y=              1.1729    Z=              0.7300  Tot=              3.5622
 Quadrupole moment (field-independent basis, Debye-Ang):
   XX=           -263.8887   YY=           -237.8386   ZZ=           -255.1759
   XY=            -20.2701   XZ=             22.6001   YZ=             12.8115

 Normal termination of Gaussian 16 at Fri Jul  5 05:28:10 2019.
