 Gaussian 16, Revision A.03,
 Gaussian 16:  ES64L-G16RevA.03 25-Dec-2016

 --------------------------
 # td=(NStates=1) B3LYP/SVP
 --------------------------

 --
 TD
 --
 Symbolic Z-matrix:
 Charge =  0 Multiplicity = 1

                         Standard orientation:
 ---------------------------------------------------------------------
 Center     Atomic      Atomic             Coordinates (Angstroms)
 Number     Number       Type             X           Y           Z
 ---------------------------------------------------------------------
      1          8           0       -4.288119   -4.636305    1.936139
      2          8           0        2.518777   -4.703394    1.413124
      3          8           0        7.117455   -1.235662    1.935637
      4          8           0        3.609498   -3.139314    0.249657
      5          8           0        7.687282   -0.669689   -0.093297
      6          8           0       -3.037761    2.512224   -0.278249
      7          7           0       -0.337386   -0.516885   -0.748742
      8          7           0        1.652732    1.747065   -0.487987
      9          7           0       -3.377309   -3.047462    0.599438
     10          7           0       -0.699193    2.933732   -0.069149
     11          6           0        0.616813   -2.457816   -1.405411
     12          6           0        0.933409   -1.133667   -1.037113
     13          6           0       -0.780069   -2.657786   -1.349812
     14          6           0       -1.324807   -1.381026   -0.807716
     15          6           0        3.803365    1.375194   -0.301676
     16          6           0        2.544286    0.742833   -0.675236
     17          6           0        2.179143   -0.577990   -1.027722
     18          6           0        3.639982    2.698232    0.021128
     19          6           0        1.650765   -3.484921   -1.906566
     20          6           0       -5.517192   -2.479271    1.393582
     21          6           0       -3.671444   -1.850010    0.021542
     22          6           0        2.169485    2.895724   -0.076131
     23          6           0       -5.039572   -1.469510    0.374213
     24          6           0        5.155230    0.643119   -0.461899
     25          6           0       -2.693792   -1.033048   -0.554435
     26          6           0       -1.509576   -3.894708   -1.820980
     27          6           0       -4.427468   -3.570077    1.483881
     28          6           0        2.048358   -4.523302   -0.905059
     29          6           0        5.372346   -0.384307    0.625333
     30          6           0        4.528787    3.699380    0.525728
     31          6           0        1.319273    4.071960    0.317251
     32          6           0       -6.892846   -3.173818    1.186430
     33          6           0       -5.920500   -0.557220   -0.146405
     34          6           0       -0.025066    3.974710    0.282873
     35          6           0       -0.920873    5.154759    0.468869
     36          6           0       -2.218233    4.676860    0.349422
     37          6           0        2.779268   -4.047247    0.277196
     38          6           0       -5.482813    0.462675   -1.126071
     39          6           0        6.874648   -0.832913    0.715346
     40          6           0       -3.550277    5.460269    0.419979
     41          6           0       -2.058620    3.193862   -0.060229
     42          6           0       -0.482335    6.479205    0.828321
     43          6           0       -4.204174    5.581436   -0.898610
     44          1           0       -0.629018    0.453461   -0.352634
     45          1           0        2.945402   -1.309413   -1.028643
     46          1           0        2.489314   -2.838199   -2.380716
     47          1           0        1.227613   -3.862926   -2.829783
     48          1           0       -5.587640   -1.932863    2.337721
     49          1           0        5.509564    0.229397   -1.520367
     50          1           0        5.867153    1.324157   -0.459690
     51          1           0       -2.916484    0.019790   -0.624554
     52          1           0        0.514466    1.863216   -0.723066
     53          1           0       -1.653495   -4.599617   -1.061329
     54          1           0       -2.591294   -3.692406   -2.098229
     55          1           0       -1.134085   -4.418462   -2.766563
     56          1           0       -2.462119   -3.527072    0.371604
     57          1           0        0.963291   -4.901889   -0.530563
     58          1           0        2.636538   -5.337247   -1.517209
     59          1           0        4.816590   -1.426222    0.308514
     60          1           0        5.021462    0.024756    1.623891
     61          1           0        4.372604    4.727975    0.157188
     62          1           0        5.656514    3.350204    0.224500
     63          1           0        4.816181    3.818558    1.821106
     64          1           0        1.864667    4.904081    0.476991
     65          1           0       -7.620283   -2.314920    1.313997
     66          1           0       -7.206167   -4.018173    1.931489
     67          1           0       -6.653525   -3.522269    0.313928
     68          1           0       -6.929872   -0.507236    0.293929
     69          1           0       -4.871289    1.356571   -0.421419
     70          1           0       -6.415322    0.936532   -1.568125
     71          1           0       -4.573526    0.080300   -1.660646
     72          1           0       -3.394782    6.428448    0.809416
     73          1           0       -4.193132    4.799664    1.209599
     74          1           0       -0.103481    6.149916    1.966718
     75          1           0       -1.389195    7.361503    0.825436
     76          1           0        0.647848    7.034816    0.189213
     77          1           0       -3.411199    6.066226   -1.512819
     78          1           0       -5.069620    6.142881   -0.783569
     79          1           0       -4.627323    4.818564   -1.396338
     80          1           0        3.144958   -4.564336    2.130985
     81          1           0        8.036699   -1.565287    2.190877
 ---------------------------------------------------------------------

 SCF Done:  E(RB3LYP) =  -1949.04950911     A.U. after   17 cycles

 Excitation energies and oscillator strengths:

 Excited State   1:      Singlet-A      1.9221 eV  645.04 nm  f=0.4178  <S**2>=0.000
     156 ->157         0.70640
     156 <-157        -0.11014
 This state for optimization and/or second-order correction.
 Total Energy, E(TD-HF/TD-DFT) =  -1948.97887216
 Copying the excited state density for this state as the 1-particle RhoCI density.

 The electronic state is 1-A.
 Alpha  occ. eigenvalues --  -19.19999 -19.17162 -19.14168 -19.13416 -19.11214
 Alpha  occ. eigenvalues --  -19.09752 -14.38624 -14.36748 -14.35514 -14.28252
 Alpha  occ. eigenvalues --  -10.34272 -10.30748 -10.30302 -10.26077 -10.25201
 Alpha  occ. eigenvalues --  -10.24563 -10.23870 -10.23226 -10.23143 -10.23085
 Alpha  occ. eigenvalues --  -10.22325 -10.21703 -10.21499 -10.21359 -10.20941
 Alpha  occ. eigenvalues --  -10.20924 -10.20894 -10.20873 -10.20550 -10.20500
 Alpha  occ. eigenvalues --  -10.20410 -10.19728 -10.19606 -10.19605 -10.19597
 Alpha  occ. eigenvalues --  -10.19011 -10.18804 -10.18676 -10.18417 -10.18190
 Alpha  occ. eigenvalues --  -10.17369 -10.16960 -10.15326  -1.11438  -1.10107
 Alpha  occ. eigenvalues --   -1.07400  -1.01657  -1.01177  -1.01117  -0.98739
 Alpha  occ. eigenvalues --   -0.97688  -0.95417  -0.92449  -0.83457  -0.82550
 Alpha  occ. eigenvalues --   -0.80927  -0.80474  -0.78710  -0.78617  -0.78289
 Alpha  occ. eigenvalues --   -0.76913  -0.75714  -0.75169  -0.74328  -0.72561
 Alpha  occ. eigenvalues --   -0.70401  -0.69993  -0.69592  -0.67663  -0.66690
 Alpha  occ. eigenvalues --   -0.66216  -0.65333  -0.63865  -0.62790  -0.61431
 Alpha  occ. eigenvalues --   -0.60973  -0.59489  -0.59082  -0.58068  -0.56811
 Alpha  occ. eigenvalues --   -0.56097  -0.55295  -0.54234  -0.53716  -0.52475
 Alpha  occ. eigenvalues --   -0.51769  -0.51455  -0.50922  -0.50512  -0.50020
 Alpha  occ. eigenvalues --   -0.49712  -0.48982  -0.48456  -0.47507  -0.47121
 Alpha  occ. eigenvalues --   -0.46825  -0.46366  -0.46066  -0.45760  -0.45316
 Alpha  occ. eigenvalues --   -0.44897  -0.44636  -0.44428  -0.44161  -0.44100
 Alpha  occ. eigenvalues --   -0.43459  -0.43348  -0.42999  -0.42682  -0.42240
 Alpha  occ. eigenvalues --   -0.42094  -0.41757  -0.41632  -0.40917  -0.40618
 Alpha  occ. eigenvalues --   -0.40520  -0.40340  -0.40160  -0.39918  -0.39490
 Alpha  occ. eigenvalues --   -0.38473  -0.38348  -0.38111  -0.37990  -0.37739
 Alpha  occ. eigenvalues --   -0.37461  -0.37204  -0.36994  -0.36890  -0.36420
 Alpha  occ. eigenvalues --   -0.35667  -0.35610  -0.35156  -0.35100  -0.34545
 Alpha  occ. eigenvalues --   -0.34042  -0.33943  -0.33542  -0.33025  -0.32408
 Alpha  occ. eigenvalues --   -0.32091  -0.31654  -0.31430  -0.30393  -0.29636
 Alpha  occ. eigenvalues --   -0.27942  -0.27168  -0.27028  -0.26099  -0.25327
 Alpha  occ. eigenvalues --   -0.24389  -0.23979  -0.22953  -0.22009  -0.21064
 Alpha  occ. eigenvalues --   -0.17330
 Alpha virt. eigenvalues --   -0.09663  -0.05186  -0.03916  -0.02934  -0.00809
 Alpha virt. eigenvalues --    0.02135   0.02424   0.02810   0.03579   0.03771
 Alpha virt. eigenvalues --    0.03928   0.04195   0.04360   0.05434   0.05838

 Mulliken charges:
               1
     1  O   -0.127014
     2  O   -0.163672
     3  O   -0.192596
     4  O   -0.232241
     5  O   -0.174830
     6  O   -0.220245
     7  N   -0.106000
     8  N   -0.107789
     9  N   -0.184733
    10  N   -0.295185
    11  C   -0.146037
    12  C    0.133881
    13  C   -0.161015
    14  C    0.037339
    15  C   -0.083696
    16  C    0.070710
    17  C   -0.047571
    18  C   -0.043940
    19  C    0.092454
    20  C   -0.083613
    21  C    0.094746
    22  C   -0.020570
    23  C   -0.049309
    24  C    0.153227
    25  C   -0.103663
    26  C    0.058528
    27  C    0.143482
    28  C    0.002125
    29  C   -0.111130
    30  C   -0.052632
    31  C   -0.066983
    32  C    0.056477
    33  C   -0.113385
    34  C    0.160448
    35  C   -0.041137
    36  C   -0.203933
    37  C    0.146929
    38  C   -0.017995
    39  C    0.089680
    40  C    0.082244
    41  C    0.155267
    42  C   -0.121264
    43  C    0.091394
    44  H    0.181565
    45  H   -0.008128
    46  H    0.023917
    47  H    0.000810
    48  H    0.040160
    49  H    0.023650
    50  H   -0.075934
    51  H   -0.000789
    52  H    0.201762
    53  H    0.010491
    54  H    0.025046
    55  H    0.036363
    56  H    0.143047
    57  H    0.059039
    58  H    0.079363
    59  H    0.106181
    60  H    0.040603
    61  H    0.038352
    62  H    0.028800
    63  H    0.042203
    64  H   -0.090156
    65  H    0.034927
    66  H    0.052279
    67  H   -0.010509
    68  H   -0.002116
    69  H    0.117223
    70  H    0.031856
    71  H    0.046336
    72  H   -0.025665
    73  H    0.016809
    74  H    0.066076
    75  H    0.060140
    76  H    0.048200
    77  H    0.011265
    78  H   -0.024966
    79  H   -0.014764
    80  H    0.193970
    81  H    0.195840
 Sum of Mulliken charges =  -0.00000

 Dipole moment (field-independent basis, Debye):
    X=              0.1820    Y=             -3.6215    Z=              1.0219  Tot=              3.7673
 Quadrupole moment (field-independent basis, Debye-Ang):
   XX=           -243.9210   YY=           -239.8851   ZZ=           -251.2913
   XY=            -14.5419   XZ=             14.9775   YZ=              8.2002

 Normal termination of Gaussian 16 at Fri Jul  5 19:31:46 2019.
