 Gaussian 16, Revision A.03,
 Gaussian 16:  ES64L-G16RevA.03 25-Dec-2016

 --------------------------
 # td=(NStates=1) B3LYP/SVP
 --------------------------

 --
 TD
 --
 Symbolic Z-matrix:
 Charge =  0 Multiplicity = 1

                         Standard orientation:
 ---------------------------------------------------------------------
 Center     Atomic      Atomic             Coordinates (Angstroms)
 Number     Number       Type             X           Y           Z
 ---------------------------------------------------------------------
      1          8           0        4.588793   -4.634660   -1.962102
      2          8           0       -2.855036   -4.977078   -1.151340
      3          8           0       -7.044546   -1.735986   -1.697236
      4          8           0       -3.760031   -3.279432   -0.076532
      5          8           0       -7.630664   -0.586532    0.142869
      6          8           0        3.019852    2.431296    0.292192
      7          7           0        0.250098   -0.496145    0.555556
      8          7           0       -1.596765    1.787872    0.258577
      9          7           0        3.446019   -3.048911   -0.709729
     10          7           0        0.747333    2.867244    0.004696
     11          6           0       -0.597000   -2.443024    1.368225
     12          6           0       -0.973718   -1.204462    0.923774
     13          6           0        0.782607   -2.517110    1.291732
     14          6           0        1.287375   -1.430728    0.721058
     15          6           0       -3.802216    1.428849    0.396406
     16          6           0       -2.569190    0.764468    0.505557
     17          6           0       -2.279825   -0.523777    0.853576
     18          6           0       -3.637512    2.720515   -0.142169
     19          6           0       -1.537624   -3.471491    1.913109
     20          6           0        5.585496   -2.512241   -1.307712
     21          6           0        3.659820   -1.848901   -0.148304
     22          6           0       -2.226125    2.929505   -0.099216
     23          6           0        5.068704   -1.553100   -0.352515
     24          6           0       -5.122761    0.675665    0.481529
     25          6           0        2.622335   -1.005636    0.455338
     26          6           0        1.604904   -3.689654    1.756239
     27          6           0        4.443141   -3.562926   -1.370803
     28          6           0       -1.826354   -4.572214    0.888723
     29          6           0       -5.440610   -0.075576   -0.871049
     30          6           0       -4.667297    3.804696   -0.470764
     31          6           0       -1.401330    4.042778   -0.332647
     32          6           0        6.994498   -3.131971   -1.052871
     33          6           0        5.793732   -0.502271    0.205729
     34          6           0        0.076412    4.013849   -0.300880
     35          6           0        0.958218    5.183013   -0.479649
     36          6           0        2.211522    4.696424   -0.209904
     37          6           0       -2.878338   -4.089908   -0.115067
     38          6           0        5.349056    0.500710    1.237775
     39          6           0       -6.757360   -0.797561   -0.654156
     40          6           0        3.508475    5.354204   -0.369256
     41          6           0        2.060760    3.224928   -0.064535
     42          6           0        0.478495    6.446524   -0.813745
     43          6           0        4.117740    5.720204    1.007387
     44          1           0        0.396642    0.281489   -0.135472
     45          1           0       -2.987674   -1.359552    1.010601
     46          1           0       -2.370935   -3.024947    2.248180
     47          1           0       -1.175956   -3.858190    2.848113
     48          1           0        5.594313   -1.832618   -2.210366
     49          1           0       -4.985465    0.110906    1.318735
     50          1           0       -6.155506    1.338356    0.778302
     51          1           0        2.930812    0.049892    0.529493
     52          1           0       -0.550392    1.841327    0.584048
     53          1           0        1.817908   -4.397366    1.076997
     54          1           0        2.699161   -3.485790    2.112174
     55          1           0        1.091144   -4.334236    2.575910
     56          1           0        2.556638   -3.507777   -0.937234
     57          1           0       -0.799651   -4.879009    0.572857
     58          1           0       -2.368389   -5.291494    1.511317
     59          1           0       -4.705351   -0.784996   -1.273997
     60          1           0       -5.324695    0.534737   -1.814877
     61          1           0       -4.686807    4.661741    0.209671
     62          1           0       -5.718575    3.407588   -0.352006
     63          1           0       -4.441027    4.397144   -1.431112
     64          1           0       -1.767588    4.973993   -0.706622
     65          1           0        7.945643   -2.482388   -1.178450
     66          1           0        7.155065   -3.974653   -1.897081
     67          1           0        7.247391   -3.541914   -0.085543
     68          1           0        6.750586   -0.245161   -0.085404
     69          1           0        4.850326    1.195839    0.620830
     70          1           0        6.153007    0.805409    1.790394
     71          1           0        4.589185    0.009122    1.679804
     72          1           0        3.353966    6.406707   -0.837265
     73          1           0        4.263512    4.700668   -0.865969
     74          1           0        0.331446    6.669315   -2.015584
     75          1           0        1.418889    7.277239   -0.680863
     76          1           0       -0.320301    6.879439   -0.290432
     77          1           0        3.594118    6.725410    1.600834
     78          1           0        5.344209    5.701088    1.057417
     79          1           0        4.035437    4.754437    1.652389
     80          1           0       -3.596840   -4.681348   -1.759994
     81          1           0       -7.954164   -1.994359   -1.471792
 ---------------------------------------------------------------------

 SCF Done:  E(RB3LYP) =  -1949.10176189     A.U. after   17 cycles

 Excitation energies and oscillator strengths:

 Excited State   1:      Singlet-A      1.7223 eV  719.88 nm  f=0.2794  <S**2>=0.000
     156 ->157         0.70503
     156 <-157        -0.10243
 This state for optimization and/or second-order correction.
 Total Energy, E(TD-HF/TD-DFT) =  -1949.03846904
 Copying the excited state density for this state as the 1-particle RhoCI density.

 The electronic state is 1-A.
 Alpha  occ. eigenvalues --  -19.18841 -19.16679 -19.15390 -19.14015 -19.10819
 Alpha  occ. eigenvalues --  -19.09748 -14.38898 -14.36510 -14.35548 -14.29311
 Alpha  occ. eigenvalues --  -10.34108 -10.32774 -10.28953 -10.26273 -10.25346
 Alpha  occ. eigenvalues --  -10.24097 -10.23704 -10.23451 -10.23421 -10.22790
 Alpha  occ. eigenvalues --  -10.22460 -10.22287 -10.22276 -10.21588 -10.21239
 Alpha  occ. eigenvalues --  -10.21182 -10.21099 -10.20991 -10.20535 -10.20286
 Alpha  occ. eigenvalues --  -10.19883 -10.19869 -10.19857 -10.19795 -10.19665
 Alpha  occ. eigenvalues --  -10.19598 -10.19543 -10.19423 -10.19378 -10.19229
 Alpha  occ. eigenvalues --  -10.19193 -10.18799 -10.15229  -1.11359  -1.08648
 Alpha  occ. eigenvalues --   -1.04592  -1.01895  -0.99647  -0.98414  -0.97887
 Alpha  occ. eigenvalues --   -0.97464  -0.96291  -0.91374  -0.83655  -0.82416
 Alpha  occ. eigenvalues --   -0.82383  -0.80920  -0.80748  -0.78962  -0.78044
 Alpha  occ. eigenvalues --   -0.77254  -0.76508  -0.75859  -0.74580  -0.72661
 Alpha  occ. eigenvalues --   -0.71333  -0.69815  -0.69316  -0.68813  -0.67731
 Alpha  occ. eigenvalues --   -0.67480  -0.65676  -0.64829  -0.63293  -0.60945
 Alpha  occ. eigenvalues --   -0.59822  -0.59337  -0.58806  -0.58013  -0.57422
 Alpha  occ. eigenvalues --   -0.56332  -0.56053  -0.55588  -0.54347  -0.53621
 Alpha  occ. eigenvalues --   -0.52965  -0.52178  -0.51301  -0.50533  -0.50235
 Alpha  occ. eigenvalues --   -0.49900  -0.48858  -0.48742  -0.48359  -0.47950
 Alpha  occ. eigenvalues --   -0.47169  -0.46998  -0.46639  -0.45807  -0.45714
 Alpha  occ. eigenvalues --   -0.45318  -0.44518  -0.44376  -0.44061  -0.43844
 Alpha  occ. eigenvalues --   -0.43609  -0.43051  -0.42786  -0.42747  -0.42019
 Alpha  occ. eigenvalues --   -0.41862  -0.41529  -0.41247  -0.41035  -0.40949
 Alpha  occ. eigenvalues --   -0.40491  -0.40297  -0.40244  -0.39956  -0.39601
 Alpha  occ. eigenvalues --   -0.39480  -0.39425  -0.39057  -0.38641  -0.38276
 Alpha  occ. eigenvalues --   -0.38092  -0.37722  -0.37400  -0.36652  -0.36557
 Alpha  occ. eigenvalues --   -0.36396  -0.36183  -0.35698  -0.35183  -0.34763
 Alpha  occ. eigenvalues --   -0.34232  -0.34055  -0.33866  -0.33724  -0.32664
 Alpha  occ. eigenvalues --   -0.32367  -0.32048  -0.31204  -0.30658  -0.29810
 Alpha  occ. eigenvalues --   -0.29189  -0.27811  -0.26553  -0.25845  -0.25796
 Alpha  occ. eigenvalues --   -0.25248  -0.24551  -0.24152  -0.23271  -0.21204
 Alpha  occ. eigenvalues --   -0.18181
 Alpha virt. eigenvalues --   -0.11081  -0.06966  -0.04894  -0.01952  -0.01479
 Alpha virt. eigenvalues --   -0.00064   0.01710   0.02789   0.02926   0.03734
 Alpha virt. eigenvalues --    0.04169   0.04470   0.05603   0.05948   0.06279

 Mulliken charges:
               1
     1  O   -0.228248
     2  O   -0.208768
     3  O   -0.248927
     4  O   -0.205131
     5  O   -0.210804
     6  O   -0.286472
     7  N   -0.175521
     8  N   -0.160678
     9  N    0.008432
    10  N   -0.271650
    11  C   -0.101191
    12  C   -0.006950
    13  C   -0.122104
    14  C    0.099721
    15  C   -0.102831
    16  C    0.171186
    17  C   -0.051574
    18  C   -0.105368
    19  C    0.150713
    20  C   -0.050959
    21  C    0.006945
    22  C    0.144840
    23  C   -0.018112
    24  C    0.069739
    25  C   -0.102058
    26  C    0.074347
    27  C    0.074627
    28  C    0.054578
    29  C    0.011257
    30  C    0.071418
    31  C   -0.109991
    32  C    0.000097
    33  C   -0.190888
    34  C    0.033006
    35  C   -0.017725
    36  C   -0.128074
    37  C    0.133031
    38  C    0.211459
    39  C    0.185248
    40  C    0.082235
    41  C    0.168754
    42  C   -0.018889
    43  C   -0.127397
    44  H    0.164446
    45  H    0.015159
    46  H   -0.046837
    47  H   -0.006652
    48  H    0.057926
    49  H   -0.002797
    50  H    0.057123
    51  H    0.022673
    52  H    0.190644
    53  H   -0.024676
    54  H    0.036814
    55  H    0.011924
    56  H    0.143905
    57  H    0.052891
    58  H    0.049208
    59  H    0.026952
    60  H    0.050293
    61  H    0.017945
    62  H    0.026344
    63  H    0.030901
    64  H   -0.045602
    65  H    0.015222
    66  H    0.047681
    67  H    0.009979
    68  H   -0.035162
    69  H    0.050049
    70  H   -0.005948
    71  H   -0.019426
    72  H    0.013784
    73  H    0.028046
    74  H    0.049479
    75  H    0.021265
    76  H    0.028609
    77  H    0.044718
    78  H    0.023614
    79  H    0.034609
    80  H    0.192150
    81  H    0.171422
 Sum of Mulliken charges =  -0.00000

 Dipole moment (field-independent basis, Debye):
    X=             -3.0039    Y=              0.8886    Z=             -0.3364  Tot=              3.1506
 Quadrupole moment (field-independent basis, Debye-Ang):
   XX=           -258.8084   YY=           -242.6988   ZZ=           -256.0862
   XY=             12.0690   XZ=             11.4118   YZ=            -18.2095

 Normal termination of Gaussian 16 at Mon Jul  1 16:19:11 2019.
