 Gaussian 16, Revision A.03,
 Gaussian 16:  ES64L-G16RevA.03 25-Dec-2016

 --------------------------
 # td=(NStates=1) B3LYP/SVP
 --------------------------

 --
 TD
 --
 Symbolic Z-matrix:
 Charge =  0 Multiplicity = 1

                         Standard orientation:
 ---------------------------------------------------------------------
 Center     Atomic      Atomic             Coordinates (Angstroms)
 Number     Number       Type             X           Y           Z
 ---------------------------------------------------------------------
      1          8           0       -4.473855   -4.727051    1.901956
      2          8           0        3.048614   -4.839191    1.071330
      3          8           0        6.893339   -1.670690    1.942128
      4          8           0        3.777193   -3.236557   -0.317753
      5          8           0        7.755908   -0.445718    0.309158
      6          8           0       -3.008027    2.503055   -0.357532
      7          7           0       -0.297102   -0.557195   -0.650969
      8          7           0        1.541042    1.763779   -0.446603
      9          7           0       -3.384347   -3.218310    0.675209
     10          7           0       -0.655996    2.983548   -0.087801
     11          6           0        0.609686   -2.459444   -1.379328
     12          6           0        0.914630   -1.086003   -0.896772
     13          6           0       -0.665178   -2.670909   -1.187712
     14          6           0       -1.328073   -1.496558   -0.696634
     15          6           0        3.775023    1.445878   -0.312010
     16          6           0        2.575707    0.910141   -0.666142
     17          6           0        2.227088   -0.460695   -0.854182
     18          6           0        3.566719    2.751819    0.077531
     19          6           0        1.641714   -3.451094   -2.026789
     20          6           0       -5.665808   -2.725363    1.406306
     21          6           0       -3.610546   -1.907342    0.168998
     22          6           0        2.142943    2.947637   -0.152271
     23          6           0       -5.087055   -1.572435    0.493753
     24          6           0        5.050875    0.673589   -0.300951
     25          6           0       -2.704358   -1.112051   -0.346125
     26          6           0       -1.448358   -3.907058   -1.651010
     27          6           0       -4.493803   -3.756269    1.348690
     28          6           0        2.067803   -4.554517   -1.085513
     29          6           0        5.385048   -0.192652    0.912281
     30          6           0        4.579406    3.810546    0.538674
     31          6           0        1.344481    4.166334    0.020215
     32          6           0       -7.022235   -3.247958    1.000781
     33          6           0       -5.780481   -0.523806   -0.038342
     34          6           0       -0.007239    4.125854    0.221655
     35          6           0       -0.913314    5.257742    0.465492
     36          6           0       -2.211088    4.792529    0.207791
     37          6           0        3.012742   -4.118917   -0.086659
     38          6           0       -5.558571    0.620103   -0.984311
     39          6           0        6.778472   -0.727955    0.964916
     40          6           0       -3.517809    5.311280    0.452936
     41          6           0       -2.113483    3.310967   -0.044062
     42          6           0       -0.588738    6.607190    0.737656
     43          6           0       -4.318124    5.641346   -0.852401
     44          1           0       -0.285616    0.346191   -0.071175
     45          1           0        2.957784   -1.107972   -1.183070
     46          1           0        2.568205   -2.795667   -2.413776
     47          1           0        1.270204   -3.897889   -2.744127
     48          1           0       -5.753466   -2.395440    2.598578
     49          1           0        5.103023   -0.048952   -1.162066
     50          1           0        5.848101    1.402533   -0.745491
     51          1           0       -2.738206    0.107746   -0.305679
     52          1           0        0.542794    1.782282   -0.789281
     53          1           0       -1.532666   -4.623716   -1.048883
     54          1           0       -2.559438   -3.648136   -1.853761
     55          1           0       -0.953334   -4.345239   -2.522700
     56          1           0       -2.696033   -3.838895    0.725791
     57          1           0        1.092444   -5.014814   -0.747970
     58          1           0        2.464104   -5.364815   -1.672888
     59          1           0        4.794186   -0.984236    0.865039
     60          1           0        5.189098    0.224961    1.938888
     61          1           0        4.649475    4.659800   -0.206399
     62          1           0        5.642737    3.421071    0.730035
     63          1           0        4.271120    4.507514    1.417767
     64          1           0        1.665148    5.383006    0.131883
     65          1           0       -7.792518   -2.457647    0.923042
     66          1           0       -7.256526   -4.098962    1.675351
     67          1           0       -7.150856   -3.867700    0.086015
     68          1           0       -6.794722   -0.475607    0.489058
     69          1           0       -5.151876    1.598247   -0.540643
     70          1           0       -6.326162    0.997341   -1.631151
     71          1           0       -4.861328    0.441718   -1.769111
     72          1           0       -3.529747    6.199612    1.068084
     73          1           0       -3.965887    4.531864    1.006008
     74          1           0        0.105935    6.746410    1.564367
     75          1           0       -1.524787    7.123135    0.768338
     76          1           0        0.100568    7.087827    0.060388
     77          1           0       -3.782877    6.624906   -1.375805
     78          1           0       -5.394974    5.910453   -0.491608
     79          1           0       -4.118762    4.730367   -1.580133
     80          1           0        3.855203   -4.592494    1.581835
     81          1           0        7.850652   -2.153901    1.663337
 ---------------------------------------------------------------------

 SCF Done:  E(RB3LYP) =  -1949.05779622     A.U. after   17 cycles

 Excitation energies and oscillator strengths:

 Excited State   1:      Singlet-A      1.7821 eV  695.72 nm  f=0.3395  <S**2>=0.000
     156 ->157         0.70543
     156 <-157        -0.13190
 This state for optimization and/or second-order correction.
 Total Energy, E(TD-HF/TD-DFT) =  -1948.99230548
 Copying the excited state density for this state as the 1-particle RhoCI density.

 The electronic state is 1-A.
 Alpha  occ. eigenvalues --  -19.19281 -19.18125 -19.14234 -19.12604 -19.12146
 Alpha  occ. eigenvalues --  -19.10383 -14.38672 -14.36139 -14.36118 -14.27330
 Alpha  occ. eigenvalues --  -10.33230 -10.31755 -10.28927 -10.26033 -10.24992
 Alpha  occ. eigenvalues --  -10.24406 -10.24198 -10.23641 -10.22366 -10.22269
 Alpha  occ. eigenvalues --  -10.21558 -10.21358 -10.21196 -10.21083 -10.20850
 Alpha  occ. eigenvalues --  -10.20752 -10.20641 -10.20463 -10.20419 -10.20231
 Alpha  occ. eigenvalues --  -10.20133 -10.20060 -10.19803 -10.19712 -10.19631
 Alpha  occ. eigenvalues --  -10.19374 -10.19218 -10.19208 -10.19203 -10.18209
 Alpha  occ. eigenvalues --  -10.18026 -10.17512 -10.17437  -1.11101  -1.09794
 Alpha  occ. eigenvalues --   -1.08558  -1.02545  -0.99607  -0.99342  -0.98904
 Alpha  occ. eigenvalues --   -0.98626  -0.95117  -0.89369  -0.83509  -0.82670
 Alpha  occ. eigenvalues --   -0.81143  -0.80731  -0.80098  -0.79071  -0.78459
 Alpha  occ. eigenvalues --   -0.77760  -0.76369  -0.75257  -0.74166  -0.72372
 Alpha  occ. eigenvalues --   -0.71445  -0.70082  -0.69642  -0.68321  -0.67858
 Alpha  occ. eigenvalues --   -0.67219  -0.65538  -0.65049  -0.61775  -0.61279
 Alpha  occ. eigenvalues --   -0.60197  -0.58521  -0.58346  -0.57454  -0.57118
 Alpha  occ. eigenvalues --   -0.56308  -0.55582  -0.55251  -0.54307  -0.53634
 Alpha  occ. eigenvalues --   -0.53293  -0.51725  -0.50815  -0.50164  -0.49800
 Alpha  occ. eigenvalues --   -0.49595  -0.49428  -0.48890  -0.48337  -0.47652
 Alpha  occ. eigenvalues --   -0.47234  -0.46998  -0.46010  -0.45799  -0.45573
 Alpha  occ. eigenvalues --   -0.44953  -0.44677  -0.44400  -0.44091  -0.43635
 Alpha  occ. eigenvalues --   -0.43592  -0.43043  -0.42820  -0.42300  -0.41903
 Alpha  occ. eigenvalues --   -0.41764  -0.41560  -0.41428  -0.40830  -0.40720
 Alpha  occ. eigenvalues --   -0.40560  -0.40242  -0.39924  -0.39899  -0.39752
 Alpha  occ. eigenvalues --   -0.39518  -0.39321  -0.39058  -0.38658  -0.38427
 Alpha  occ. eigenvalues --   -0.38347  -0.37866  -0.37749  -0.37248  -0.36673
 Alpha  occ. eigenvalues --   -0.36431  -0.35983  -0.35707  -0.35534  -0.34709
 Alpha  occ. eigenvalues --   -0.34644  -0.34097  -0.33558  -0.33375  -0.32949
 Alpha  occ. eigenvalues --   -0.31920  -0.31834  -0.31490  -0.30075  -0.29286
 Alpha  occ. eigenvalues --   -0.28115  -0.27338  -0.27095  -0.27030  -0.26487
 Alpha  occ. eigenvalues --   -0.25887  -0.24892  -0.23092  -0.22409  -0.20622
 Alpha  occ. eigenvalues --   -0.17295
 Alpha virt. eigenvalues --   -0.10294  -0.05801  -0.03330  -0.01509   0.00063
 Alpha virt. eigenvalues --    0.00375   0.02006   0.02523   0.03557   0.03789
 Alpha virt. eigenvalues --    0.04283   0.04483   0.05087   0.05739   0.06160

 Mulliken charges:
               1
     1  O   -0.102496
     2  O   -0.200097
     3  O   -0.270396
     4  O   -0.208259
     5  O   -0.227099
     6  O   -0.245363
     7  N   -0.074208
     8  N   -0.076690
     9  N   -0.119882
    10  N   -0.388174
    11  C   -0.114172
    12  C   -0.031118
    13  C   -0.153604
    14  C    0.030105
    15  C   -0.087696
    16  C    0.090144
    17  C    0.010079
    18  C   -0.099482
    19  C    0.219054
    20  C   -0.091234
    21  C    0.198170
    22  C    0.087770
    23  C   -0.038176
    24  C    0.040358
    25  C   -0.164392
    26  C    0.163278
    27  C    0.058332
    28  C    0.012743
    29  C    0.128752
    30  C    0.041128
    31  C   -0.160850
    32  C    0.038795
    33  C   -0.119472
    34  C    0.090816
    35  C   -0.092161
    36  C   -0.187975
    37  C    0.142739
    38  C    0.077851
    39  C    0.116686
    40  C    0.105407
    41  C    0.189118
    42  C    0.150260
    43  C   -0.079443
    44  H    0.168303
    45  H   -0.042106
    46  H    0.037753
    47  H   -0.104358
    48  H    0.068599
    49  H    0.009966
    50  H    0.033877
    51  H    0.094357
    52  H    0.167922
    53  H   -0.049102
    54  H    0.036107
    55  H    0.005488
    56  H    0.073211
    57  H    0.023546
    58  H    0.035517
    59  H   -0.022114
    60  H    0.044345
    61  H    0.024677
    62  H    0.041892
    63  H    0.025204
    64  H    0.002663
    65  H    0.030833
    66  H    0.021460
    67  H    0.004173
    68  H    0.006701
    69  H    0.068701
    70  H   -0.007441
    71  H   -0.001660
    72  H   -0.016482
    73  H    0.006896
    74  H   -0.002785
    75  H    0.010320
    76  H    0.002509
    77  H    0.022475
    78  H    0.036687
    79  H    0.055598
    80  H    0.195527
    81  H    0.231594
 Sum of Mulliken charges =  -0.00000

 Dipole moment (field-independent basis, Debye):
    X=              1.5627    Y=             -2.0315    Z=              0.0063  Tot=              2.5630
 Quadrupole moment (field-independent basis, Debye-Ang):
   XX=           -256.9263   YY=           -229.4928   ZZ=           -255.6230
   XY=            -13.6608   XZ=              7.7376   YZ=             14.5054

 Normal termination of Gaussian 16 at Thu Jun 27 23:02:53 2019.
