 Gaussian 16, Revision A.03,
 Gaussian 16:  ES64L-G16RevA.03 25-Dec-2016

 --------------------------
 # td=(NStates=1) B3LYP/SVP
 --------------------------

 --
 TD
 --
 Symbolic Z-matrix:
 Charge =  0 Multiplicity = 1

                         Standard orientation:
 ---------------------------------------------------------------------
 Center     Atomic      Atomic             Coordinates (Angstroms)
 Number     Number       Type             X           Y           Z
 ---------------------------------------------------------------------
      1          8           0       -4.493357   -4.690192    1.951160
      2          8           0        3.225312   -4.637307    1.518528
      3          8           0        6.935793   -1.700230    1.702855
      4          8           0        3.796469   -3.005711    0.113544
      5          8           0        7.668013   -0.604639   -0.226557
      6          8           0       -3.059165    2.560870   -0.121995
      7          7           0       -0.285806   -0.645956   -0.483550
      8          7           0        1.495691    1.744979   -0.393684
      9          7           0       -3.410670   -3.093412    0.714661
     10          7           0       -0.693607    2.906507    0.023112
     11          6           0        0.674737   -2.486306   -1.328625
     12          6           0        0.892687   -1.130143   -0.939341
     13          6           0       -0.790079   -2.660250   -1.215593
     14          6           0       -1.318934   -1.501750   -0.704601
     15          6           0        3.746712    1.427394   -0.427624
     16          6           0        2.396289    0.762100   -0.609235
     17          6           0        2.161973   -0.583986   -0.855721
     18          6           0        3.537831    2.747129   -0.107906
     19          6           0        1.641065   -3.494029   -1.735089
     20          6           0       -5.604805   -2.686771    1.159662
     21          6           0       -3.686282   -1.875098   -0.003820
     22          6           0        2.094116    2.957033   -0.087693
     23          6           0       -5.105823   -1.541780    0.186506
     24          6           0        5.074804    0.714808   -0.503157
     25          6           0       -2.730567   -1.096220   -0.650696
     26          6           0       -1.453463   -3.926354   -1.781723
     27          6           0       -4.510180   -3.673667    1.266020
     28          6           0        2.087721   -4.536916   -0.586044
     29          6           0        5.435230   -0.017333    0.836810
     30          6           0        4.487201    3.788671    0.107241
     31          6           0        1.361365    4.063247    0.179195
     32          6           0       -7.061057   -3.191437    0.865770
     33          6           0       -5.928971   -0.491665   -0.342934
     34          6           0       -0.065043    4.015951    0.189878
     35          6           0       -0.970277    5.173236    0.522175
     36          6           0       -2.202290    4.700859    0.461343
     37          6           0        3.078400   -3.893671    0.382147
     38          6           0       -5.472496    0.560972   -1.282135
     39          6           0        6.742321   -0.751069    0.628218
     40          6           0       -3.485758    5.313833    0.669780
     41          6           0       -2.048505    3.292454    0.051787
     42          6           0       -0.416686    6.491214    0.946672
     43          6           0       -4.147129    5.610472   -0.655656
     44          1           0       -0.452306    0.185889   -0.003976
     45          1           0        3.079610   -1.198633   -1.281181
     46          1           0        2.584098   -3.006846   -2.137324
     47          1           0        1.515349   -3.870301   -2.611949
     48          1           0       -5.873941   -2.283696    2.230822
     49          1           0        5.157895   -0.028233   -1.299245
     50          1           0        6.009991    1.272634   -0.757072
     51          1           0       -2.943373   -0.009417   -0.609156
     52          1           0        0.568957    1.708742   -0.733702
     53          1           0       -1.576030   -4.772941   -1.167036
     54          1           0       -2.493993   -3.721945   -1.868969
     55          1           0       -1.032091   -4.270676   -2.762748
     56          1           0       -2.508902   -3.542527    0.786038
     57          1           0        1.231473   -4.926926   -0.133237
     58          1           0        2.503680   -5.373020   -1.091442
     59          1           0        4.677317   -0.989600    0.902101
     60          1           0        5.280743    0.425919    1.690255
     61          1           0        4.091969    5.029876   -0.012850
     62          1           0        5.530798    3.687332   -0.312887
     63          1           0        4.549502    3.682814    1.280004
     64          1           0        1.963398    5.000919    0.416759
     65          1           0       -7.915012   -2.388154    1.116596
     66          1           0       -7.241421   -4.147792    1.528311
     67          1           0       -7.352781   -3.417628   -0.190049
     68          1           0       -6.956602   -0.607402   -0.222986
     69          1           0       -4.786224    1.471807   -0.848800
     70          1           0       -6.136803    1.051260   -1.692379
     71          1           0       -4.755170    0.234599   -2.178915
     72          1           0       -3.475698    6.217070    1.290158
     73          1           0       -4.047120    4.556807    1.073913
     74          1           0        0.214373    6.443907    1.769473
     75          1           0       -1.273705    7.335292    0.899925
     76          1           0        0.289575    6.666574    0.152217
     77          1           0       -3.656014    6.688009   -1.129289
     78          1           0       -5.176185    5.905776   -0.525480
     79          1           0       -4.126515    4.872262   -1.450167
     80          1           0        3.938717   -4.233244    2.083365
     81          1           0        7.784012   -1.901249    1.463174
 ---------------------------------------------------------------------

 SCF Done:  E(RB3LYP) =  -1949.08895849     A.U. after   16 cycles

 Excitation energies and oscillator strengths:

 Excited State   1:      Singlet-A      1.8833 eV  658.34 nm  f=0.3536  <S**2>=0.000
     156 ->157         0.70551
     156 <-157        -0.11454
 This state for optimization and/or second-order correction.
 Total Energy, E(TD-HF/TD-DFT) =  -1949.01974909
 Copying the excited state density for this state as the 1-particle RhoCI density.

 The electronic state is 1-A.
 Alpha  occ. eigenvalues --  -19.18939 -19.17366 -19.14708 -19.14687 -19.11243
 Alpha  occ. eigenvalues --  -19.10184 -14.37327 -14.37204 -14.36114 -14.29568
 Alpha  occ. eigenvalues --  -10.33826 -10.33431 -10.28634 -10.27143 -10.24999
 Alpha  occ. eigenvalues --  -10.24150 -10.23508 -10.23161 -10.22771 -10.22680
 Alpha  occ. eigenvalues --  -10.22629 -10.21557 -10.21335 -10.21315 -10.21191
 Alpha  occ. eigenvalues --  -10.21178 -10.21155 -10.20940 -10.20644 -10.20639
 Alpha  occ. eigenvalues --  -10.20444 -10.19865 -10.19700 -10.19474 -10.19328
 Alpha  occ. eigenvalues --  -10.19320 -10.19175 -10.19148 -10.18847 -10.18845
 Alpha  occ. eigenvalues --  -10.17911 -10.17866 -10.17378  -1.11388  -1.08150
 Alpha  occ. eigenvalues --   -1.02753  -1.02660  -1.00735  -0.99575  -0.99423
 Alpha  occ. eigenvalues --   -0.98422  -0.94395  -0.93755  -0.82902  -0.82374
 Alpha  occ. eigenvalues --   -0.81869  -0.81268  -0.80245  -0.79431  -0.78126
 Alpha  occ. eigenvalues --   -0.77287  -0.76671  -0.76051  -0.74559  -0.72556
 Alpha  occ. eigenvalues --   -0.71522  -0.70330  -0.69813  -0.69471  -0.68028
 Alpha  occ. eigenvalues --   -0.67346  -0.65343  -0.64621  -0.62473  -0.61837
 Alpha  occ. eigenvalues --   -0.61282  -0.59208  -0.58351  -0.57787  -0.57413
 Alpha  occ. eigenvalues --   -0.56942  -0.56402  -0.55780  -0.54812  -0.54354
 Alpha  occ. eigenvalues --   -0.53086  -0.52388  -0.51900  -0.50301  -0.50176
 Alpha  occ. eigenvalues --   -0.49532  -0.49234  -0.48826  -0.48463  -0.47451
 Alpha  occ. eigenvalues --   -0.46913  -0.46527  -0.46455  -0.45764  -0.45341
 Alpha  occ. eigenvalues --   -0.45216  -0.44763  -0.44648  -0.44257  -0.43791
 Alpha  occ. eigenvalues --   -0.43514  -0.43179  -0.43091  -0.42964  -0.42322
 Alpha  occ. eigenvalues --   -0.42053  -0.41296  -0.41277  -0.41156  -0.40787
 Alpha  occ. eigenvalues --   -0.40469  -0.40282  -0.40274  -0.39989  -0.39854
 Alpha  occ. eigenvalues --   -0.39665  -0.39560  -0.39453  -0.38668  -0.38559
 Alpha  occ. eigenvalues --   -0.38167  -0.37976  -0.37621  -0.37387  -0.37052
 Alpha  occ. eigenvalues --   -0.36823  -0.36337  -0.35491  -0.35109  -0.34444
 Alpha  occ. eigenvalues --   -0.34134  -0.33855  -0.33556  -0.33336  -0.32782
 Alpha  occ. eigenvalues --   -0.32339  -0.32267  -0.32137  -0.30419  -0.29994
 Alpha  occ. eigenvalues --   -0.29415  -0.28561  -0.26558  -0.25807  -0.25472
 Alpha  occ. eigenvalues --   -0.25041  -0.24832  -0.24477  -0.24003  -0.21611
 Alpha  occ. eigenvalues --   -0.17705
 Alpha virt. eigenvalues --   -0.10307  -0.06307  -0.04551  -0.02914  -0.01010
 Alpha virt. eigenvalues --   -0.00792   0.02333   0.02684   0.03553   0.04096
 Alpha virt. eigenvalues --    0.04354   0.04561   0.04732   0.05613   0.06446

 Mulliken charges:
               1
     1  O   -0.230766
     2  O   -0.210412
     3  O   -0.200284
     4  O   -0.180830
     5  O   -0.271721
     6  O   -0.243090
     7  N   -0.012158
     8  N   -0.042563
     9  N   -0.120935
    10  N   -0.247407
    11  C   -0.108175
    12  C    0.083680
    13  C   -0.158049
    14  C   -0.005392
    15  C   -0.060414
    16  C    0.039996
    17  C   -0.107809
    18  C   -0.038447
    19  C    0.142746
    20  C   -0.105346
    21  C    0.097340
    22  C    0.094940
    23  C   -0.007446
    24  C    0.067794
    25  C   -0.078798
    26  C    0.124667
    27  C    0.153788
    28  C    0.071363
    29  C   -0.008165
    30  C   -0.039797
    31  C   -0.167274
    32  C   -0.061241
    33  C   -0.056694
    34  C    0.066778
    35  C   -0.126963
    36  C   -0.185847
    37  C    0.139120
    38  C    0.062560
    39  C    0.201967
    40  C    0.199437
    41  C    0.162475
    42  C    0.152120
    43  C   -0.041919
    44  H    0.109074
    45  H    0.059009
    46  H   -0.015942
    47  H   -0.069881
    48  H    0.076960
    49  H    0.005728
    50  H    0.022638
    51  H    0.034398
    52  H    0.127192
    53  H   -0.003206
    54  H   -0.009021
    55  H    0.027259
    56  H    0.129010
    57  H    0.009760
    58  H    0.030657
    59  H    0.086063
    60  H   -0.006215
    61  H    0.055335
    62  H    0.049025
    63  H    0.044898
    64  H   -0.022735
    65  H    0.031235
    66  H    0.052615
    67  H    0.020332
    68  H   -0.023433
    69  H    0.091794
    70  H   -0.079350
    71  H    0.035287
    72  H   -0.003584
    73  H   -0.025264
    74  H    0.006671
    75  H    0.042710
    76  H    0.005182
    77  H    0.000147
    78  H    0.004049
    79  H    0.030940
    80  H    0.197317
    81  H    0.130521
 Sum of Mulliken charges =  -0.00000

 Dipole moment (field-independent basis, Debye):
    X=              2.6346    Y=              2.2042    Z=             -0.0810  Tot=              3.4360
 Quadrupole moment (field-independent basis, Debye-Ang):
   XX=           -258.5087   YY=           -242.7292   ZZ=           -255.7244
   XY=            -13.8314   XZ=             14.9142   YZ=             16.0964

 Normal termination of Gaussian 16 at Mon Jul  1 03:35:49 2019.
