 Gaussian 16, Revision A.03,
 Gaussian 16:  ES64L-G16RevA.03 25-Dec-2016

 --------------------------
 # td=(NStates=1) B3LYP/SVP
 --------------------------

 --
 TD
 --
 Symbolic Z-matrix:
 Charge =  0 Multiplicity = 1

                         Standard orientation:
 ---------------------------------------------------------------------
 Center     Atomic      Atomic             Coordinates (Angstroms)
 Number     Number       Type             X           Y           Z
 ---------------------------------------------------------------------
      1          8           0       -4.694637   -4.582823    1.973349
      2          8           0        2.749118   -4.867272    1.374164
      3          8           0        7.148167   -1.814699    1.680709
      4          8           0        3.819508   -3.263948    0.043911
      5          8           0        7.685234   -0.623554   -0.161596
      6          8           0       -2.942551    2.571064   -0.203994
      7          7           0       -0.295125   -0.582014   -0.607032
      8          7           0        1.637583    1.791163   -0.432766
      9          7           0       -3.551746   -3.149075    0.694849
     10          7           0       -0.649890    2.965569   -0.169288
     11          6           0        0.449019   -2.498874   -1.338039
     12          6           0        0.837441   -1.245219   -0.956574
     13          6           0       -0.891159   -2.630104   -1.290001
     14          6           0       -1.362246   -1.474902   -0.655530
     15          6           0        3.759537    1.286311   -0.365233
     16          6           0        2.492859    0.681426   -0.483994
     17          6           0        2.150473   -0.550381   -0.858627
     18          6           0        3.693586    2.632904   -0.008282
     19          6           0        1.504271   -3.437432   -1.911886
     20          6           0       -5.852705   -2.460210    1.282008
     21          6           0       -3.664886   -1.821138    0.092713
     22          6           0        2.229090    2.850184   -0.062756
     23          6           0       -5.090468   -1.356695    0.293946
     24          6           0        5.099846    0.584843   -0.341584
     25          6           0       -2.720919   -1.040352   -0.390562
     26          6           0       -1.677991   -3.855883   -1.633846
     27          6           0       -4.622792   -3.524229    1.410733
     28          6           0        2.033551   -4.573319   -0.926127
     29          6           0        5.482924   -0.255805    0.914514
     30          6           0        4.671892    3.636203    0.259257
     31          6           0        1.516557    4.033521    0.237868
     32          6           0       -7.251494   -3.032592    0.967656
     33          6           0       -5.854316   -0.488730   -0.371333
     34          6           0        0.015968    4.068344    0.241183
     35          6           0       -0.836199    5.249166    0.509151
     36          6           0       -2.069241    4.674571    0.447197
     37          6           0        2.939943   -4.137241    0.228708
     38          6           0       -5.334817    0.646723   -1.329178
     39          6           0        6.852777   -0.810671    0.751482
     40          6           0       -3.374168    5.410890    0.577690
     41          6           0       -1.905343    3.303975   -0.073960
     42          6           0       -0.413981    6.600600    0.914729
     43          6           0       -4.069168    5.890550   -0.845129
     44          1           0       -0.220052    0.284057   -0.087117
     45          1           0        2.915688   -1.404446   -1.081414
     46          1           0        2.432515   -2.992935   -2.334770
     47          1           0        0.862486   -3.873759   -2.642216
     48          1           0       -5.739368   -2.054805    2.249278
     49          1           0        5.222875   -0.112118   -1.185513
     50          1           0        5.804725    1.312979   -0.565399
     51          1           0       -2.964715   -0.010965   -0.593456
     52          1           0        0.555102    1.818397   -0.575439
     53          1           0       -2.056595   -4.432272   -0.827200
     54          1           0       -2.579094   -3.522646   -2.273604
     55          1           0       -1.091247   -4.431764   -2.316803
     56          1           0       -2.552317   -3.274316    1.135456
     57          1           0        1.194628   -5.032105   -0.604133
     58          1           0        2.355343   -5.365544   -1.532829
     59          1           0        4.632519   -1.044020    1.172882
     60          1           0        5.608969    0.694802    1.642376
     61          1           0        4.838618    4.401031   -0.546104
     62          1           0        5.638051    3.169524    0.298979
     63          1           0        4.433489    4.237799    1.186180
     64          1           0        1.988729    4.973113    0.458649
     65          1           0       -7.880592   -2.235937    1.119741
     66          1           0       -7.490159   -3.887367    1.662105
     67          1           0       -7.298436   -3.517950    0.073243
     68          1           0       -6.871223   -0.369236    0.002271
     69          1           0       -4.916331    1.569234   -1.118469
     70          1           0       -6.034968    0.685661   -2.111642
     71          1           0       -4.419286    0.141115   -1.958532
     72          1           0       -3.138424    6.292591    1.333526
     73          1           0       -4.107226    4.776046    1.133482
     74          1           0        0.060757    6.696875    1.880510
     75          1           0       -1.153595    7.400022    1.131010
     76          1           0        0.380884    7.135937    0.172513
     77          1           0       -3.306158    6.504473   -1.402675
     78          1           0       -4.899246    6.446108   -0.688596
     79          1           0       -4.151977    5.008893   -1.528322
     80          1           0        3.329091   -4.415358    1.970576
     81          1           0        8.085046   -2.239365    1.581606
 ---------------------------------------------------------------------

 SCF Done:  E(RB3LYP) =  -1949.12581104     A.U. after   18 cycles

 Excitation energies and oscillator strengths:

 Excited State   1:      Singlet-A      2.0542 eV  603.56 nm  f=0.3503  <S**2>=0.000
     156 ->157         0.70577
 This state for optimization and/or second-order correction.
 Total Energy, E(TD-HF/TD-DFT) =  -1949.05031947
 Copying the excited state density for this state as the 1-particle RhoCI density.

 The electronic state is 1-A.
 Alpha  occ. eigenvalues --  -19.21159 -19.17268 -19.15423 -19.12650 -19.10196
 Alpha  occ. eigenvalues --  -19.09264 -14.37689 -14.37151 -14.36400 -14.29716
 Alpha  occ. eigenvalues --  -10.35104 -10.32730 -10.28295 -10.25651 -10.24463
 Alpha  occ. eigenvalues --  -10.24265 -10.23857 -10.23661 -10.23248 -10.23115
 Alpha  occ. eigenvalues --  -10.22556 -10.22542 -10.21060 -10.20900 -10.20733
 Alpha  occ. eigenvalues --  -10.20690 -10.20641 -10.20526 -10.20460 -10.20225
 Alpha  occ. eigenvalues --  -10.20137 -10.19982 -10.19604 -10.19405 -10.19313
 Alpha  occ. eigenvalues --  -10.19236 -10.19215 -10.18996 -10.18927 -10.18697
 Alpha  occ. eigenvalues --  -10.18250 -10.17722 -10.17164  -1.11357  -1.06367
 Alpha  occ. eigenvalues --   -1.03549  -1.01942  -1.00950  -0.99539  -0.99226
 Alpha  occ. eigenvalues --   -0.97603  -0.93558  -0.92889  -0.83327  -0.83103
 Alpha  occ. eigenvalues --   -0.81910  -0.80280  -0.80167  -0.79270  -0.78154
 Alpha  occ. eigenvalues --   -0.77960  -0.75790  -0.74388  -0.73597  -0.72591
 Alpha  occ. eigenvalues --   -0.72261  -0.69903  -0.69487  -0.68860  -0.68194
 Alpha  occ. eigenvalues --   -0.67870  -0.65706  -0.64012  -0.63028  -0.62238
 Alpha  occ. eigenvalues --   -0.61417  -0.59280  -0.58766  -0.58367  -0.58080
 Alpha  occ. eigenvalues --   -0.56628  -0.55307  -0.54780  -0.54609  -0.53979
 Alpha  occ. eigenvalues --   -0.52712  -0.52113  -0.51302  -0.50835  -0.49916
 Alpha  occ. eigenvalues --   -0.49380  -0.48562  -0.48415  -0.48042  -0.46914
 Alpha  occ. eigenvalues --   -0.46832  -0.46643  -0.46261  -0.45733  -0.45489
 Alpha  occ. eigenvalues --   -0.45252  -0.44690  -0.44578  -0.44037  -0.43973
 Alpha  occ. eigenvalues --   -0.43628  -0.43318  -0.42714  -0.42617  -0.42301
 Alpha  occ. eigenvalues --   -0.42254  -0.41761  -0.41638  -0.41367  -0.41323
 Alpha  occ. eigenvalues --   -0.40453  -0.40292  -0.40066  -0.39870  -0.39363
 Alpha  occ. eigenvalues --   -0.39248  -0.39002  -0.38890  -0.38559  -0.38305
 Alpha  occ. eigenvalues --   -0.37819  -0.37681  -0.37444  -0.36953  -0.36815
 Alpha  occ. eigenvalues --   -0.36357  -0.36210  -0.35990  -0.35281  -0.34697
 Alpha  occ. eigenvalues --   -0.34501  -0.34268  -0.33650  -0.33198  -0.32901
 Alpha  occ. eigenvalues --   -0.32327  -0.31112  -0.30835  -0.30355  -0.30081
 Alpha  occ. eigenvalues --   -0.28757  -0.27670  -0.26952  -0.26401  -0.26121
 Alpha  occ. eigenvalues --   -0.25346  -0.24199  -0.24059  -0.23752  -0.22180
 Alpha  occ. eigenvalues --   -0.18897
 Alpha virt. eigenvalues --   -0.10653  -0.06410  -0.03688  -0.03288  -0.01639
 Alpha virt. eigenvalues --    0.00774   0.02047   0.03068   0.03269   0.03586
 Alpha virt. eigenvalues --    0.04214   0.04759   0.05039   0.05791   0.06391

 Mulliken charges:
               1
     1  O   -0.200464
     2  O   -0.152392
     3  O   -0.267391
     4  O   -0.263451
     5  O   -0.255918
     6  O   -0.275659
     7  N   -0.054295
     8  N   -0.050320
     9  N   -0.130618
    10  N   -0.214905
    11  C   -0.073094
    12  C   -0.072335
    13  C   -0.166265
    14  C    0.026026
    15  C   -0.090848
    16  C    0.154038
    17  C   -0.064135
    18  C   -0.111356
    19  C    0.052100
    20  C   -0.076783
    21  C    0.089823
    22  C    0.072921
    23  C   -0.014044
    24  C    0.094928
    25  C   -0.083758
    26  C    0.147026
    27  C    0.043848
    28  C    0.118387
    29  C   -0.029234
    30  C    0.101109
    31  C   -0.113595
    32  C    0.147748
    33  C   -0.127886
    34  C    0.031464
    35  C   -0.028539
    36  C   -0.163492
    37  C    0.180666
    38  C    0.054119
    39  C    0.183859
    40  C    0.026214
    41  C    0.115815
    42  C    0.034462
    43  C    0.026361
    44  H    0.128708
    45  H    0.046656
    46  H    0.034935
    47  H   -0.003766
    48  H    0.015673
    49  H    0.006274
    50  H   -0.012756
    51  H    0.023285
    52  H    0.167310
    53  H    0.026955
    54  H    0.026443
    55  H   -0.018002
    56  H    0.175475
    57  H   -0.036641
    58  H    0.021252
    59  H    0.088646
    60  H    0.058634
    61  H    0.032845
    62  H   -0.001185
    63  H    0.035990
    64  H   -0.040491
    65  H    0.006227
    66  H    0.027075
    67  H   -0.006041
    68  H   -0.002022
    69  H    0.055942
    70  H   -0.013940
    71  H    0.009219
    72  H    0.005909
    73  H    0.019158
    74  H    0.016061
    75  H    0.014152
    76  H    0.035877
    77  H    0.006271
    78  H    0.005270
    79  H    0.037219
    80  H    0.171076
    81  H    0.216170
 Sum of Mulliken charges =  -0.00000

 Dipole moment (field-independent basis, Debye):
    X=              3.4445    Y=              1.4209    Z=              1.0860  Tot=              3.8811
 Quadrupole moment (field-independent basis, Debye-Ang):
   XX=           -263.2821   YY=           -235.9338   ZZ=           -253.2478
   XY=            -12.9157   XZ=             17.0076   YZ=             13.6127

 Normal termination of Gaussian 16 at Thu Jun 27 18:12:09 2019.
