 Gaussian 16, Revision A.03,
 Gaussian 16:  ES64L-G16RevA.03 25-Dec-2016

 --------------------------
 # td=(NStates=1) B3LYP/SVP
 --------------------------

 --
 TD
 --
 Symbolic Z-matrix:
 Charge =  0 Multiplicity = 1

                         Standard orientation:
 ---------------------------------------------------------------------
 Center     Atomic      Atomic             Coordinates (Angstroms)
 Number     Number       Type             X           Y           Z
 ---------------------------------------------------------------------
      1          8           0       -4.788591   -4.590304    1.737045
      2          8           0        2.940176   -4.765490    1.485029
      3          8           0        7.214766   -1.356002    1.937395
      4          8           0        3.627973   -2.977052    0.251309
      5          8           0        7.575769   -0.870123   -0.332377
      6          8           0       -2.928558    2.458746   -0.276638
      7          7           0       -0.384322   -0.510496   -0.717737
      8          7           0        1.615370    1.652616   -0.377001
      9          7           0       -3.575037   -3.037117    0.575464
     10          7           0       -0.624351    2.861319   -0.026255
     11          6           0        0.641797   -2.438602   -1.251235
     12          6           0        0.882847   -1.156451   -0.942632
     13          6           0       -0.743781   -2.706017   -1.203604
     14          6           0       -1.344183   -1.438869   -0.824294
     15          6           0        3.885697    1.348345   -0.372608
     16          6           0        2.596692    0.720138   -0.590891
     17          6           0        2.150180   -0.590929   -0.977767
     18          6           0        3.670155    2.649321   -0.041970
     19          6           0        1.657331   -3.459344   -1.753929
     20          6           0       -5.777451   -2.377412    1.401024
     21          6           0       -3.654007   -1.853465    0.063352
     22          6           0        2.246087    2.864148   -0.045265
     23          6           0       -5.107839   -1.391266    0.379101
     24          6           0        5.146705    0.553150   -0.529377
     25          6           0       -2.658567   -1.080242   -0.539454
     26          6           0       -1.499335   -3.944227   -1.707338
     27          6           0       -4.719865   -3.500017    1.240793
     28          6           0        2.026358   -4.499240   -0.746014
     29          6           0        5.540223   -0.085760    0.719658
     30          6           0        4.687718    3.628207    0.374627
     31          6           0        1.419115    4.048725    0.184757
     32          6           0       -7.220935   -2.845803    1.012123
     33          6           0       -5.730456   -0.345190   -0.148564
     34          6           0        0.089802    4.036949    0.113405
     35          6           0       -0.927560    5.191205    0.423735
     36          6           0       -2.193969    4.546491    0.498080
     37          6           0        2.968842   -3.988929    0.380628
     38          6           0       -5.381640    0.574797   -1.344415
     39          6           0        6.933319   -0.834402    0.676095
     40          6           0       -3.600523    5.206977    0.587950
     41          6           0       -1.978757    3.162706    0.086386
     42          6           0       -0.443243    6.548055    0.838064
     43          6           0       -4.206215    5.509472   -0.898505
     44          1           0       -0.639259    0.381704   -0.087671
     45          1           0        2.953731   -1.179584   -1.095587
     46          1           0        2.589990   -2.906742   -2.161038
     47          1           0        1.275730   -4.151343   -2.513756
     48          1           0       -5.807260   -2.184568    2.511222
     49          1           0        5.034662   -0.146723   -1.307389
     50          1           0        5.970370    1.249572   -0.698422
     51          1           0       -2.996421    0.050517   -0.732786
     52          1           0        0.591336    1.797618   -0.239155
     53          1           0       -1.528261   -4.746013   -0.982023
     54          1           0       -2.685570   -3.750344   -1.713863
     55          1           0       -1.137541   -4.415653   -2.566084
     56          1           0       -2.730398   -3.778568    0.441387
     57          1           0        1.170093   -5.183531   -0.346864
     58          1           0        2.688339   -5.267464   -1.132168
     59          1           0        4.779136   -0.787508    0.988033
     60          1           0        5.471225    0.731706    1.494806
     61          1           0        4.433939    4.738951   -0.023538
     62          1           0        5.748080    3.441399    0.091620
     63          1           0        4.737907    3.929278    1.517185
     64          1           0        1.954115    4.948078    0.490605
     65          1           0       -8.045971   -2.154316    1.287031
     66          1           0       -7.618645   -3.634610    1.648591
     67          1           0       -7.306139   -3.093562    0.037285
     68          1           0       -6.835630   -0.211078   -0.114292
     69          1           0       -4.842682    1.550612   -0.831883
     70          1           0       -6.326702    1.059337   -1.682179
     71          1           0       -4.886042    0.225417   -2.142683
     72          1           0       -3.689112    5.970153    1.522073
     73          1           0       -4.245144    4.298720    0.878794
     74          1           0        0.057604    6.459937    1.816890
     75          1           0       -1.198827    7.198813    0.972293
     76          1           0        0.172219    6.795622   -0.031116
     77          1           0       -3.515431    6.202626   -1.318079
     78          1           0       -5.307053    5.838520   -0.910765
     79          1           0       -4.222190    4.527579   -1.300000
     80          1           0        3.518570   -4.270608    2.043775
     81          1           0        7.936071   -1.811530    1.222848
 ---------------------------------------------------------------------

 SCF Done:  E(RB3LYP) =  -1949.10192228     A.U. after   16 cycles

 Excitation energies and oscillator strengths:

 Excited State   1:      Singlet-A      1.9054 eV  650.69 nm  f=0.3704  <S**2>=0.000
     156 ->157         0.70371
     156 <-157        -0.11542
 This state for optimization and/or second-order correction.
 Total Energy, E(TD-HF/TD-DFT) =  -1949.03189928
 Copying the excited state density for this state as the 1-particle RhoCI density.

 The electronic state is 1-A.
 Alpha  occ. eigenvalues --  -19.20506 -19.19903 -19.16003 -19.15050 -19.12236
 Alpha  occ. eigenvalues --  -19.08651 -14.39166 -14.37857 -14.34456 -14.27759
 Alpha  occ. eigenvalues --  -10.34041 -10.33841 -10.30129 -10.25573 -10.24956
 Alpha  occ. eigenvalues --  -10.23804 -10.23333 -10.22850 -10.22720 -10.22576
 Alpha  occ. eigenvalues --  -10.22538 -10.21898 -10.21395 -10.21289 -10.21119
 Alpha  occ. eigenvalues --  -10.21118 -10.20664 -10.20244 -10.20215 -10.20163
 Alpha  occ. eigenvalues --  -10.19947 -10.19866 -10.19690 -10.19656 -10.19537
 Alpha  occ. eigenvalues --  -10.18958 -10.18762 -10.18714 -10.18078 -10.18020
 Alpha  occ. eigenvalues --  -10.18006 -10.17854 -10.17454  -1.12397  -1.11161
 Alpha  occ. eigenvalues --   -1.05544  -1.03189  -1.02354  -0.99322  -0.98290
 Alpha  occ. eigenvalues --   -0.97738  -0.96455  -0.89219  -0.83534  -0.82690
 Alpha  occ. eigenvalues --   -0.81120  -0.80700  -0.78430  -0.78332  -0.77713
 Alpha  occ. eigenvalues --   -0.76880  -0.76241  -0.74561  -0.73411  -0.72280
 Alpha  occ. eigenvalues --   -0.70676  -0.69634  -0.68815  -0.68311  -0.67847
 Alpha  occ. eigenvalues --   -0.66300  -0.65480  -0.64482  -0.62451  -0.60903
 Alpha  occ. eigenvalues --   -0.59895  -0.59108  -0.58898  -0.56956  -0.56229
 Alpha  occ. eigenvalues --   -0.55477  -0.55124  -0.54652  -0.53185  -0.52982
 Alpha  occ. eigenvalues --   -0.52324  -0.51893  -0.51576  -0.51270  -0.50638
 Alpha  occ. eigenvalues --   -0.49770  -0.49367  -0.49015  -0.48490  -0.48141
 Alpha  occ. eigenvalues --   -0.47447  -0.46982  -0.45769  -0.45699  -0.45279
 Alpha  occ. eigenvalues --   -0.44939  -0.44543  -0.44382  -0.44195  -0.43813
 Alpha  occ. eigenvalues --   -0.43576  -0.43240  -0.42819  -0.42559  -0.42371
 Alpha  occ. eigenvalues --   -0.42221  -0.41898  -0.41637  -0.41527  -0.41098
 Alpha  occ. eigenvalues --   -0.40980  -0.40481  -0.40274  -0.39883  -0.39204
 Alpha  occ. eigenvalues --   -0.38859  -0.38605  -0.38473  -0.38216  -0.37951
 Alpha  occ. eigenvalues --   -0.37840  -0.37596  -0.37347  -0.37046  -0.36874
 Alpha  occ. eigenvalues --   -0.36508  -0.36300  -0.36032  -0.34988  -0.34823
 Alpha  occ. eigenvalues --   -0.34704  -0.34521  -0.34257  -0.33833  -0.33488
 Alpha  occ. eigenvalues --   -0.32228  -0.31787  -0.31273  -0.30522  -0.30215
 Alpha  occ. eigenvalues --   -0.29784  -0.27196  -0.26813  -0.26152  -0.26103
 Alpha  occ. eigenvalues --   -0.24916  -0.24676  -0.23264  -0.22167  -0.20823
 Alpha  occ. eigenvalues --   -0.17487
 Alpha virt. eigenvalues --   -0.09911  -0.05172  -0.03468  -0.01535  -0.01400
 Alpha virt. eigenvalues --   -0.00917   0.01847   0.02390   0.02596   0.03661
 Alpha virt. eigenvalues --    0.03997   0.04461   0.05294   0.05714   0.06040

 Mulliken charges:
               1
     1  O   -0.182186
     2  O   -0.143912
     3  O   -0.247482
     4  O   -0.226551
     5  O   -0.210866
     6  O   -0.256543
     7  N   -0.134041
     8  N   -0.098295
     9  N   -0.100563
    10  N   -0.362040
    11  C   -0.067744
    12  C    0.154793
    13  C   -0.155991
    14  C    0.094548
    15  C   -0.099206
    16  C    0.027141
    17  C   -0.013703
    18  C   -0.060921
    19  C    0.133535
    20  C   -0.047329
    21  C    0.071985
    22  C    0.025945
    23  C    0.000849
    24  C    0.191097
    25  C   -0.188347
    26  C    0.071587
    27  C    0.096100
    28  C   -0.023825
    29  C   -0.017775
    30  C   -0.010259
    31  C   -0.100713
    32  C    0.089176
    33  C   -0.168318
    34  C    0.126080
    35  C   -0.140577
    36  C   -0.178380
    37  C    0.117907
    38  C    0.002774
    39  C    0.207611
    40  C   -0.010687
    41  C    0.177905
    42  C    0.170450
    43  C    0.017001
    44  H    0.211480
    45  H   -0.073608
    46  H    0.036303
    47  H   -0.000620
    48  H    0.058828
    49  H   -0.000097
    50  H   -0.013989
    51  H    0.076748
    52  H    0.129940
    53  H    0.001181
    54  H    0.040437
    55  H    0.012925
    56  H    0.180322
    57  H    0.045493
    58  H    0.029659
    59  H    0.020533
    60  H    0.030972
    61  H    0.027476
    62  H    0.024802
    63  H    0.037268
    64  H   -0.036682
    65  H    0.011356
    66  H    0.012405
    67  H   -0.009280
    68  H    0.016128
    69  H    0.108114
    70  H   -0.002704
    71  H    0.008282
    72  H    0.026725
    73  H    0.013179
    74  H    0.035598
    75  H   -0.024267
    76  H    0.026543
    77  H    0.015575
    78  H    0.020486
    79  H    0.025054
    80  H    0.162616
    81  H    0.184587
 Sum of Mulliken charges =  -0.00000

 Dipole moment (field-independent basis, Debye):
    X=              1.4888    Y=             -2.5761    Z=              0.4104  Tot=              3.0035
 Quadrupole moment (field-independent basis, Debye-Ang):
   XX=           -246.1375   YY=           -239.3430   ZZ=           -257.3995
   XY=             -6.5068   XZ=              7.6075   YZ=             14.8288

 Normal termination of Gaussian 16 at Wed Jul  3 07:06:03 2019.
