 Gaussian 16, Revision A.03,
 Gaussian 16:  ES64L-G16RevA.03 25-Dec-2016

 --------------------------
 # td=(NStates=1) B3LYP/SVP
 --------------------------

 --
 TD
 --
 Symbolic Z-matrix:
 Charge =  0 Multiplicity = 1

                         Standard orientation:
 ---------------------------------------------------------------------
 Center     Atomic      Atomic             Coordinates (Angstroms)
 Number     Number       Type             X           Y           Z
 ---------------------------------------------------------------------
      1          8           0       -4.406694   -4.618734    2.081421
      2          8           0        2.863514   -4.895680    1.118534
      3          8           0        6.890685   -1.589762    2.022116
      4          8           0        3.596915   -3.186964   -0.004617
      5          8           0        7.734048   -0.589567    0.123220
      6          8           0       -2.898894    2.455597   -0.433027
      7          7           0       -0.309584   -0.608522   -0.700912
      8          7           0        1.653044    1.774890   -0.457475
      9          7           0       -3.485418   -3.034627    0.699951
     10          7           0       -0.654019    2.811716   -0.136601
     11          6           0        0.558201   -2.448700   -1.459658
     12          6           0        0.875787   -1.171195   -0.992570
     13          6           0       -0.831020   -2.702252   -1.285764
     14          6           0       -1.329329   -1.471242   -0.775365
     15          6           0        3.850913    1.347183   -0.321663
     16          6           0        2.548518    0.750477   -0.655079
     17          6           0        2.143345   -0.570073   -0.958498
     18          6           0        3.573498    2.620274   -0.041426
     19          6           0        1.514311   -3.448084   -2.073768
     20          6           0       -5.550582   -2.459973    1.474171
     21          6           0       -3.725950   -1.767847   -0.017602
     22          6           0        2.207734    2.855698   -0.022184
     23          6           0       -5.075501   -1.430833    0.351883
     24          6           0        5.093594    0.523173   -0.414488
     25          6           0       -2.746544   -1.030198   -0.532067
     26          6           0       -1.590234   -3.906421   -1.859793
     27          6           0       -4.529056   -3.586527    1.507539
     28          6           0        1.824062   -4.564521   -1.077483
     29          6           0        5.390100   -0.147225    0.844996
     30          6           0        4.585928    3.773755    0.454957
     31          6           0        1.391932    3.983939    0.276588
     32          6           0       -6.959474   -3.083911    1.224929
     33          6           0       -5.912866   -0.517591   -0.028782
     34          6           0        0.085247    3.935880    0.199013
     35          6           0       -0.891597    5.136194    0.494063
     36          6           0       -2.113990    4.696744    0.308190
     37          6           0        2.831867   -4.155327    0.046357
     38          6           0       -5.527403    0.586186   -1.012849
     39          6           0        6.789432   -0.809834    0.919043
     40          6           0       -3.351249    5.510676    0.550727
     41          6           0       -2.015786    3.184122   -0.145860
     42          6           0       -0.360826    6.539863    0.772841
     43          6           0       -4.008146    5.957042   -0.881335
     44          1           0       -0.410583    0.265876   -0.287139
     45          1           0        3.002505   -1.269414   -1.048861
     46          1           0        2.467299   -3.110614   -2.281366
     47          1           0        0.864356   -3.926952   -2.871130
     48          1           0       -5.216367   -1.981017    2.508246
     49          1           0        5.072442   -0.284232   -1.270841
     50          1           0        5.947007    1.183175   -0.842274
     51          1           0       -3.067304    0.013929   -0.704183
     52          1           0        0.643321    1.942987   -0.366751
     53          1           0       -1.639439   -4.714417   -1.161775
     54          1           0       -2.658927   -3.582142   -1.794475
     55          1           0       -1.206166   -4.122042   -2.814825
     56          1           0       -2.560199   -3.271392    0.442626
     57          1           0        0.850797   -4.909872   -0.508939
     58          1           0        2.508567   -5.324763   -1.422902
     59          1           0        4.609694   -0.776737    1.106064
     60          1           0        5.257000    0.646221    1.638479
     61          1           0        4.784954    4.619084   -0.239288
     62          1           0        5.463862    3.282603    0.682461
     63          1           0        4.031178    3.996761    1.582254
     64          1           0        2.058309    4.922392    0.517216
     65          1           0       -7.580083   -2.026687    1.106941
     66          1           0       -7.113160   -3.680755    2.131904
     67          1           0       -6.783191   -3.653754    0.286112
     68          1           0       -7.005859   -0.302749    0.339681
     69          1           0       -5.045218    1.367834   -0.456314
     70          1           0       -6.479380    1.067372   -1.459778
     71          1           0       -4.700705    0.489857   -1.716285
     72          1           0       -3.216384    6.345613    1.070050
     73          1           0       -4.011964    4.887521    1.117956
     74          1           0        0.347999    6.394063    1.593782
     75          1           0       -1.324224    7.218023    0.877942
     76          1           0        0.236503    6.826835   -0.209756
     77          1           0       -3.119302    6.527654   -1.494102
     78          1           0       -5.073222    6.339849   -0.849755
     79          1           0       -4.413584    5.024063   -1.429458
     80          1           0        3.503636   -4.573013    1.678632
     81          1           0        7.841604   -1.831170    2.239555
 ---------------------------------------------------------------------

 SCF Done:  E(RB3LYP) =  -1949.10438018     A.U. after   15 cycles

 Excitation energies and oscillator strengths:

 Excited State   1:      Singlet-A      2.1416 eV  578.93 nm  f=0.4119  <S**2>=0.000
     156 ->157         0.70513
 This state for optimization and/or second-order correction.
 Total Energy, E(TD-HF/TD-DFT) =  -1949.02567759
 Copying the excited state density for this state as the 1-particle RhoCI density.

 The electronic state is 1-A.
 Alpha  occ. eigenvalues --  -19.19913 -19.19316 -19.13421 -19.13110 -19.11484
 Alpha  occ. eigenvalues --  -19.10147 -14.37937 -14.34929 -14.34747 -14.28495
 Alpha  occ. eigenvalues --  -10.33589 -10.33214 -10.29360 -10.26641 -10.24527
 Alpha  occ. eigenvalues --  -10.23867 -10.23499 -10.22964 -10.22908 -10.22577
 Alpha  occ. eigenvalues --  -10.22109 -10.21919 -10.21449 -10.21170 -10.21135
 Alpha  occ. eigenvalues --  -10.20843 -10.20783 -10.20544 -10.20536 -10.20475
 Alpha  occ. eigenvalues --  -10.20365 -10.20121 -10.20097 -10.20081 -10.19805
 Alpha  occ. eigenvalues --  -10.19650 -10.19597 -10.19468 -10.18886 -10.18316
 Alpha  occ. eigenvalues --  -10.18109 -10.17801 -10.17705  -1.13762  -1.08619
 Alpha  occ. eigenvalues --   -1.04539  -1.03095  -1.01117  -1.01005  -1.00459
 Alpha  occ. eigenvalues --   -0.99188  -0.93091  -0.89942  -0.83461  -0.83192
 Alpha  occ. eigenvalues --   -0.81445  -0.81251  -0.79640  -0.79044  -0.78406
 Alpha  occ. eigenvalues --   -0.78076  -0.76968  -0.74614  -0.73610  -0.72732
 Alpha  occ. eigenvalues --   -0.71220  -0.70442  -0.69570  -0.68313  -0.68058
 Alpha  occ. eigenvalues --   -0.67251  -0.65715  -0.65096  -0.63174  -0.61915
 Alpha  occ. eigenvalues --   -0.61620  -0.60668  -0.58930  -0.58126  -0.57261
 Alpha  occ. eigenvalues --   -0.56322  -0.56046  -0.55053  -0.53893  -0.52362
 Alpha  occ. eigenvalues --   -0.51849  -0.51521  -0.50988  -0.50725  -0.50320
 Alpha  occ. eigenvalues --   -0.49942  -0.49236  -0.48578  -0.48107  -0.47743
 Alpha  occ. eigenvalues --   -0.47297  -0.46910  -0.45987  -0.45890  -0.45547
 Alpha  occ. eigenvalues --   -0.45171  -0.44880  -0.44548  -0.44206  -0.43660
 Alpha  occ. eigenvalues --   -0.43399  -0.43080  -0.42703  -0.42453  -0.42273
 Alpha  occ. eigenvalues --   -0.42245  -0.41982  -0.41750  -0.41500  -0.41299
 Alpha  occ. eigenvalues --   -0.40652  -0.40542  -0.40125  -0.39693  -0.39611
 Alpha  occ. eigenvalues --   -0.39442  -0.39177  -0.38840  -0.38684  -0.38500
 Alpha  occ. eigenvalues --   -0.38222  -0.37278  -0.36957  -0.36682  -0.36400
 Alpha  occ. eigenvalues --   -0.36052  -0.35604  -0.35324  -0.35232  -0.35060
 Alpha  occ. eigenvalues --   -0.34642  -0.34287  -0.33812  -0.33392  -0.32680
 Alpha  occ. eigenvalues --   -0.32406  -0.32301  -0.31969  -0.30122  -0.28791
 Alpha  occ. eigenvalues --   -0.28478  -0.27179  -0.26800  -0.26399  -0.25964
 Alpha  occ. eigenvalues --   -0.25749  -0.25285  -0.24177  -0.23593  -0.21830
 Alpha  occ. eigenvalues --   -0.18649
 Alpha virt. eigenvalues --   -0.10069  -0.04233  -0.02981  -0.01484  -0.00526
 Alpha virt. eigenvalues --    0.01295   0.02729   0.03285   0.03654   0.03857
 Alpha virt. eigenvalues --    0.04211   0.04826   0.05291   0.05586   0.06159

 Mulliken charges:
               1
     1  O   -0.168650
     2  O   -0.087499
     3  O   -0.205491
     4  O   -0.270965
     5  O   -0.258483
     6  O   -0.164380
     7  N    0.049381
     8  N    0.011816
     9  N   -0.193573
    10  N   -0.367266
    11  C   -0.162712
    12  C    0.061810
    13  C   -0.199518
    14  C    0.007240
    15  C   -0.048589
    16  C    0.018522
    17  C   -0.047811
    18  C   -0.162829
    19  C    0.223592
    20  C   -0.143620
    21  C    0.115943
    22  C   -0.042146
    23  C    0.041890
    24  C    0.025305
    25  C   -0.088372
    26  C    0.146333
    27  C    0.151806
    28  C   -0.016362
    29  C    0.057559
    30  C    0.066461
    31  C   -0.155118
    32  C    0.034156
    33  C   -0.198314
    34  C    0.149600
    35  C   -0.099813
    36  C   -0.228710
    37  C    0.073614
    38  C    0.017675
    39  C    0.187025
    40  C    0.156109
    41  C    0.168794
    42  C    0.069725
    43  C   -0.086604
    44  H    0.104644
    45  H    0.020819
    46  H   -0.015161
    47  H    0.015202
    48  H    0.064592
    49  H    0.033681
    50  H    0.032078
    51  H    0.025127
    52  H    0.113405
    53  H    0.018293
    54  H    0.019833
    55  H    0.027031
    56  H    0.089637
    57  H    0.063920
    58  H    0.037553
    59  H    0.002061
    60  H    0.032094
    61  H    0.051252
    62  H   -0.007244
    63  H    0.047402
    64  H    0.000602
    65  H    0.048049
    66  H    0.048462
    67  H    0.040016
    68  H    0.032537
    69  H    0.041632
    70  H    0.012683
    71  H    0.031097
    72  H   -0.040073
    73  H   -0.003254
    74  H    0.035376
    75  H    0.043492
    76  H    0.046845
    77  H    0.048480
    78  H    0.015752
    79  H    0.027432
    80  H    0.152393
    81  H    0.204726
 Sum of Mulliken charges =  -0.00000

 Dipole moment (field-independent basis, Debye):
    X=              2.6708    Y=             -0.3689    Z=              1.0101  Tot=              2.8792
 Quadrupole moment (field-independent basis, Debye-Ang):
   XX=           -252.6005   YY=           -245.6120   ZZ=           -252.9816
   XY=            -17.4986   XZ=             18.1933   YZ=             13.1672

 Normal termination of Gaussian 16 at Fri Jun 28 20:59:13 2019.
