 Gaussian 16, Revision A.03,
 Gaussian 16:  ES64L-G16RevA.03 25-Dec-2016

 --------------------------
 # td=(NStates=1) B3LYP/SVP
 --------------------------

 --
 TD
 --
 Symbolic Z-matrix:
 Charge =  0 Multiplicity = 1

                         Standard orientation:
 ---------------------------------------------------------------------
 Center     Atomic      Atomic             Coordinates (Angstroms)
 Number     Number       Type             X           Y           Z
 ---------------------------------------------------------------------
      1          8           0        4.242682   -4.715419   -1.935088
      2          8           0       -2.809792   -4.701705   -1.203669
      3          8           0       -6.997076   -1.782848   -1.826799
      4          8           0       -3.755325   -3.229472    0.150598
      5          8           0       -7.734613   -0.658949   -0.007722
      6          8           0        2.911326    2.435403    0.311512
      7          7           0        0.358156   -0.484376    0.625101
      8          7           0       -1.568865    1.717505    0.219684
      9          7           0        3.306311   -2.988061   -0.783875
     10          7           0        0.700035    2.911432    0.093264
     11          6           0       -0.494480   -2.447968    1.407719
     12          6           0       -0.819099   -1.108380    1.012667
     13          6           0        0.929676   -2.548633    1.230604
     14          6           0        1.342541   -1.361165    0.817891
     15          6           0       -3.803489    1.458126    0.323259
     16          6           0       -2.513669    0.834755    0.575673
     17          6           0       -2.156555   -0.448670    0.885666
     18          6           0       -3.617746    2.725671   -0.075033
     19          6           0       -1.462008   -3.466769    1.952675
     20          6           0        5.533688   -2.616387   -1.437044
     21          6           0        3.687953   -1.696996   -0.181080
     22          6           0       -2.181721    2.936856   -0.024127
     23          6           0        5.059492   -1.461251   -0.464646
     24          6           0       -5.061888    0.583883    0.475379
     25          6           0        2.734630   -0.906352    0.526896
     26          6           0        1.695607   -3.771210    1.732385
     27          6           0        4.370863   -3.607234   -1.416240
     28          6           0       -1.914465   -4.576451    0.891424
     29          6           0       -5.419790   -0.232071   -0.755470
     30          6           0       -4.693311    3.782336   -0.429103
     31          6           0       -1.415753    4.108901   -0.177988
     32          6           0        6.973762   -3.329099   -0.979301
     33          6           0        5.815544   -0.545517   -0.004177
     34          6           0       -0.069496    3.961561   -0.221558
     35          6           0        0.886160    5.239243   -0.393025
     36          6           0        2.173579    4.752133   -0.310108
     37          6           0       -2.934868   -4.045375   -0.111707
     38          6           0        5.500812    0.453910    1.189051
     39          6           0       -6.750859   -0.876246   -0.759225
     40          6           0        3.440448    5.401397   -0.476513
     41          6           0        2.085071    3.319320    0.075847
     42          6           0        0.478068    6.514549   -0.864347
     43          6           0        4.216631    5.716118    0.862038
     44          1           0        0.734157    0.383366    0.251016
     45          1           0       -2.904893   -1.347002    1.124476
     46          1           0       -2.325903   -3.145036    2.532264
     47          1           0       -0.781599   -3.985541    2.696762
     48          1           0        5.757888   -2.446716   -2.531209
     49          1           0       -4.923808   -0.246620    1.268093
     50          1           0       -6.039108    1.255947    0.759775
     51          1           0        2.958439    0.185514    0.509824
     52          1           0       -0.556934    1.958473    0.210203
     53          1           0        1.625768   -4.432508    0.954530
     54          1           0        2.670665   -3.607360    2.032658
     55          1           0        1.029724   -4.180613    2.472213
     56          1           0        2.130121   -3.246667   -0.664845
     57          1           0       -1.043709   -5.000615    0.422204
     58          1           0       -2.536342   -5.357552    1.564665
     59          1           0       -4.708432   -0.989927   -0.748356
     60          1           0       -5.198677    0.490782   -1.640014
     61          1           0       -4.455784    4.796466    0.095062
     62          1           0       -5.646557    3.508537   -0.065027
     63          1           0       -4.678958    3.951501   -1.487143
     64          1           0       -1.885736    5.022267   -0.583854
     65          1           0        7.963022   -2.869396   -1.236268
     66          1           0        6.854680   -4.384600   -1.388108
     67          1           0        6.779516   -3.452410    0.165698
     68          1           0        6.919356   -0.514672   -0.268957
     69          1           0        5.118877    1.359435    0.786282
     70          1           0        6.357260    0.567652    1.937876
     71          1           0        4.810168   -0.049929    1.684869
     72          1           0        3.220096    6.482118   -0.970295
     73          1           0        4.129859    4.730725   -1.214945
     74          1           0       -0.020613    6.549177   -1.860056
     75          1           0        1.278256    7.201705   -1.001934
     76          1           0       -0.197349    6.774455   -0.055720
     77          1           0        3.203771    6.272612    1.527109
     78          1           0        5.181784    6.253626    0.776534
     79          1           0        4.497478    4.822321    1.251861
     80          1           0       -3.460599   -4.556024   -1.900028
     81          1           0       -7.974938   -2.082983   -1.667974
 ---------------------------------------------------------------------

 SCF Done:  E(RB3LYP) =  -1949.09659817     A.U. after   16 cycles

 Excitation energies and oscillator strengths:

 Excited State   1:      Singlet-A      1.9429 eV  638.16 nm  f=0.3203  <S**2>=0.000
     156 ->157         0.70318
 This state for optimization and/or second-order correction.
 Total Energy, E(TD-HF/TD-DFT) =  -1949.02519970
 Copying the excited state density for this state as the 1-particle RhoCI density.

 The electronic state is 1-A.
 Alpha  occ. eigenvalues --  -19.20511 -19.17524 -19.13875 -19.13022 -19.11189
 Alpha  occ. eigenvalues --  -19.09867 -14.36981 -14.36963 -14.35215 -14.29518
 Alpha  occ. eigenvalues --  -10.33304 -10.32821 -10.28773 -10.27592 -10.24224
 Alpha  occ. eigenvalues --  -10.24143 -10.23736 -10.23532 -10.23134 -10.22321
 Alpha  occ. eigenvalues --  -10.22315 -10.21952 -10.21914 -10.21880 -10.21595
 Alpha  occ. eigenvalues --  -10.21133 -10.21113 -10.20986 -10.20876 -10.20750
 Alpha  occ. eigenvalues --  -10.20672 -10.20384 -10.20349 -10.19661 -10.19516
 Alpha  occ. eigenvalues --  -10.19389 -10.19380 -10.19136 -10.18992 -10.18856
 Alpha  occ. eigenvalues --  -10.18616 -10.18240 -10.16956  -1.13720  -1.06364
 Alpha  occ. eigenvalues --   -1.03922  -1.01548  -1.01520  -0.99473  -0.98773
 Alpha  occ. eigenvalues --   -0.97306  -0.92039  -0.91107  -0.82795  -0.82200
 Alpha  occ. eigenvalues --   -0.81470  -0.80902  -0.80726  -0.78785  -0.78473
 Alpha  occ. eigenvalues --   -0.77319  -0.76373  -0.75125  -0.73495  -0.72296
 Alpha  occ. eigenvalues --   -0.71649  -0.70582  -0.69744  -0.69351  -0.67721
 Alpha  occ. eigenvalues --   -0.67121  -0.64588  -0.64249  -0.63557  -0.61859
 Alpha  occ. eigenvalues --   -0.61374  -0.59057  -0.57871  -0.57242  -0.56455
 Alpha  occ. eigenvalues --   -0.56057  -0.55532  -0.54758  -0.53285  -0.52802
 Alpha  occ. eigenvalues --   -0.51646  -0.50831  -0.50573  -0.50401  -0.50022
 Alpha  occ. eigenvalues --   -0.49748  -0.49117  -0.48518  -0.47934  -0.47049
 Alpha  occ. eigenvalues --   -0.46858  -0.46648  -0.46110  -0.45994  -0.45732
 Alpha  occ. eigenvalues --   -0.45372  -0.44732  -0.44519  -0.44198  -0.43727
 Alpha  occ. eigenvalues --   -0.43262  -0.42627  -0.42540  -0.42280  -0.41900
 Alpha  occ. eigenvalues --   -0.41869  -0.41524  -0.41447  -0.41063  -0.40921
 Alpha  occ. eigenvalues --   -0.40661  -0.40408  -0.40214  -0.39920  -0.39600
 Alpha  occ. eigenvalues --   -0.39347  -0.39263  -0.38942  -0.38704  -0.38643
 Alpha  occ. eigenvalues --   -0.38354  -0.37983  -0.37872  -0.37145  -0.36426
 Alpha  occ. eigenvalues --   -0.36390  -0.35507  -0.35206  -0.35157  -0.34532
 Alpha  occ. eigenvalues --   -0.34259  -0.34047  -0.33979  -0.33702  -0.32985
 Alpha  occ. eigenvalues --   -0.32608  -0.31477  -0.31166  -0.29725  -0.29643
 Alpha  occ. eigenvalues --   -0.27960  -0.27726  -0.26583  -0.26531  -0.25807
 Alpha  occ. eigenvalues --   -0.25290  -0.25048  -0.24991  -0.23668  -0.21478
 Alpha  occ. eigenvalues --   -0.18248
 Alpha virt. eigenvalues --   -0.10252  -0.05797  -0.04038  -0.02215  -0.00453
 Alpha virt. eigenvalues --    0.00116   0.01719   0.02403   0.03418   0.03645
 Alpha virt. eigenvalues --    0.03780   0.04480   0.05114   0.05746   0.06436

 Mulliken charges:
               1
     1  O   -0.235434
     2  O   -0.114484
     3  O   -0.271473
     4  O   -0.206247
     5  O   -0.265433
     6  O   -0.208605
     7  N   -0.025614
     8  N   -0.075444
     9  N   -0.239970
    10  N   -0.336709
    11  C   -0.087751
    12  C   -0.002734
    13  C   -0.272785
    14  C   -0.015769
    15  C   -0.044595
    16  C    0.145402
    17  C   -0.096818
    18  C   -0.147471
    19  C    0.062698
    20  C   -0.098569
    21  C    0.083031
    22  C    0.034609
    23  C    0.114000
    24  C   -0.014497
    25  C   -0.102925
    26  C    0.271081
    27  C    0.157397
    28  C   -0.011637
    29  C    0.051113
    30  C    0.124230
    31  C   -0.098442
    32  C   -0.038746
    33  C   -0.242793
    34  C    0.079606
    35  C   -0.113690
    36  C   -0.122616
    37  C    0.102374
    38  C    0.114805
    39  C    0.188779
    40  C   -0.029847
    41  C    0.186184
    42  C    0.099477
    43  C   -0.000759
    44  H    0.151436
    45  H    0.054524
    46  H    0.022558
    47  H    0.008906
    48  H    0.060255
    49  H    0.036809
    50  H    0.047227
    51  H    0.038879
    52  H    0.130458
    53  H   -0.023829
    54  H    0.013109
    55  H   -0.019381
    56  H    0.212541
    57  H    0.021598
    58  H    0.065200
    59  H    0.016818
    60  H    0.061663
    61  H    0.031937
    62  H    0.008623
    63  H    0.024302
    64  H   -0.012900
    65  H    0.048663
    66  H    0.046857
    67  H    0.028026
    68  H    0.004585
    69  H    0.052242
    70  H    0.015624
    71  H   -0.021461
    72  H    0.012422
    73  H    0.038321
    74  H    0.039201
    75  H   -0.003784
    76  H    0.032728
    77  H    0.031669
    78  H    0.024738
    79  H    0.008123
    80  H    0.187644
    81  H    0.210735
 Sum of Mulliken charges =  -0.00000

 Dipole moment (field-independent basis, Debye):
    X=             -2.1079    Y=              1.6508    Z=             -1.1496  Tot=              2.9137
 Quadrupole moment (field-independent basis, Debye-Ang):
   XX=           -258.2593   YY=           -236.1119   ZZ=           -255.2964
   XY=             17.2870   XZ=             15.3786   YZ=            -14.8831

 Normal termination of Gaussian 16 at Fri Jul  5 03:23:47 2019.
