 Gaussian 16, Revision A.03,
 Gaussian 16:  ES64L-G16RevA.03 25-Dec-2016

 --------------------------
 # td=(NStates=1) B3LYP/SVP
 --------------------------

 --
 TD
 --
 Symbolic Z-matrix:
 Charge =  0 Multiplicity = 1

                         Standard orientation:
 ---------------------------------------------------------------------
 Center     Atomic      Atomic             Coordinates (Angstroms)
 Number     Number       Type             X           Y           Z
 ---------------------------------------------------------------------
      1          8           0        4.403575   -4.913646   -1.843463
      2          8           0       -3.090246   -4.863844   -1.261251
      3          8           0       -7.334470   -1.285510   -1.867873
      4          8           0       -3.767739   -2.905304   -0.237383
      5          8           0       -7.531636   -0.474951    0.167458
      6          8           0        3.136658    2.429386    0.277384
      7          7           0        0.295571   -0.646798    0.595107
      8          7           0       -1.486031    1.826188    0.310664
      9          7           0        3.288646   -3.229659   -0.517697
     10          7           0        0.892240    2.932199    0.067441
     11          6           0       -0.880722   -2.467238    1.375674
     12          6           0       -1.116097   -1.157202    1.062198
     13          6           0        0.602048   -2.720747    1.385591
     14          6           0        1.232446   -1.602689    0.806249
     15          6           0       -3.762348    1.646568    0.376891
     16          6           0       -2.482479    0.896320    0.534430
     17          6           0       -2.285564   -0.399541    0.885687
     18          6           0       -3.400315    2.882492   -0.146687
     19          6           0       -1.952246   -3.342717    1.861303
     20          6           0        5.371386   -2.726180   -1.325079
     21          6           0        3.641008   -2.006931    0.076916
     22          6           0       -1.984217    2.973452   -0.061097
     23          6           0        4.968365   -1.654344   -0.375441
     24          6           0       -5.069641    0.878310    0.364887
     25          6           0        2.641612   -1.151288    0.462742
     26          6           0        1.309952   -3.979873    1.865262
     27          6           0        4.318978   -3.761876   -1.233617
     28          6           0       -2.282977   -4.452545    0.883630
     29          6           0       -5.432640   -0.070732   -0.823075
     30          6           0       -4.329361    4.067712   -0.470490
     31          6           0       -1.210537    4.185181   -0.195297
     32          6           0        6.858219   -3.267787   -1.414666
     33          6           0        5.864991   -0.813520    0.062327
     34          6           0        0.100724    4.052273   -0.231819
     35          6           0        1.277350    5.200103   -0.455512
     36          6           0        2.472637    4.671317   -0.294526
     37          6           0       -3.140661   -3.974767   -0.222840
     38          6           0        5.556794    0.142755    1.225244
     39          6           0       -6.838639   -0.563643   -0.771447
     40          6           0        3.787290    5.292816   -0.397591
     41          6           0        2.292331    3.209492    0.068337
     42          6           0        0.727497    6.548734   -0.788726
     43          6           0        4.480116    5.580243    0.930792
     44          1           0        0.293806    0.289638    0.203389
     45          1           0       -3.123952   -1.142155    0.894953
     46          1           0       -2.782238   -2.770403    2.196490
     47          1           0       -1.708411   -3.946352    2.922519
     48          1           0        5.029971   -2.441625   -2.461698
     49          1           0       -4.973247    0.311339    1.265513
     50          1           0       -5.866402    1.508303    0.752643
     51          1           0        3.016591   -0.101288    0.489196
     52          1           0       -0.635715    1.802779    0.547066
     53          1           0        1.648077   -4.583660    1.093569
     54          1           0        2.338092   -3.676626    2.309189
     55          1           0        0.925148   -4.587322    2.696815
     56          1           0        2.545239   -3.818640   -0.340205
     57          1           0       -1.573557   -4.937456    0.326794
     58          1           0       -2.912065   -5.248792    1.312280
     59          1           0       -4.773550   -0.902907   -0.761064
     60          1           0       -4.959372    0.463755   -1.701381
     61          1           0       -4.183888    4.738998    0.494466
     62          1           0       -5.318017    3.867669   -0.420945
     63          1           0       -3.961358    4.647322   -1.478913
     64          1           0       -1.713836    5.245062   -0.576244
     65          1           0        7.709224   -2.567100   -1.793034
     66          1           0        7.108293   -4.174368   -2.212723
     67          1           0        7.062283   -3.632057   -0.500181
     68          1           0        6.935329   -0.778977   -0.271192
     69          1           0        5.459153    1.404557    0.853494
     70          1           0        6.553235    0.307787    1.877740
     71          1           0        4.726242   -0.065365    1.710443
     72          1           0        3.655777    6.136340   -1.095800
     73          1           0        4.357538    4.525891   -1.121100
     74          1           0        0.098670    6.530220   -1.699052
     75          1           0        1.514100    7.212096   -1.226604
     76          1           0        0.023297    6.960504    0.007169
     77          1           0        3.529469    5.940912    1.626702
     78          1           0        5.525991    6.090297    0.710137
     79          1           0        4.994301    4.657426    1.483429
     80          1           0       -3.762704   -4.579526   -1.961118
     81          1           0       -8.275427   -1.433735   -1.341824
 ---------------------------------------------------------------------

 SCF Done:  E(RB3LYP) =  -1949.01067247     A.U. after   16 cycles

 Excitation energies and oscillator strengths:

 Excited State   1:      Singlet-A      2.0760 eV  597.24 nm  f=0.3473  <S**2>=0.000
     156 ->157         0.70294
 This state for optimization and/or second-order correction.
 Total Energy, E(TD-HF/TD-DFT) =  -1948.93438232
 Copying the excited state density for this state as the 1-particle RhoCI density.

 The electronic state is 1-A.
 Alpha  occ. eigenvalues --  -19.20684 -19.17772 -19.15121 -19.13984 -19.10209
 Alpha  occ. eigenvalues --  -19.09268 -14.37301 -14.36916 -14.36844 -14.27577
 Alpha  occ. eigenvalues --  -10.34221 -10.32545 -10.28581 -10.25649 -10.25051
 Alpha  occ. eigenvalues --  -10.24883 -10.24793 -10.24215 -10.23517 -10.22275
 Alpha  occ. eigenvalues --  -10.22256 -10.21980 -10.21787 -10.21601 -10.21584
 Alpha  occ. eigenvalues --  -10.21341 -10.21242 -10.21079 -10.21053 -10.20874
 Alpha  occ. eigenvalues --  -10.20487 -10.20384 -10.20248 -10.20233 -10.20212
 Alpha  occ. eigenvalues --  -10.19802 -10.19697 -10.19674 -10.19579 -10.19487
 Alpha  occ. eigenvalues --  -10.19481 -10.19016 -10.17171  -1.10778  -1.10337
 Alpha  occ. eigenvalues --   -1.03584  -1.01857  -1.01815  -1.00697  -0.99664
 Alpha  occ. eigenvalues --   -0.95155  -0.93583  -0.88202  -0.83932  -0.83181
 Alpha  occ. eigenvalues --   -0.82986  -0.81929  -0.79473  -0.78957  -0.78544
 Alpha  occ. eigenvalues --   -0.77854  -0.76618  -0.74731  -0.74224  -0.73554
 Alpha  occ. eigenvalues --   -0.71924  -0.69973  -0.69514  -0.69098  -0.68389
 Alpha  occ. eigenvalues --   -0.67649  -0.65744  -0.65063  -0.62227  -0.60734
 Alpha  occ. eigenvalues --   -0.60452  -0.59644  -0.58872  -0.57725  -0.57006
 Alpha  occ. eigenvalues --   -0.56765  -0.56394  -0.55364  -0.55002  -0.53904
 Alpha  occ. eigenvalues --   -0.52222  -0.51938  -0.50792  -0.50548  -0.50398
 Alpha  occ. eigenvalues --   -0.50039  -0.48915  -0.48726  -0.48260  -0.48024
 Alpha  occ. eigenvalues --   -0.47466  -0.46861  -0.46567  -0.46096  -0.45967
 Alpha  occ. eigenvalues --   -0.45116  -0.44734  -0.44305  -0.43956  -0.43692
 Alpha  occ. eigenvalues --   -0.43198  -0.43000  -0.42810  -0.42248  -0.42106
 Alpha  occ. eigenvalues --   -0.41897  -0.41666  -0.41519  -0.41311  -0.40815
 Alpha  occ. eigenvalues --   -0.40700  -0.40453  -0.40060  -0.40028  -0.39714
 Alpha  occ. eigenvalues --   -0.39545  -0.39112  -0.38777  -0.38669  -0.38382
 Alpha  occ. eigenvalues --   -0.37997  -0.37519  -0.37127  -0.37004  -0.36518
 Alpha  occ. eigenvalues --   -0.36341  -0.35869  -0.35442  -0.35114  -0.34631
 Alpha  occ. eigenvalues --   -0.34384  -0.33862  -0.33767  -0.33583  -0.32979
 Alpha  occ. eigenvalues --   -0.32369  -0.31805  -0.30590  -0.30541  -0.30252
 Alpha  occ. eigenvalues --   -0.29671  -0.26783  -0.26297  -0.25714  -0.25213
 Alpha  occ. eigenvalues --   -0.24312  -0.24204  -0.23247  -0.22577  -0.21365
 Alpha  occ. eigenvalues --   -0.18906
 Alpha virt. eigenvalues --   -0.10503  -0.05456  -0.03792  -0.02205  -0.00180
 Alpha virt. eigenvalues --   -0.00074   0.00815   0.02637   0.03265   0.03372
 Alpha virt. eigenvalues --    0.03676   0.03993   0.04523   0.05169   0.05820

 Mulliken charges:
               1
     1  O   -0.314801
     2  O   -0.213139
     3  O   -0.279080
     4  O   -0.244496
     5  O   -0.202579
     6  O   -0.145298
     7  N   -0.172924
     8  N    0.114568
     9  N   -0.077079
    10  N   -0.384338
    11  C   -0.056682
    12  C    0.041109
    13  C   -0.162320
    14  C    0.130417
    15  C   -0.114307
    16  C    0.074192
    17  C   -0.053564
    18  C   -0.158507
    19  C    0.055184
    20  C   -0.062994
    21  C    0.093283
    22  C    0.046397
    23  C    0.041941
    24  C    0.112527
    25  C   -0.080969
    26  C    0.070070
    27  C    0.097062
    28  C    0.102991
    29  C    0.061053
    30  C    0.090476
    31  C   -0.164937
    32  C    0.031153
    33  C   -0.145860
    34  C    0.108911
    35  C   -0.070350
    36  C   -0.234556
    37  C    0.117860
    38  C    0.003688
    39  C    0.175558
    40  C    0.074639
    41  C    0.150556
    42  C    0.086575
    43  C   -0.057704
    44  H    0.121416
    45  H    0.039937
    46  H    0.006391
    47  H    0.027523
    48  H    0.072982
    49  H   -0.012349
    50  H   -0.003063
    51  H    0.059015
    52  H    0.025350
    53  H   -0.000510
    54  H    0.022838
    55  H    0.022417
    56  H    0.104349
    57  H    0.012465
    58  H    0.040944
    59  H    0.028446
    60  H    0.041626
    61  H    0.044480
    62  H   -0.012040
    63  H    0.056389
    64  H    0.029450
    65  H    0.029647
    66  H    0.050317
    67  H   -0.004922
    68  H    0.013232
    69  H    0.073775
    70  H    0.026266
    71  H   -0.004244
    72  H   -0.008780
    73  H    0.015230
    74  H    0.008320
    75  H    0.004506
    76  H    0.041953
    77  H    0.053465
    78  H    0.030741
    79  H    0.037715
    80  H    0.211052
    81  H    0.209944
 Sum of Mulliken charges =  -0.00000

 Dipole moment (field-independent basis, Debye):
    X=             -3.9322    Y=              0.5357    Z=              0.7542  Tot=              4.0396
 Quadrupole moment (field-independent basis, Debye-Ang):
   XX=           -247.0229   YY=           -247.2813   ZZ=           -257.2170
   XY=             16.0212   XZ=              9.0818   YZ=            -18.7241

 Normal termination of Gaussian 16 at Sun Jun 30 10:39:25 2019.
