 Gaussian 16, Revision A.03,
 Gaussian 16:  ES64L-G16RevA.03 25-Dec-2016

 --------------------------
 # td=(NStates=1) B3LYP/SVP
 --------------------------

 --
 TD
 --
 Symbolic Z-matrix:
 Charge =  0 Multiplicity = 1

                         Standard orientation:
 ---------------------------------------------------------------------
 Center     Atomic      Atomic             Coordinates (Angstroms)
 Number     Number       Type             X           Y           Z
 ---------------------------------------------------------------------
      1          8           0        4.391858   -4.767672   -1.917332
      2          8           0       -2.855925   -4.487366   -1.453391
      3          8           0       -6.869928   -1.736308   -1.743004
      4          8           0       -3.904861   -3.020433   -0.112327
      5          8           0       -7.601317   -0.521182    0.060898
      6          8           0        3.115606    2.537035    0.131620
      7          7           0        0.247425   -0.589175    0.566832
      8          7           0       -1.473699    1.748129    0.274661
      9          7           0        3.370197   -3.159537   -0.505917
     10          7           0        0.779248    2.948907    0.148465
     11          6           0       -0.750222   -2.453355    1.473382
     12          6           0       -0.954561   -1.157512    0.889350
     13          6           0        0.651626   -2.665656    1.342604
     14          6           0        1.290851   -1.533689    0.823563
     15          6           0       -3.784600    1.463891    0.386907
     16          6           0       -2.447815    0.813363    0.535775
     17          6           0       -2.159154   -0.465496    0.892264
     18          6           0       -3.486518    2.782237    0.034423
     19          6           0       -1.744093   -3.492621    1.861692
     20          6           0        5.508252   -2.772082   -1.186057
     21          6           0        3.647334   -1.878957   -0.057515
     22          6           0       -2.090845    2.969792   -0.026212
     23          6           0        5.123430   -1.576082   -0.385093
     24          6           0       -5.142256    0.770490    0.472728
     25          6           0        2.570584   -1.102319    0.483144
     26          6           0        1.482775   -3.907702    1.844180
     27          6           0        4.425118   -3.788292   -1.285089
     28          6           0       -2.102464   -4.564538    0.800815
     29          6           0       -5.364831   -0.119418   -0.811110
     30          6           0       -4.518911    3.809301   -0.342560
     31          6           0       -1.284819    4.117725   -0.285703
     32          6           0        6.878757   -3.409382   -1.024287
     33          6           0        5.728323   -0.530934    0.093409
     34          6           0        0.187938    4.013714   -0.225925
     35          6           0        1.053689    5.273188   -0.507557
     36          6           0        2.236528    4.767144   -0.368594
     37          6           0       -3.058048   -3.858846   -0.261876
     38          6           0        5.316958    0.565882    1.038295
     39          6           0       -6.675194   -0.783847   -0.791864
     40          6           0        3.674983    5.396371   -0.480844
     41          6           0        2.128847    3.243923    0.160863
     42          6           0        0.499690    6.604192   -0.854205
     43          6           0        4.310858    5.601021    0.910227
     44          1           0        0.425716    0.402310    0.282571
     45          1           0       -3.139902   -1.004704    1.258656
     46          1           0       -2.645905   -3.112872    2.212388
     47          1           0       -1.387012   -4.129630    2.656687
     48          1           0        5.431062   -2.567071   -2.358789
     49          1           0       -5.313427    0.221775    1.393240
     50          1           0       -6.067871    1.389265    0.473587
     51          1           0        2.773230   -0.096264    0.721174
     52          1           0       -0.414996    2.019149    0.539846
     53          1           0        1.491835   -4.903728    1.211026
     54          1           0        2.515038   -3.578518    1.927393
     55          1           0        1.119757   -4.146302    2.893762
     56          1           0        2.549034   -3.662163   -0.414146
     57          1           0       -1.259883   -5.042678    0.298036
     58          1           0       -2.715421   -5.276767    1.401596
     59          1           0       -4.728766   -0.901805   -0.896391
     60          1           0       -5.534158    0.602782   -1.730331
     61          1           0       -4.065034    4.924959   -0.050316
     62          1           0       -5.559191    3.459518    0.305630
     63          1           0       -4.728284    3.820306   -1.585574
     64          1           0       -1.642176    5.136598   -0.761169
     65          1           0        7.597713   -2.799360   -1.350903
     66          1           0        7.159827   -4.440772   -1.639933
     67          1           0        7.137483   -3.814144    0.142095
     68          1           0        6.737472   -0.666350   -0.319938
     69          1           0        4.667129    1.190824    0.547941
     70          1           0        6.232531    1.159493    1.426717
     71          1           0        4.728241    0.168570    1.941681
     72          1           0        3.701486    6.300152   -1.221994
     73          1           0        4.211948    4.592840   -1.128364
     74          1           0       -0.209064    6.615645   -1.589525
     75          1           0        1.194265    7.363521   -1.045058
     76          1           0       -0.058868    6.855028    0.157178
     77          1           0        3.651383    6.144504    1.455481
     78          1           0        5.324997    6.050674    0.815326
     79          1           0        4.381229    4.647708    1.460205
     80          1           0       -3.479998   -4.167310   -2.220939
     81          1           0       -7.660358   -2.215068   -1.223624
 ---------------------------------------------------------------------

 SCF Done:  E(RB3LYP) =  -1949.10721541     A.U. after   16 cycles

 Excitation energies and oscillator strengths:

 Excited State   1:      Singlet-A      1.9316 eV  641.87 nm  f=0.4387  <S**2>=0.000
     156 ->157         0.70913
     156 <-157        -0.11797
 This state for optimization and/or second-order correction.
 Total Energy, E(TD-HF/TD-DFT) =  -1949.03623026
 Copying the excited state density for this state as the 1-particle RhoCI density.

 The electronic state is 1-A.
 Alpha  occ. eigenvalues --  -19.19221 -19.19053 -19.14706 -19.12696 -19.12204
 Alpha  occ. eigenvalues --  -19.11847 -14.37115 -14.36153 -14.34465 -14.31086
 Alpha  occ. eigenvalues --  -10.33593 -10.32117 -10.29839 -10.28171 -10.24967
 Alpha  occ. eigenvalues --  -10.23676 -10.23439 -10.23046 -10.22969 -10.22827
 Alpha  occ. eigenvalues --  -10.22754 -10.22297 -10.21767 -10.21056 -10.20908
 Alpha  occ. eigenvalues --  -10.20796 -10.20790 -10.20710 -10.20670 -10.20617
 Alpha  occ. eigenvalues --  -10.20252 -10.20048 -10.19884 -10.19833 -10.19810
 Alpha  occ. eigenvalues --  -10.19557 -10.19423 -10.19417 -10.19324 -10.18611
 Alpha  occ. eigenvalues --  -10.18460 -10.18441 -10.17264  -1.09794  -1.08251
 Alpha  occ. eigenvalues --   -1.06805  -1.03057  -1.01384  -0.97329  -0.97081
 Alpha  occ. eigenvalues --   -0.96330  -0.95225  -0.94506  -0.82631  -0.82080
 Alpha  occ. eigenvalues --   -0.81318  -0.80908  -0.80206  -0.78434  -0.77446
 Alpha  occ. eigenvalues --   -0.77263  -0.76391  -0.75048  -0.73586  -0.71368
 Alpha  occ. eigenvalues --   -0.70122  -0.69665  -0.69594  -0.67993  -0.67490
 Alpha  occ. eigenvalues --   -0.66702  -0.66165  -0.64779  -0.62329  -0.61379
 Alpha  occ. eigenvalues --   -0.60764  -0.58434  -0.57349  -0.57013  -0.56544
 Alpha  occ. eigenvalues --   -0.55335  -0.55077  -0.54963  -0.54211  -0.52805
 Alpha  occ. eigenvalues --   -0.51716  -0.51409  -0.50790  -0.50123  -0.49554
 Alpha  occ. eigenvalues --   -0.48983  -0.48696  -0.48644  -0.48478  -0.48129
 Alpha  occ. eigenvalues --   -0.46779  -0.46718  -0.46186  -0.45624  -0.45329
 Alpha  occ. eigenvalues --   -0.44722  -0.44357  -0.44011  -0.43858  -0.43536
 Alpha  occ. eigenvalues --   -0.43011  -0.42896  -0.42541  -0.42112  -0.42029
 Alpha  occ. eigenvalues --   -0.41909  -0.41469  -0.41365  -0.40795  -0.40629
 Alpha  occ. eigenvalues --   -0.40444  -0.40202  -0.40027  -0.39849  -0.39422
 Alpha  occ. eigenvalues --   -0.39110  -0.38940  -0.38697  -0.38461  -0.38207
 Alpha  occ. eigenvalues --   -0.38096  -0.37678  -0.37303  -0.37088  -0.36746
 Alpha  occ. eigenvalues --   -0.36605  -0.36224  -0.35774  -0.35667  -0.35276
 Alpha  occ. eigenvalues --   -0.34500  -0.34033  -0.33630  -0.33569  -0.33068
 Alpha  occ. eigenvalues --   -0.32609  -0.32560  -0.31139  -0.30106  -0.29687
 Alpha  occ. eigenvalues --   -0.29293  -0.27964  -0.27389  -0.26557  -0.25754
 Alpha  occ. eigenvalues --   -0.25336  -0.25168  -0.24849  -0.24389  -0.21252
 Alpha  occ. eigenvalues --   -0.17302
 Alpha virt. eigenvalues --   -0.09760  -0.05072  -0.03520  -0.01405  -0.01070
 Alpha virt. eigenvalues --    0.00299   0.02089   0.02526   0.03210   0.03840
 Alpha virt. eigenvalues --    0.04088   0.04363   0.04719   0.05428   0.06059

 Mulliken charges:
               1
     1  O   -0.138069
     2  O   -0.232070
     3  O   -0.225933
     4  O   -0.204048
     5  O   -0.316378
     6  O   -0.198681
     7  N   -0.125187
     8  N   -0.191615
     9  N   -0.160526
    10  N   -0.232159
    11  C   -0.094680
    12  C    0.095478
    13  C   -0.160988
    14  C    0.153096
    15  C   -0.018158
    16  C    0.046572
    17  C   -0.089145
    18  C   -0.099903
    19  C    0.139696
    20  C   -0.054370
    21  C    0.039186
    22  C    0.122387
    23  C    0.053535
    24  C    0.069433
    25  C   -0.110657
    26  C    0.014954
    27  C    0.121694
    28  C    0.018017
    29  C    0.071602
    30  C   -0.072435
    31  C   -0.149011
    32  C   -0.002718
    33  C   -0.172950
    34  C   -0.030049
    35  C   -0.061302
    36  C   -0.248608
    37  C    0.138962
    38  C    0.111072
    39  C    0.136941
    40  C    0.013838
    41  C    0.179257
    42  C    0.160998
    43  C    0.056403
    44  H    0.145365
    45  H    0.029250
    46  H   -0.011316
    47  H   -0.016405
    48  H    0.065087
    49  H    0.019864
    50  H    0.014506
    51  H   -0.027548
    52  H    0.202342
    53  H    0.043076
    54  H    0.025282
    55  H    0.032949
    56  H    0.097931
    57  H    0.035650
    58  H    0.045512
    59  H    0.013236
    60  H    0.064106
    61  H    0.051672
    62  H    0.061166
    63  H    0.058237
    64  H    0.006226
    65  H   -0.006713
    66  H    0.046253
    67  H    0.036151
    68  H   -0.022668
    69  H    0.043786
    70  H    0.025783
    71  H    0.035498
    72  H    0.007738
    73  H    0.020764
    74  H    0.005093
    75  H   -0.002533
    76  H    0.036309
    77  H   -0.012574
    78  H    0.021059
    79  H    0.021489
    80  H    0.216527
    81  H    0.218372
 Sum of Mulliken charges =  -0.00000

 Dipole moment (field-independent basis, Debye):
    X=             -0.2974    Y=             -0.5075    Z=             -0.0508  Tot=              0.5904
 Quadrupole moment (field-independent basis, Debye-Ang):
   XX=           -261.4791   YY=           -235.8993   ZZ=           -253.2543
   XY=             15.1765   XZ=             11.0761   YZ=            -12.0715

 Normal termination of Gaussian 16 at Wed Jul  3 09:44:16 2019.
