 Gaussian 16, Revision A.03,
 Gaussian 16:  ES64L-G16RevA.03 25-Dec-2016

 --------------------------
 # td=(NStates=1) B3LYP/SVP
 --------------------------

 --
 TD
 --
 Symbolic Z-matrix:
 Charge =  0 Multiplicity = 1

                         Standard orientation:
 ---------------------------------------------------------------------
 Center     Atomic      Atomic             Coordinates (Angstroms)
 Number     Number       Type             X           Y           Z
 ---------------------------------------------------------------------
      1          8           0       -4.654810   -4.550930    1.964013
      2          8           0        2.782750   -5.071363    1.253864
      3          8           0        7.022843   -1.488717    1.919445
      4          8           0        3.658515   -3.222038    0.270604
      5          8           0        7.513937   -0.616209   -0.173780
      6          8           0       -3.006305    2.475209   -0.345571
      7          7           0       -0.246716   -0.538159   -0.537015
      8          7           0        1.596305    1.794398   -0.549274
      9          7           0       -3.457851   -3.027137    0.654888
     10          7           0       -0.662697    2.868335   -0.262530
     11          6           0        0.538129   -2.436596   -1.362901
     12          6           0        0.876460   -1.115650   -0.992771
     13          6           0       -0.809922   -2.689992   -1.149395
     14          6           0       -1.300802   -1.485749   -0.637569
     15          6           0        3.875599    1.395617   -0.449461
     16          6           0        2.549920    0.739094   -0.696598
     17          6           0        2.199986   -0.558533   -0.950340
     18          6           0        3.601983    2.677409   -0.034071
     19          6           0        1.562546   -3.431749   -1.885601
     20          6           0       -5.644191   -2.411796    1.351847
     21          6           0       -3.676886   -1.752711    0.119404
     22          6           0        2.217870    2.928055   -0.104360
     23          6           0       -5.070181   -1.385871    0.303611
     24          6           0        5.099020    0.554019   -0.511045
     25          6           0       -2.595020   -1.040882   -0.498619
     26          6           0       -1.628813   -3.870112   -1.810440
     27          6           0       -4.571644   -3.492735    1.325603
     28          6           0        1.976260   -4.624488   -0.935130
     29          6           0        5.479721   -0.178231    0.850815
     30          6           0        4.679443    3.696743    0.500951
     31          6           0        1.421691    3.993344    0.296651
     32          6           0       -7.104043   -2.893529    1.160507
     33          6           0       -5.778321   -0.410363   -0.240163
     34          6           0        0.004900    3.919449    0.226439
     35          6           0       -0.823907    5.090034    0.539966
     36          6           0       -2.118444    4.679572    0.368754
     37          6           0        2.894536   -4.235002    0.188130
     38          6           0       -5.437841    0.582851   -1.237879
     39          6           0        6.742045   -0.803446    0.756804
     40          6           0       -3.475721    5.248489    0.527269
     41          6           0       -2.029864    3.208086   -0.102811
     42          6           0       -0.319458    6.416943    0.968248
     43          6           0       -4.072334    5.758405   -0.838974
     44          1           0       -0.410564    0.537129   -0.427207
     45          1           0        2.822354   -1.349985   -0.945478
     46          1           0        2.360140   -2.886949   -2.273908
     47          1           0        1.218598   -4.087382   -2.750893
     48          1           0       -5.608749   -2.053532    2.472168
     49          1           0        5.202566   -0.226449   -1.417255
     50          1           0        5.919194    1.329013   -0.544715
     51          1           0       -2.609229   -0.046391   -0.547030
     52          1           0        0.492679    2.036280   -0.550086
     53          1           0       -1.757042   -4.657712   -1.254417
     54          1           0       -2.564213   -3.720287   -2.379574
     55          1           0       -0.900867   -4.345439   -2.657259
     56          1           0       -2.426092   -3.391281    0.996665
     57          1           0        0.930011   -4.942858   -0.537437
     58          1           0        2.555733   -5.231003   -1.682565
     59          1           0        4.546861   -0.763280    0.873968
     60          1           0        5.394586    0.600658    1.659241
     61          1           0        4.570862    4.709068    0.033273
     62          1           0        5.657462    3.486857    0.311270
     63          1           0        4.530515    3.980568    1.697415
     64          1           0        1.850155    5.038311    0.477073
     65          1           0       -8.079367   -2.283004    1.230999
     66          1           0       -7.337680   -3.504102    2.030146
     67          1           0       -7.125866   -3.438826    0.276223
     68          1           0       -6.722840   -0.423744    0.111456
     69          1           0       -5.027309    1.431458   -0.708163
     70          1           0       -6.262161    1.168632   -1.836588
     71          1           0       -4.882869    0.402064   -2.206833
     72          1           0       -3.422336    6.273073    0.968955
     73          1           0       -4.216433    4.634650    1.169705
     74          1           0        0.447512    6.218162    1.783944
     75          1           0       -0.960982    7.033311    1.343788
     76          1           0        0.226255    6.917440    0.130734
     77          1           0       -3.554042    6.669697   -1.343547
     78          1           0       -5.027522    6.063713   -0.672001
     79          1           0       -3.867671    5.012964   -1.601416
     80          1           0        3.348343   -4.796478    2.180521
     81          1           0        7.974981   -1.708056    2.056508
 ---------------------------------------------------------------------

 SCF Done:  E(RB3LYP) =  -1949.09324669     A.U. after   16 cycles

 Excitation energies and oscillator strengths:

 Excited State   1:      Singlet-A      1.7768 eV  697.78 nm  f=0.3661  <S**2>=0.000
     156 ->157         0.71051
     156 <-157        -0.11642
 This state for optimization and/or second-order correction.
 Total Energy, E(TD-HF/TD-DFT) =  -1949.02794952
 Copying the excited state density for this state as the 1-particle RhoCI density.

 The electronic state is 1-A.
 Alpha  occ. eigenvalues --  -19.19580 -19.17730 -19.13359 -19.12624 -19.11027
 Alpha  occ. eigenvalues --  -19.10631 -14.38139 -14.37213 -14.34025 -14.30600
 Alpha  occ. eigenvalues --  -10.33642 -10.31904 -10.29136 -10.27589 -10.24707
 Alpha  occ. eigenvalues --  -10.23251 -10.23156 -10.23124 -10.23043 -10.22507
 Alpha  occ. eigenvalues --  -10.22322 -10.21813 -10.20775 -10.20626 -10.20612
 Alpha  occ. eigenvalues --  -10.20546 -10.20338 -10.20225 -10.20052 -10.19939
 Alpha  occ. eigenvalues --  -10.19897 -10.19894 -10.19836 -10.19645 -10.19514
 Alpha  occ. eigenvalues --  -10.19313 -10.19035 -10.19028 -10.18859 -10.18634
 Alpha  occ. eigenvalues --  -10.17953 -10.17852 -10.17578  -1.07788  -1.07475
 Alpha  occ. eigenvalues --   -1.02157  -1.00724  -1.00034  -0.97996  -0.97811
 Alpha  occ. eigenvalues --   -0.96206  -0.94618  -0.92468  -0.81960  -0.81596
 Alpha  occ. eigenvalues --   -0.81467  -0.80970  -0.80217  -0.78467  -0.77343
 Alpha  occ. eigenvalues --   -0.77226  -0.76524  -0.75774  -0.74389  -0.71801
 Alpha  occ. eigenvalues --   -0.70676  -0.70085  -0.69874  -0.68371  -0.67654
 Alpha  occ. eigenvalues --   -0.67230  -0.65829  -0.64732  -0.63046  -0.61928
 Alpha  occ. eigenvalues --   -0.59927  -0.59583  -0.58704  -0.57556  -0.56902
 Alpha  occ. eigenvalues --   -0.55277  -0.54880  -0.54683  -0.53194  -0.52763
 Alpha  occ. eigenvalues --   -0.52688  -0.51247  -0.51133  -0.50544  -0.49353
 Alpha  occ. eigenvalues --   -0.49057  -0.48879  -0.47606  -0.47386  -0.47284
 Alpha  occ. eigenvalues --   -0.47078  -0.46890  -0.46269  -0.45360  -0.44862
 Alpha  occ. eigenvalues --   -0.44745  -0.44313  -0.44133  -0.43656  -0.43637
 Alpha  occ. eigenvalues --   -0.43087  -0.42781  -0.42475  -0.41844  -0.41772
 Alpha  occ. eigenvalues --   -0.41571  -0.41305  -0.41159  -0.41010  -0.40917
 Alpha  occ. eigenvalues --   -0.40406  -0.40360  -0.40072  -0.39567  -0.39171
 Alpha  occ. eigenvalues --   -0.39079  -0.38452  -0.38215  -0.38060  -0.38026
 Alpha  occ. eigenvalues --   -0.37750  -0.37694  -0.37456  -0.36838  -0.36582
 Alpha  occ. eigenvalues --   -0.36282  -0.35847  -0.35691  -0.35404  -0.34722
 Alpha  occ. eigenvalues --   -0.34554  -0.33316  -0.32866  -0.32658  -0.32154
 Alpha  occ. eigenvalues --   -0.31941  -0.31864  -0.31436  -0.29930  -0.29295
 Alpha  occ. eigenvalues --   -0.28381  -0.28127  -0.26729  -0.26353  -0.25261
 Alpha  occ. eigenvalues --   -0.25023  -0.24891  -0.24705  -0.23767  -0.21528
 Alpha  occ. eigenvalues --   -0.17409
 Alpha virt. eigenvalues --   -0.10362  -0.06073  -0.04097  -0.02540  -0.01283
 Alpha virt. eigenvalues --   -0.00877   0.00056   0.02368   0.02684   0.03981
 Alpha virt. eigenvalues --    0.04581   0.04732   0.05157   0.05253   0.05759

 Mulliken charges:
               1
     1  O   -0.234911
     2  O   -0.266667
     3  O   -0.227544
     4  O   -0.276186
     5  O   -0.230446
     6  O   -0.226811
     7  N   -0.117584
     8  N   -0.208702
     9  N   -0.159357
    10  N   -0.310333
    11  C   -0.098010
    12  C    0.031684
    13  C   -0.128623
    14  C    0.051700
    15  C   -0.050525
    16  C    0.134488
    17  C   -0.008996
    18  C   -0.119184
    19  C    0.073212
    20  C   -0.084160
    21  C    0.076000
    22  C    0.116033
    23  C    0.004780
    24  C    0.013691
    25  C   -0.025334
    26  C    0.129561
    27  C    0.119149
    28  C    0.008404
    29  C   -0.020712
    30  C    0.078593
    31  C   -0.152255
    32  C    0.051407
    33  C   -0.046248
    34  C    0.068491
    35  C   -0.113040
    36  C   -0.169755
    37  C    0.177887
    38  C    0.045198
    39  C    0.203080
    40  C    0.045905
    41  C    0.188425
    42  C    0.187781
    43  C    0.013303
    44  H    0.180258
    45  H   -0.052066
    46  H   -0.010380
    47  H    0.008284
    48  H    0.066150
    49  H    0.061833
    50  H    0.007872
    51  H   -0.064502
    52  H    0.187009
    53  H   -0.034545
    54  H    0.039097
    55  H    0.003763
    56  H    0.196346
    57  H    0.065342
    58  H    0.061435
    59  H    0.058923
    60  H    0.048267
    61  H    0.015278
    62  H   -0.009122
    63  H    0.037663
    64  H   -0.003409
    65  H    0.028754
    66  H    0.014741
    67  H    0.004075
    68  H   -0.054126
    69  H    0.052798
    70  H   -0.005090
    71  H    0.034671
    72  H   -0.008959
    73  H    0.045355
    74  H    0.023765
    75  H   -0.046165
    76  H    0.029686
    77  H    0.007089
    78  H   -0.002518
    79  H    0.017842
    80  H    0.259978
    81  H    0.191218
 Sum of Mulliken charges =  -0.00000

 Dipole moment (field-independent basis, Debye):
    X=              1.9263    Y=              1.3641    Z=              1.6380  Tot=              2.8731
 Quadrupole moment (field-independent basis, Debye-Ang):
   XX=           -249.8848   YY=           -235.3958   ZZ=           -250.0805
   XY=            -17.8858   XZ=             19.4271   YZ=             11.9440

 Normal termination of Gaussian 16 at Fri Jul  5 10:39:33 2019.
