 Gaussian 16, Revision A.03,
 Gaussian 16:  ES64L-G16RevA.03 25-Dec-2016

 --------------------------
 # td=(NStates=1) B3LYP/SVP
 --------------------------

 --
 TD
 --
 Symbolic Z-matrix:
 Charge =  0 Multiplicity = 1

                         Standard orientation:
 ---------------------------------------------------------------------
 Center     Atomic      Atomic             Coordinates (Angstroms)
 Number     Number       Type             X           Y           Z
 ---------------------------------------------------------------------
      1          8           0       -4.351044   -4.713354    1.934897
      2          8           0        2.960777   -4.588357    1.360845
      3          8           0        7.148295   -1.395481    1.734901
      4          8           0        3.809135   -2.962707    0.074458
      5          8           0        7.608508   -0.268937   -0.180488
      6          8           0       -3.148348    2.418553   -0.559894
      7          7           0       -0.304365   -0.565771   -0.729390
      8          7           0        1.560360    1.799516   -0.529818
      9          7           0       -3.327971   -3.240265    0.535081
     10          7           0       -0.838305    2.848450   -0.134407
     11          6           0        0.714950   -2.523586   -1.296852
     12          6           0        0.980512   -1.125516   -0.943463
     13          6           0       -0.709470   -2.680640   -1.279901
     14          6           0       -1.284798   -1.496818   -0.752271
     15          6           0        3.721081    1.464105   -0.313088
     16          6           0        2.519432    0.819404   -0.605181
     17          6           0        2.296045   -0.443192   -0.935409
     18          6           0        3.479040    2.807962    0.142406
     19          6           0        1.770002   -3.443711   -1.856417
     20          6           0       -5.518278   -2.520767    1.510903
     21          6           0       -3.555925   -1.938071    0.047094
     22          6           0        2.109940    2.951004    0.027949
     23          6           0       -5.064147   -1.579229    0.348581
     24          6           0        5.077073    0.796162   -0.442530
     25          6           0       -2.701518   -1.185987   -0.600675
     26          6           0       -1.462243   -3.967301   -1.681888
     27          6           0       -4.391667   -3.677304    1.367412
     28          6           0        2.202705   -4.539229   -0.833892
     29          6           0        5.446298   -0.051438    0.805355
     30          6           0        4.489601    3.783837    0.637123
     31          6           0        1.214843    4.059342    0.179018
     32          6           0       -6.907024   -3.107469    1.337433
     33          6           0       -5.801081   -0.671521   -0.222032
     34          6           0       -0.148582    3.952298    0.308059
     35          6           0       -1.113227    5.067383    0.598931
     36          6           0       -2.424769    4.498266    0.355955
     37          6           0        3.052031   -3.897120    0.146735
     38          6           0       -5.465038    0.263308   -1.320178
     39          6           0        6.844523   -0.633714    0.738684
     40          6           0       -3.693778    5.252270    0.459099
     41          6           0       -2.205077    3.138584   -0.193038
     42          6           0       -0.749821    6.532502    0.924637
     43          6           0       -4.321178    5.591083   -0.908540
     44          1           0       -0.241411    0.426348   -0.440467
     45          1           0        2.997795   -1.355158   -0.982988
     46          1           0        2.603024   -3.086194   -2.124933
     47          1           0        1.321382   -3.781182   -2.695596
     48          1           0       -5.156193   -2.141749    2.502213
     49          1           0        5.349067    0.280933   -1.356311
     50          1           0        5.835286    1.446278   -0.449037
     51          1           0       -3.015409   -0.186412   -0.649486
     52          1           0        0.428872    1.897707   -0.656509
     53          1           0       -1.440166   -4.724581   -0.924134
     54          1           0       -2.583713   -4.014596   -2.005575
     55          1           0       -1.022199   -4.427609   -2.520045
     56          1           0       -2.343357   -3.518098    0.917741
     57          1           0        1.432962   -5.129780   -0.357178
     58          1           0        2.954166   -5.136771   -1.415281
     59          1           0        4.657804   -0.951915    0.818840
     60          1           0        5.386846    0.510332    1.807148
     61          1           0        4.442647    4.858376    0.093551
     62          1           0        5.470356    3.339510    0.095217
     63          1           0        4.489852    3.712657    1.939938
     64          1           0        1.662830    5.093324    0.588418
     65          1           0       -7.569265   -2.279338    1.407271
     66          1           0       -7.052291   -3.937507    2.104036
     67          1           0       -6.991730   -3.589849    0.435727
     68          1           0       -6.699317   -0.761808    0.192483
     69          1           0       -5.272837    1.045184   -0.674016
     70          1           0       -6.083067    0.584946   -2.161266
     71          1           0       -4.350744   -0.022676   -1.793631
     72          1           0       -3.755632    6.316684    1.112675
     73          1           0       -4.382202    4.521721    1.029066
     74          1           0       -0.344821    6.561976    1.904807
     75          1           0       -1.675872    7.187028    0.982019
     76          1           0        0.083631    6.952876    0.100661
     77          1           0       -3.801257    6.573863   -1.430811
     78          1           0       -5.267343    6.044414   -0.902481
     79          1           0       -4.177220    4.719968   -1.415652
     80          1           0        3.748626   -4.219890    1.845492
     81          1           0        8.111548   -1.589646    1.669978
 ---------------------------------------------------------------------

 SCF Done:  E(RB3LYP) =  -1949.06194226     A.U. after   17 cycles

 Excitation energies and oscillator strengths:

 Excited State   1:      Singlet-A      1.9382 eV  639.69 nm  f=0.3419  <S**2>=0.000
     156 ->157         0.69925
     156 <-157        -0.11224
 This state for optimization and/or second-order correction.
 Total Energy, E(TD-HF/TD-DFT) =  -1948.99071488
 Copying the excited state density for this state as the 1-particle RhoCI density.

 The electronic state is 1-A.
 Alpha  occ. eigenvalues --  -19.20611 -19.18964 -19.15877 -19.12079 -19.12001
 Alpha  occ. eigenvalues --  -19.09356 -14.38090 -14.36746 -14.34956 -14.28637
 Alpha  occ. eigenvalues --  -10.34148 -10.32257 -10.29244 -10.26067 -10.24260
 Alpha  occ. eigenvalues --  -10.23730 -10.23640 -10.23585 -10.23143 -10.22652
 Alpha  occ. eigenvalues --  -10.22588 -10.22389 -10.22310 -10.21487 -10.21236
 Alpha  occ. eigenvalues --  -10.20932 -10.20800 -10.20490 -10.20416 -10.20155
 Alpha  occ. eigenvalues --  -10.20010 -10.19909 -10.19776 -10.19624 -10.19557
 Alpha  occ. eigenvalues --  -10.19338 -10.18708 -10.18645 -10.18419 -10.18250
 Alpha  occ. eigenvalues --  -10.17810 -10.17701 -10.16962  -1.12253  -1.11139
 Alpha  occ. eigenvalues --   -1.05431  -1.02006  -0.99628  -0.99388  -0.98105
 Alpha  occ. eigenvalues --   -0.97128  -0.93668  -0.90074  -0.84039  -0.81886
 Alpha  occ. eigenvalues --   -0.81722  -0.81199  -0.79298  -0.78374  -0.78039
 Alpha  occ. eigenvalues --   -0.76734  -0.76263  -0.75188  -0.73693  -0.72552
 Alpha  occ. eigenvalues --   -0.70998  -0.69739  -0.69302  -0.68407  -0.67882
 Alpha  occ. eigenvalues --   -0.67183  -0.65299  -0.65013  -0.61672  -0.61113
 Alpha  occ. eigenvalues --   -0.59980  -0.59566  -0.58336  -0.57616  -0.57193
 Alpha  occ. eigenvalues --   -0.56352  -0.55425  -0.54799  -0.53109  -0.52908
 Alpha  occ. eigenvalues --   -0.52321  -0.51710  -0.51003  -0.50474  -0.49983
 Alpha  occ. eigenvalues --   -0.49529  -0.48888  -0.48615  -0.48552  -0.47662
 Alpha  occ. eigenvalues --   -0.47059  -0.46565  -0.45948  -0.45642  -0.45413
 Alpha  occ. eigenvalues --   -0.44872  -0.44672  -0.44392  -0.43903  -0.43467
 Alpha  occ. eigenvalues --   -0.43399  -0.42828  -0.42504  -0.42385  -0.42235
 Alpha  occ. eigenvalues --   -0.41865  -0.41417  -0.41203  -0.40884  -0.40735
 Alpha  occ. eigenvalues --   -0.40546  -0.40368  -0.39928  -0.39799  -0.39617
 Alpha  occ. eigenvalues --   -0.39518  -0.39293  -0.38997  -0.38478  -0.38329
 Alpha  occ. eigenvalues --   -0.38014  -0.37586  -0.37492  -0.37259  -0.36652
 Alpha  occ. eigenvalues --   -0.36207  -0.35831  -0.35382  -0.35087  -0.34602
 Alpha  occ. eigenvalues --   -0.34256  -0.34107  -0.33477  -0.33425  -0.33029
 Alpha  occ. eigenvalues --   -0.32305  -0.31457  -0.31071  -0.30252  -0.29789
 Alpha  occ. eigenvalues --   -0.27608  -0.27365  -0.27251  -0.25828  -0.25396
 Alpha  occ. eigenvalues --   -0.24850  -0.24525  -0.23311  -0.22427  -0.21340
 Alpha  occ. eigenvalues --   -0.18541
 Alpha virt. eigenvalues --   -0.10816  -0.05830  -0.02808  -0.02248   0.00018
 Alpha virt. eigenvalues --    0.00048   0.02049   0.02619   0.03138   0.03776
 Alpha virt. eigenvalues --    0.04179   0.04792   0.04967   0.05228   0.06545

 Mulliken charges:
               1
     1  O   -0.167398
     2  O   -0.225881
     3  O   -0.122388
     4  O   -0.215266
     5  O   -0.283291
     6  O   -0.250322
     7  N   -0.065828
     8  N   -0.202800
     9  N   -0.160709
    10  N   -0.360079
    11  C   -0.132460
    12  C   -0.066099
    13  C   -0.149039
    14  C    0.068464
    15  C   -0.087431
    16  C    0.217085
    17  C   -0.082885
    18  C   -0.097620
    19  C    0.249179
    20  C   -0.077102
    21  C    0.083246
    22  C    0.098777
    23  C   -0.043654
    24  C    0.209036
    25  C   -0.059120
    26  C    0.093411
    27  C    0.072562
    28  C    0.064555
    29  C   -0.116782
    30  C   -0.036965
    31  C   -0.123637
    32  C    0.111591
    33  C   -0.060598
    34  C    0.093499
    35  C   -0.112131
    36  C   -0.132293
    37  C    0.110119
    38  C    0.078792
    39  C    0.140481
    40  C   -0.024614
    41  C    0.181783
    42  C    0.062924
    43  C    0.034872
    44  H    0.131248
    45  H    0.056412
    46  H   -0.070911
    47  H   -0.025015
    48  H    0.049768
    49  H    0.009025
    50  H   -0.061907
    51  H   -0.007643
    52  H    0.200572
    53  H    0.003247
    54  H    0.040042
    55  H   -0.013058
    56  H    0.173404
    57  H    0.041712
    58  H    0.055804
    59  H    0.074464
    60  H    0.045607
    61  H    0.055422
    62  H    0.043642
    63  H    0.074514
    64  H    0.006400
    65  H    0.023946
    66  H    0.036134
    67  H   -0.006929
    68  H   -0.092452
    69  H    0.036018
    70  H    0.025379
    71  H    0.051029
    72  H    0.019190
    73  H    0.023255
    74  H    0.016329
    75  H    0.024146
    76  H    0.055079
    77  H    0.001748
    78  H   -0.004057
    79  H    0.015847
    80  H    0.188210
    81  H    0.190394
 Sum of Mulliken charges =  -0.00000

 Dipole moment (field-independent basis, Debye):
    X=              3.6226    Y=             -1.9103    Z=              1.3947  Tot=              4.3264
 Quadrupole moment (field-independent basis, Debye-Ang):
   XX=           -243.7157   YY=           -242.8304   ZZ=           -253.2783
   XY=            -18.6299   XZ=             14.7721   YZ=             15.3648

 Normal termination of Gaussian 16 at Tue Jul  2 02:13:04 2019.
