 Gaussian 16, Revision A.03,
 Gaussian 16:  ES64L-G16RevA.03 25-Dec-2016

 --------------------------
 # td=(NStates=1) B3LYP/SVP
 --------------------------

 --
 TD
 --
 Symbolic Z-matrix:
 Charge =  0 Multiplicity = 1

                         Standard orientation:
 ---------------------------------------------------------------------
 Center     Atomic      Atomic             Coordinates (Angstroms)
 Number     Number       Type             X           Y           Z
 ---------------------------------------------------------------------
      1          8           0        4.695997   -4.570324   -1.900919
      2          8           0       -2.321927   -4.739512   -1.323745
      3          8           0       -7.166400   -1.724226   -1.858524
      4          8           0       -3.638882   -3.379557   -0.109998
      5          8           0       -7.737883   -0.633558    0.067492
      6          8           0        2.756266    2.383972    0.205054
      7          7           0        0.275626   -0.614330    0.501023
      8          7           0       -1.646634    1.700901    0.238745
      9          7           0        3.526292   -2.956548   -0.590931
     10          7           0        0.578795    2.943527    0.169956
     11          6           0       -0.573382   -2.530916    1.298224
     12          6           0       -0.905934   -1.200345    0.915617
     13          6           0        0.800448   -2.613820    1.299901
     14          6           0        1.356568   -1.465096    0.771617
     15          6           0       -3.823925    1.280451    0.171741
     16          6           0       -2.487538    0.589834    0.465750
     17          6           0       -2.130713   -0.656420    0.790679
     18          6           0       -3.713697    2.595836    0.029642
     19          6           0       -1.502803   -3.429028    1.998233
     20          6           0        5.568504   -2.422595   -1.386983
     21          6           0        3.669806   -1.701364   -0.153226
     22          6           0       -2.176419    2.842516    0.019466
     23          6           0        5.076036   -1.405530   -0.399752
     24          6           0       -5.090820    0.498949    0.326012
     25          6           0        2.715968   -0.947400    0.481911
     26          6           0        1.655447   -3.719014    1.929178
     27          6           0        4.579579   -3.560417   -1.262754
     28          6           0       -1.890017   -4.633324    1.062823
     29          6           0       -5.435856   -0.366848   -0.762686
     30          6           0       -4.710263    3.701276   -0.255584
     31          6           0       -1.502828    4.037915   -0.282722
     32          6           0        6.991869   -2.990985   -1.209945
     33          6           0        5.826906   -0.312204    0.087204
     34          6           0       -0.139679    4.079888   -0.200824
     35          6           0        0.833150    5.233279   -0.479431
     36          6           0        2.059606    4.737031   -0.301385
     37          6           0       -2.644593   -4.102884   -0.146045
     38          6           0        5.530539    0.598461    1.258940
     39          6           0       -6.926405   -0.870155   -0.814041
     40          6           0        3.425518    5.417847   -0.406087
     41          6           0        1.942613    3.268919    0.003904
     42          6           0        0.281863    6.628654   -0.714934
     43          6           0        4.063811    5.781881    0.856138
     44          1           0        0.609187    0.268351   -0.051206
     45          1           0       -2.747725   -1.420030    0.997046
     46          1           0       -2.557723   -2.862553    2.282409
     47          1           0       -1.152596   -3.772335    3.062641
     48          1           0        5.461608   -1.889303   -2.441579
     49          1           0       -5.217196   -0.154620    1.283666
     50          1           0       -5.920559    1.055520    0.489223
     51          1           0        3.015329    0.069454    0.437104
     52          1           0       -0.381677    1.550784    0.244495
     53          1           0        1.293716   -4.573819    1.258549
     54          1           0        2.806046   -3.489369    2.016034
     55          1           0        1.305999   -3.916249    3.033967
     56          1           0        2.624647   -3.483312   -0.473203
     57          1           0       -0.999083   -5.256699    0.778360
     58          1           0       -2.575094   -5.199808    1.648811
     59          1           0       -4.845199   -1.291549   -0.872975
     60          1           0       -5.195725    0.346520   -1.828563
     61          1           0       -4.321791    4.653857    0.357831
     62          1           0       -5.904566    3.441812    0.183130
     63          1           0       -4.642936    4.361274   -1.252781
     64          1           0       -2.034611    4.981436   -0.566878
     65          1           0        7.761568   -2.117378   -1.541548
     66          1           0        7.116666   -3.765901   -1.856190
     67          1           0        7.274358   -3.184688   -0.139592
     68          1           0        6.873236   -0.351315   -0.312179
     69          1           0        5.066930    1.567166    0.868416
     70          1           0        6.372481    0.784755    1.759034
     71          1           0        4.759474    0.069985    1.853477
     72          1           0        3.467882    6.313044   -1.025423
     73          1           0        4.034721    4.729417   -1.021919
     74          1           0       -0.236813    6.709675   -1.496334
     75          1           0        1.358578    7.249466   -0.824686
     76          1           0       -0.340446    7.099957    0.094311
     77          1           0        3.553707    6.669932    1.460039
     78          1           0        5.132970    6.024123    0.756521
     79          1           0        4.007159    4.722600    1.582726
     80          1           0       -2.886135   -4.411949   -2.007851
     81          1           0       -8.112457   -1.923792   -1.544807
 ---------------------------------------------------------------------

 SCF Done:  E(RB3LYP) =  -1949.05656055     A.U. after   16 cycles

 Excitation energies and oscillator strengths:

 Excited State   1:      Singlet-A      2.0603 eV  601.79 nm  f=0.3508  <S**2>=0.000
     156 ->157         0.70380
 This state for optimization and/or second-order correction.
 Total Energy, E(TD-HF/TD-DFT) =  -1948.98084705
 Copying the excited state density for this state as the 1-particle RhoCI density.

 The electronic state is 1-A.
 Alpha  occ. eigenvalues --  -19.19086 -19.18951 -19.14493 -19.13472 -19.11930
 Alpha  occ. eigenvalues --  -19.10250 -14.37914 -14.37813 -14.36066 -14.28799
 Alpha  occ. eigenvalues --  -10.34115 -10.32417 -10.29341 -10.26563 -10.24487
 Alpha  occ. eigenvalues --  -10.23860 -10.23397 -10.23280 -10.23246 -10.23127
 Alpha  occ. eigenvalues --  -10.22766 -10.22553 -10.22541 -10.21925 -10.21193
 Alpha  occ. eigenvalues --  -10.20847 -10.20774 -10.20470 -10.20393 -10.20335
 Alpha  occ. eigenvalues --  -10.20137 -10.19993 -10.19849 -10.19745 -10.19675
 Alpha  occ. eigenvalues --  -10.19584 -10.19437 -10.19160 -10.18900 -10.18879
 Alpha  occ. eigenvalues --  -10.18519 -10.18355 -10.17686  -1.10299  -1.09425
 Alpha  occ. eigenvalues --   -1.04722  -1.01510  -1.01216  -1.00378  -0.98390
 Alpha  occ. eigenvalues --   -0.97729  -0.97309  -0.90182  -0.83341  -0.82539
 Alpha  occ. eigenvalues --   -0.81832  -0.80840  -0.80122  -0.78592  -0.78082
 Alpha  occ. eigenvalues --   -0.77090  -0.76765  -0.75839  -0.74548  -0.72726
 Alpha  occ. eigenvalues --   -0.70238  -0.69642  -0.69452  -0.68211  -0.67619
 Alpha  occ. eigenvalues --   -0.66051  -0.65390  -0.64159  -0.62850  -0.61965
 Alpha  occ. eigenvalues --   -0.60923  -0.59804  -0.57766  -0.56844  -0.56524
 Alpha  occ. eigenvalues --   -0.55886  -0.55738  -0.54396  -0.53742  -0.53031
 Alpha  occ. eigenvalues --   -0.52139  -0.51370  -0.50721  -0.50076  -0.49534
 Alpha  occ. eigenvalues --   -0.49333  -0.48908  -0.48590  -0.48187  -0.47456
 Alpha  occ. eigenvalues --   -0.47311  -0.46808  -0.46288  -0.45448  -0.45056
 Alpha  occ. eigenvalues --   -0.44786  -0.44486  -0.44307  -0.43899  -0.43724
 Alpha  occ. eigenvalues --   -0.43501  -0.43284  -0.43061  -0.42670  -0.42432
 Alpha  occ. eigenvalues --   -0.42395  -0.42004  -0.41744  -0.41630  -0.41010
 Alpha  occ. eigenvalues --   -0.40781  -0.40596  -0.40276  -0.40069  -0.39775
 Alpha  occ. eigenvalues --   -0.39643  -0.39279  -0.38901  -0.38809  -0.38471
 Alpha  occ. eigenvalues --   -0.38149  -0.37520  -0.37177  -0.36741  -0.36412
 Alpha  occ. eigenvalues --   -0.36146  -0.35684  -0.35646  -0.34888  -0.34829
 Alpha  occ. eigenvalues --   -0.34506  -0.33760  -0.33428  -0.33289  -0.33124
 Alpha  occ. eigenvalues --   -0.32619  -0.31708  -0.31571  -0.30546  -0.29788
 Alpha  occ. eigenvalues --   -0.28527  -0.26623  -0.26566  -0.26436  -0.25742
 Alpha  occ. eigenvalues --   -0.25402  -0.25050  -0.24430  -0.23628  -0.21474
 Alpha  occ. eigenvalues --   -0.18186
 Alpha virt. eigenvalues --   -0.09736  -0.05742  -0.03967  -0.02866  -0.01122
 Alpha virt. eigenvalues --   -0.00554   0.01931   0.02854   0.03075   0.03633
 Alpha virt. eigenvalues --    0.04204   0.04433   0.04690   0.05071   0.05643

 Mulliken charges:
               1
     1  O   -0.188517
     2  O   -0.177817
     3  O   -0.200784
     4  O   -0.238396
     5  O   -0.245607
     6  O   -0.201288
     7  N   -0.155689
     8  N   -0.148971
     9  N   -0.103532
    10  N   -0.359901
    11  C   -0.032569
    12  C    0.022698
    13  C   -0.163507
    14  C    0.059885
    15  C   -0.061757
    16  C    0.151236
    17  C    0.040933
    18  C   -0.075094
    19  C   -0.071889
    20  C   -0.131604
    21  C    0.055945
    22  C    0.100493
    23  C   -0.072078
    24  C    0.179234
    25  C   -0.065556
    26  C    0.000148
    27  C    0.151906
    28  C    0.092625
    29  C   -0.117425
    30  C   -0.036591
    31  C   -0.153775
    32  C    0.061511
    33  C   -0.135753
    34  C    0.089009
    35  C   -0.068772
    36  C   -0.190247
    37  C    0.134402
    38  C    0.103777
    39  C    0.166705
    40  C    0.104361
    41  C    0.167509
    42  C    0.133699
    43  C   -0.071463
    44  H    0.178976
    45  H   -0.090946
    46  H    0.052964
    47  H    0.039256
    48  H    0.073204
    49  H    0.016102
    50  H   -0.052220
    51  H   -0.003725
    52  H    0.239868
    53  H    0.040099
    54  H    0.064053
    55  H    0.039943
    56  H    0.139355
    57  H    0.041687
    58  H    0.033405
    59  H    0.056396
    60  H    0.046350
    61  H    0.026044
    62  H    0.070648
    63  H    0.050019
    64  H   -0.025615
    65  H    0.016357
    66  H    0.012445
    67  H    0.021758
    68  H   -0.004221
    69  H    0.069487
    70  H   -0.015659
    71  H    0.029486
    72  H   -0.012653
    73  H    0.010849
    74  H   -0.035779
    75  H    0.034280
    76  H    0.040237
    77  H    0.031315
    78  H    0.021308
    79  H    0.038329
    80  H    0.173240
    81  H    0.185863
 Sum of Mulliken charges =  -0.00000

 Dipole moment (field-independent basis, Debye):
    X=             -1.0669    Y=              1.1483    Z=             -0.0729  Tot=              1.5692
 Quadrupole moment (field-independent basis, Debye-Ang):
   XX=           -261.7035   YY=           -235.2628   ZZ=           -255.0533
   XY=             14.5370   XZ=             11.9152   YZ=            -17.2910

 Normal termination of Gaussian 16 at Thu Jul  4 14:54:46 2019.
