 Gaussian 16, Revision A.03,
 Gaussian 16:  ES64L-G16RevA.03 25-Dec-2016

 --------------------------
 # td=(NStates=1) B3LYP/SVP
 --------------------------

 --
 TD
 --
 Symbolic Z-matrix:
 Charge =  0 Multiplicity = 1

                         Standard orientation:
 ---------------------------------------------------------------------
 Center     Atomic      Atomic             Coordinates (Angstroms)
 Number     Number       Type             X           Y           Z
 ---------------------------------------------------------------------
      1          8           0        4.568433   -4.726582   -1.780208
      2          8           0       -2.810641   -4.862118   -1.283069
      3          8           0       -7.083013   -1.848282   -1.738524
      4          8           0       -3.657305   -3.326786    0.003471
      5          8           0       -7.569357   -0.682675    0.076024
      6          8           0        2.828820    2.575783    0.104353
      7          7           0        0.299927   -0.517259    0.549568
      8          7           0       -1.679015    1.735087    0.310653
      9          7           0        3.550320   -3.061734   -0.376487
     10          7           0        0.551928    2.942467    0.229541
     11          6           0       -0.485544   -2.431508    1.451530
     12          6           0       -0.839517   -1.163825    0.954903
     13          6           0        0.894391   -2.549051    1.350462
     14          6           0        1.375688   -1.308719    0.805435
     15          6           0       -3.858441    1.306502    0.293080
     16          6           0       -2.500101    0.674782    0.466827
     17          6           0       -2.081777   -0.638489    0.819056
     18          6           0       -3.652365    2.686042   -0.058060
     19          6           0       -1.445884   -3.543828    1.886027
     20          6           0        5.592362   -2.415746   -1.444191
     21          6           0        3.760244   -1.704108   -0.132732
     22          6           0       -2.255546    2.910430   -0.046427
     23          6           0        5.111747   -1.410975   -0.502551
     24          6           0       -5.169597    0.531030    0.410718
     25          6           0        2.774868   -0.835948    0.403599
     26          6           0        1.706460   -3.720187    1.950952
     27          6           0        4.589564   -3.648182   -1.237127
     28          6           0       -1.726247   -4.619259    0.832310
     29          6           0       -5.407904   -0.305943   -0.799519
     30          6           0       -4.736969    3.669017   -0.361336
     31          6           0       -1.515813    4.082951   -0.175606
     32          6           0        6.967072   -2.986011   -1.254391
     33          6           0        6.007438   -0.379557    0.003013
     34          6           0       -0.114426    4.107376   -0.120346
     35          6           0        0.773923    5.218586   -0.505697
     36          6           0        2.047187    4.831707   -0.295529
     37          6           0       -2.873813   -4.208310   -0.150112
     38          6           0        5.547421    0.589040    1.041995
     39          6           0       -6.829154   -0.935791   -0.843217
     40          6           0        3.325664    5.542175   -0.456453
     41          6           0        1.998937    3.326090    0.067864
     42          6           0        0.252024    6.509978   -0.710295
     43          6           0        4.056975    5.629068    0.867156
     44          1           0        0.168620    0.490738    0.109610
     45          1           0       -2.992495   -1.344017    1.092127
     46          1           0       -2.425806   -3.063409    2.169982
     47          1           0       -0.933474   -4.181810    2.802056
     48          1           0        5.378789   -2.101522   -2.445072
     49          1           0       -5.243981   -0.014611    1.278612
     50          1           0       -6.039273    1.431051    0.465346
     51          1           0        3.134028    0.318913    0.089710
     52          1           0       -0.688055    1.711205    0.447774
     53          1           0        1.648795   -4.453806    1.253399
     54          1           0        2.823073   -3.374379    2.360915
     55          1           0        1.113684   -4.187019    2.808747
     56          1           0        2.896924   -3.831904   -0.237333
     57          1           0       -0.872015   -5.080983    0.354462
     58          1           0       -2.345139   -5.338418    1.401860
     59          1           0       -4.813452   -1.302169   -0.910481
     60          1           0       -5.216037    0.108141   -1.746070
     61          1           0       -4.374503    4.527230    0.024054
     62          1           0       -5.794501    3.394868   -0.247573
     63          1           0       -4.837106    3.821456   -1.582361
     64          1           0       -2.060127    5.012294   -0.494812
     65          1           0        7.913796   -2.456149   -1.589870
     66          1           0        7.176979   -3.858989   -1.836777
     67          1           0        7.541130   -3.295091   -0.250828
     68          1           0        7.108200   -0.422451   -0.466262
     69          1           0        4.777332    1.460609    0.706961
     70          1           0        6.521249    0.956207    1.519608
     71          1           0        5.001904   -0.022302    1.842014
     72          1           0        2.958455    6.523008   -0.737602
     73          1           0        3.973734    5.002870   -1.217855
     74          1           0       -0.600449    6.671395   -1.372992
     75          1           0        0.996299    7.199256   -1.050344
     76          1           0       -0.126528    7.122054    0.301390
     77          1           0        3.631631    6.672894    1.560069
     78          1           0        5.085095    6.183043    0.701890
     79          1           0        4.272962    4.681658    1.285937
     80          1           0       -3.647394   -4.667622   -1.704870
     81          1           0       -8.123153   -1.872901   -1.802748
 ---------------------------------------------------------------------

 SCF Done:  E(RB3LYP) =  -1949.05821879     A.U. after   17 cycles

 Excitation energies and oscillator strengths:

 Excited State   1:      Singlet-A      1.8765 eV  660.71 nm  f=0.4195  <S**2>=0.000
     156 ->157         0.70934
     156 <-157        -0.13036
 This state for optimization and/or second-order correction.
 Total Energy, E(TD-HF/TD-DFT) =  -1948.98925784
 Copying the excited state density for this state as the 1-particle RhoCI density.

 The electronic state is 1-A.
 Alpha  occ. eigenvalues --  -19.19720 -19.19246 -19.14143 -19.13065 -19.11842
 Alpha  occ. eigenvalues --  -19.11083 -14.38164 -14.36773 -14.34759 -14.27720
 Alpha  occ. eigenvalues --  -10.33247 -10.30925 -10.30024 -10.26305 -10.24935
 Alpha  occ. eigenvalues --  -10.24732 -10.22763 -10.22712 -10.22507 -10.22169
 Alpha  occ. eigenvalues --  -10.22024 -10.21805 -10.21479 -10.21242 -10.21101
 Alpha  occ. eigenvalues --  -10.20871 -10.20681 -10.20312 -10.20226 -10.20115
 Alpha  occ. eigenvalues --  -10.20001 -10.19950 -10.19789 -10.19661 -10.19632
 Alpha  occ. eigenvalues --  -10.19557 -10.19472 -10.19423 -10.19266 -10.19248
 Alpha  occ. eigenvalues --  -10.19037 -10.18462 -10.17881  -1.13550  -1.10591
 Alpha  occ. eigenvalues --   -1.07795  -1.04371  -1.03102  -1.00012  -0.98859
 Alpha  occ. eigenvalues --   -0.97624  -0.94520  -0.88924  -0.82164  -0.81531
 Alpha  occ. eigenvalues --   -0.81026  -0.80764  -0.79874  -0.78186  -0.77577
 Alpha  occ. eigenvalues --   -0.76359  -0.76106  -0.75308  -0.73329  -0.71774
 Alpha  occ. eigenvalues --   -0.70779  -0.69551  -0.68781  -0.68276  -0.67269
 Alpha  occ. eigenvalues --   -0.66827  -0.64670  -0.62707  -0.61998  -0.61586
 Alpha  occ. eigenvalues --   -0.60487  -0.59405  -0.58348  -0.57372  -0.56532
 Alpha  occ. eigenvalues --   -0.55404  -0.54931  -0.54107  -0.53857  -0.53291
 Alpha  occ. eigenvalues --   -0.52079  -0.51602  -0.50959  -0.50807  -0.49408
 Alpha  occ. eigenvalues --   -0.49173  -0.48843  -0.48271  -0.48151  -0.47791
 Alpha  occ. eigenvalues --   -0.47109  -0.46382  -0.46041  -0.45794  -0.45462
 Alpha  occ. eigenvalues --   -0.45127  -0.44725  -0.44205  -0.44005  -0.43881
 Alpha  occ. eigenvalues --   -0.43540  -0.43319  -0.43067  -0.42355  -0.42213
 Alpha  occ. eigenvalues --   -0.41911  -0.41602  -0.41568  -0.41146  -0.40365
 Alpha  occ. eigenvalues --   -0.40331  -0.40136  -0.40030  -0.39617  -0.39535
 Alpha  occ. eigenvalues --   -0.39306  -0.38965  -0.38599  -0.38437  -0.37960
 Alpha  occ. eigenvalues --   -0.37865  -0.37476  -0.37400  -0.37231  -0.36519
 Alpha  occ. eigenvalues --   -0.36239  -0.35974  -0.35374  -0.35240  -0.34667
 Alpha  occ. eigenvalues --   -0.34157  -0.34055  -0.33836  -0.33397  -0.33078
 Alpha  occ. eigenvalues --   -0.32323  -0.31693  -0.30966  -0.29953  -0.29549
 Alpha  occ. eigenvalues --   -0.28327  -0.26961  -0.26700  -0.25874  -0.25355
 Alpha  occ. eigenvalues --   -0.24333  -0.23808  -0.23291  -0.22455  -0.20686
 Alpha  occ. eigenvalues --   -0.16811
 Alpha virt. eigenvalues --   -0.09581  -0.05646  -0.04063  -0.00376  -0.00149
 Alpha virt. eigenvalues --    0.01379   0.02141   0.02663   0.03264   0.03490
 Alpha virt. eigenvalues --    0.03926   0.04535   0.04921   0.05227   0.05789

 Mulliken charges:
               1
     1  O   -0.193583
     2  O   -0.125737
     3  O   -0.179970
     4  O   -0.203537
     5  O   -0.238748
     6  O   -0.086381
     7  N   -0.082811
     8  N   -0.035878
     9  N   -0.198870
    10  N   -0.413542
    11  C   -0.064686
    12  C    0.075041
    13  C   -0.183173
    14  C    0.073627
    15  C   -0.117542
    16  C    0.013727
    17  C   -0.093813
    18  C   -0.122738
    19  C    0.023046
    20  C    0.021156
    21  C    0.094843
    22  C    0.102232
    23  C   -0.071657
    24  C    0.140904
    25  C   -0.131573
    26  C    0.086877
    27  C    0.126438
    28  C    0.062208
    29  C   -0.016987
    30  C    0.105265
    31  C   -0.134780
    32  C   -0.005730
    33  C   -0.109939
    34  C    0.090547
    35  C   -0.030990
    36  C   -0.201620
    37  C    0.067704
    38  C   -0.034164
    39  C    0.092566
    40  C    0.124678
    41  C    0.144649
    42  C    0.044721
    43  C   -0.071778
    44  H    0.168242
    45  H    0.047868
    46  H    0.028903
    47  H    0.027541
    48  H    0.039213
    49  H   -0.006997
    50  H    0.036452
    51  H    0.093632
    52  H    0.101165
    53  H   -0.011627
    54  H    0.076649
    55  H    0.015967
    56  H    0.136248
    57  H    0.033630
    58  H    0.036827
    59  H    0.052316
    60  H    0.001598
    61  H    0.004340
    62  H    0.016819
    63  H    0.019618
    64  H   -0.025304
    65  H   -0.004565
    66  H    0.006152
    67  H    0.022746
    68  H    0.036100
    69  H    0.108857
    70  H    0.020906
    71  H    0.046606
    72  H   -0.017507
    73  H    0.033066
    74  H    0.015608
    75  H   -0.009588
    76  H    0.039626
    77  H    0.027117
    78  H    0.013303
    79  H    0.041594
    80  H    0.170532
    81  H    0.216345
 Sum of Mulliken charges =  -0.00000

 Dipole moment (field-independent basis, Debye):
    X=             -1.5630    Y=             -0.8386    Z=             -1.5297  Tot=              2.3423
 Quadrupole moment (field-independent basis, Debye-Ang):
   XX=           -242.3704   YY=           -233.7362   ZZ=           -255.5821
   XY=             17.5353   XZ=             20.5888   YZ=            -13.3459

 Normal termination of Gaussian 16 at Thu Jun 27 11:58:46 2019.
