 Gaussian 16, Revision A.03,
 Gaussian 16:  ES64L-G16RevA.03 25-Dec-2016

 --------------------------
 # td=(NStates=1) B3LYP/SVP
 --------------------------

 --
 TD
 --
 Symbolic Z-matrix:
 Charge =  0 Multiplicity = 1

                         Standard orientation:
 ---------------------------------------------------------------------
 Center     Atomic      Atomic             Coordinates (Angstroms)
 Number     Number       Type             X           Y           Z
 ---------------------------------------------------------------------
      1          8           0        4.704407   -4.736738   -1.940888
      2          8           0       -2.926315   -4.888093   -1.258381
      3          8           0       -7.169578   -1.626435   -1.746725
      4          8           0       -3.837079   -3.065864   -0.097296
      5          8           0       -7.697890   -0.532797    0.250154
      6          8           0        3.000937    2.589429    0.234180
      7          7           0        0.314731   -0.563938    0.556615
      8          7           0       -1.568070    1.759639    0.288745
      9          7           0        3.454752   -3.180715   -0.634746
     10          7           0        0.739782    2.924490    0.010408
     11          6           0       -0.523247   -2.507633    1.287352
     12          6           0       -0.956737   -1.105693    0.972937
     13          6           0        0.816251   -2.688720    1.203645
     14          6           0        1.349510   -1.525594    0.697141
     15          6           0       -3.795024    1.391676    0.239110
     16          6           0       -2.487658    0.741615    0.516055
     17          6           0       -2.196573   -0.509145    0.938944
     18          6           0       -3.545075    2.735505   -0.052923
     19          6           0       -1.644169   -3.496691    1.854697
     20          6           0        5.639477   -2.498881   -1.341853
     21          6           0        3.666094   -1.915156   -0.069392
     22          6           0       -2.162313    2.950661   -0.031374
     23          6           0        5.050287   -1.519649   -0.401614
     24          6           0       -5.053484    0.589316    0.403033
     25          6           0        2.697972   -1.042096    0.474051
     26          6           0        1.511151   -3.862595    1.653868
     27          6           0        4.601240   -3.642196   -1.360436
     28          6           0       -2.100909   -4.465251    0.920317
     29          6           0       -5.463262   -0.243907   -0.759459
     30          6           0       -4.585407    3.772895   -0.373948
     31          6           0       -1.305581    4.078625   -0.328312
     32          6           0        7.081361   -3.018134   -1.036907
     33          6           0        5.816620   -0.538810    0.241263
     34          6           0        0.016925    4.051941   -0.269041
     35          6           0        0.971620    5.178891   -0.482440
     36          6           0        2.180251    4.693303   -0.351349
     37          6           0       -3.041303   -3.942957   -0.167363
     38          6           0        5.387097    0.299647    1.388770
     39          6           0       -6.864814   -0.803261   -0.636798
     40          6           0        3.456024    5.431669   -0.430502
     41          6           0        2.073248    3.300322   -0.099924
     42          6           0        0.480773    6.598159   -0.881482
     43          6           0        4.225711    5.734617    1.004499
     44          1           0        0.524340    0.415739    0.281085
     45          1           0       -3.114968   -1.256196    1.166081
     46          1           0       -2.363500   -2.777213    2.389839
     47          1           0       -1.017516   -4.044665    2.582859
     48          1           0        5.700256   -2.292640   -2.450470
     49          1           0       -5.090667   -0.010530    1.251120
     50          1           0       -5.919126    1.428614    0.512469
     51          1           0        2.809666   -0.090063    0.649263
     52          1           0       -0.520636    1.970536    0.303381
     53          1           0        1.430769   -4.613841    0.846002
     54          1           0        2.512750   -3.468906    1.820491
     55          1           0        1.221853   -4.376024    2.554078
     56          1           0        2.591820   -3.591452   -0.577593
     57          1           0       -1.339429   -5.222861    0.427908
     58          1           0       -2.538462   -5.219125    1.522346
     59          1           0       -4.915243   -1.115049   -1.081473
     60          1           0       -5.508641    0.456528   -1.662501
     61          1           0       -4.464484    4.439970    0.529273
     62          1           0       -5.570614    3.398606   -0.425464
     63          1           0       -4.520771    4.244575   -1.286189
     64          1           0       -2.033884    5.059074   -0.449153
     65          1           0        7.801288   -2.200686   -1.462705
     66          1           0        7.083073   -4.022804   -1.655191
     67          1           0        7.574197   -3.149998    0.050440
     68          1           0        6.845015   -0.412242   -0.003265
     69          1           0        4.615273    1.220690    1.139956
     70          1           0        6.245403    0.729300    1.763234
     71          1           0        4.901191   -0.159100    2.099218
     72          1           0        3.325241    6.448897   -0.898475
     73          1           0        4.164981    4.806596   -0.990739
     74          1           0       -0.075604    6.597805   -1.892518
     75          1           0        1.244428    7.274588   -0.963053
     76          1           0       -0.141633    7.006408   -0.177824
     77          1           0        3.502547    6.223922    1.774007
     78          1           0        5.265326    6.091888    0.859016
     79          1           0        4.370988    4.803491    1.604305
     80          1           0       -3.549267   -4.399596   -1.908976
     81          1           0       -8.006497   -2.021429   -1.639698
 ---------------------------------------------------------------------

 SCF Done:  E(RB3LYP) =  -1949.13226411     A.U. after   22 cycles

 Excitation energies and oscillator strengths:

 Excited State   1:      Singlet-A      1.9232 eV  644.67 nm  f=0.4331  <S**2>=0.000
     156 ->157         0.70932
     156 <-157        -0.12522
 This state for optimization and/or second-order correction.
 Total Energy, E(TD-HF/TD-DFT) =  -1949.06158673
 Copying the excited state density for this state as the 1-particle RhoCI density.

 The electronic state is 1-A.
 Alpha  occ. eigenvalues --  -19.19288 -19.17582 -19.17113 -19.13295 -19.12493
 Alpha  occ. eigenvalues --  -19.08807 -14.38124 -14.37592 -14.34674 -14.27832
 Alpha  occ. eigenvalues --  -10.34643 -10.32728 -10.30866 -10.25784 -10.24719
 Alpha  occ. eigenvalues --  -10.24134 -10.23744 -10.23160 -10.22958 -10.22272
 Alpha  occ. eigenvalues --  -10.22161 -10.21905 -10.21800 -10.21336 -10.21267
 Alpha  occ. eigenvalues --  -10.20733 -10.20730 -10.20674 -10.20623 -10.20616
 Alpha  occ. eigenvalues --  -10.20468 -10.20123 -10.19803 -10.19413 -10.19204
 Alpha  occ. eigenvalues --  -10.19169 -10.18965 -10.18894 -10.18858 -10.18497
 Alpha  occ. eigenvalues --  -10.18181 -10.16842 -10.16841  -1.10735  -1.07397
 Alpha  occ. eigenvalues --   -1.02931  -1.02100  -1.00820  -0.99490  -0.97288
 Alpha  occ. eigenvalues --   -0.96262  -0.95561  -0.91264  -0.83704  -0.82530
 Alpha  occ. eigenvalues --   -0.82236  -0.81956  -0.80276  -0.79328  -0.78656
 Alpha  occ. eigenvalues --   -0.77747  -0.76406  -0.75310  -0.73440  -0.72468
 Alpha  occ. eigenvalues --   -0.71764  -0.70322  -0.69135  -0.68591  -0.68005
 Alpha  occ. eigenvalues --   -0.67397  -0.66100  -0.64858  -0.62575  -0.61616
 Alpha  occ. eigenvalues --   -0.60076  -0.59496  -0.58573  -0.58266  -0.57198
 Alpha  occ. eigenvalues --   -0.55896  -0.55635  -0.54847  -0.54103  -0.52949
 Alpha  occ. eigenvalues --   -0.52782  -0.52502  -0.51429  -0.50942  -0.49870
 Alpha  occ. eigenvalues --   -0.49398  -0.48994  -0.48903  -0.47998  -0.47583
 Alpha  occ. eigenvalues --   -0.47186  -0.46814  -0.46576  -0.46464  -0.45576
 Alpha  occ. eigenvalues --   -0.45307  -0.45106  -0.44823  -0.44068  -0.43846
 Alpha  occ. eigenvalues --   -0.43715  -0.43361  -0.43218  -0.42990  -0.42512
 Alpha  occ. eigenvalues --   -0.42360  -0.41912  -0.41630  -0.41253  -0.41193
 Alpha  occ. eigenvalues --   -0.40917  -0.40407  -0.40212  -0.39872  -0.39674
 Alpha  occ. eigenvalues --   -0.39546  -0.39090  -0.38865  -0.38731  -0.38692
 Alpha  occ. eigenvalues --   -0.37925  -0.37600  -0.37430  -0.36863  -0.36796
 Alpha  occ. eigenvalues --   -0.36260  -0.36173  -0.35365  -0.35094  -0.34796
 Alpha  occ. eigenvalues --   -0.34585  -0.34493  -0.33643  -0.33426  -0.33312
 Alpha  occ. eigenvalues --   -0.32834  -0.32189  -0.32159  -0.31284  -0.30480
 Alpha  occ. eigenvalues --   -0.28180  -0.27328  -0.27073  -0.26264  -0.26022
 Alpha  occ. eigenvalues --   -0.25139  -0.24810  -0.23828  -0.23157  -0.21406
 Alpha  occ. eigenvalues --   -0.17947
 Alpha virt. eigenvalues --   -0.10503  -0.05712  -0.03998  -0.03044  -0.01708
 Alpha virt. eigenvalues --   -0.01160   0.01521   0.02351   0.03613   0.04237
 Alpha virt. eigenvalues --    0.04516   0.05362   0.05716   0.05876   0.06120

 Mulliken charges:
               1
     1  O   -0.227959
     2  O   -0.265688
     3  O   -0.215171
     4  O   -0.172631
     5  O   -0.247414
     6  O   -0.220148
     7  N   -0.173238
     8  N   -0.122984
     9  N   -0.109963
    10  N   -0.341351
    11  C   -0.149586
    12  C    0.093478
    13  C   -0.136406
    14  C    0.073124
    15  C   -0.063778
    16  C    0.099161
    17  C   -0.088552
    18  C   -0.140153
    19  C    0.094511
    20  C   -0.052741
    21  C    0.090277
    22  C   -0.020109
    23  C   -0.001503
    24  C    0.089987
    25  C    0.015245
    26  C    0.088587
    27  C    0.164967
    28  C    0.028962
    29  C    0.015938
    30  C    0.150277
    31  C   -0.145924
    32  C   -0.066351
    33  C   -0.102912
    34  C    0.136545
    35  C   -0.098409
    36  C   -0.140145
    37  C    0.179048
    38  C    0.092566
    39  C    0.153869
    40  C    0.067899
    41  C    0.129440
    42  C    0.187050
    43  C   -0.045821
    44  H    0.150711
    45  H    0.059558
    46  H    0.048004
    47  H   -0.007692
    48  H    0.058684
    49  H    0.002091
    50  H    0.033111
    51  H   -0.082061
    52  H    0.153351
    53  H    0.031299
    54  H    0.029713
    55  H    0.017733
    56  H    0.094487
    57  H    0.048694
    58  H    0.031163
    59  H    0.034377
    60  H    0.042174
    61  H    0.037163
    62  H   -0.016729
    63  H    0.004584
    64  H    0.011053
    65  H    0.032121
    66  H    0.062045
    67  H    0.044654
    68  H   -0.014712
    69  H    0.110121
    70  H   -0.016658
    71  H   -0.025553
    72  H    0.008589
    73  H    0.010041
    74  H    0.029611
    75  H   -0.029449
    76  H   -0.010661
    77  H    0.019228
    78  H    0.025911
    79  H    0.014475
    80  H    0.194774
    81  H    0.162000
 Sum of Mulliken charges =  -0.00000

 Dipole moment (field-independent basis, Debye):
    X=             -1.7567    Y=             -1.1826    Z=              0.4248  Tot=              2.1598
 Quadrupole moment (field-independent basis, Debye-Ang):
   XX=           -254.7486   YY=           -244.5474   ZZ=           -253.4860
   XY=             12.9632   XZ=             16.5864   YZ=            -15.9185

 Normal termination of Gaussian 16 at Fri Jun 28 04:45:40 2019.
