 Gaussian 16, Revision A.03,
 Gaussian 16:  ES64L-G16RevA.03 25-Dec-2016

 --------------------------
 # td=(NStates=1) B3LYP/SVP
 --------------------------

 --
 TD
 --
 Symbolic Z-matrix:
 Charge =  0 Multiplicity = 1

                         Standard orientation:
 ---------------------------------------------------------------------
 Center     Atomic      Atomic             Coordinates (Angstroms)
 Number     Number       Type             X           Y           Z
 ---------------------------------------------------------------------
      1          8           0       -4.496815   -4.696734    1.865429
      2          8           0        3.038797   -4.735836    1.427600
      3          8           0        6.862446   -1.617187    1.960645
      4          8           0        3.678825   -3.110563    0.016578
      5          8           0        7.519911   -0.798673   -0.111374
      6          8           0       -3.006128    2.461141   -0.363969
      7          7           0       -0.332780   -0.590092   -0.772892
      8          7           0        1.581020    1.840132   -0.252422
      9          7           0       -3.433560   -2.958569    0.744029
     10          7           0       -0.717682    2.961396   -0.079835
     11          6           0        0.638484   -2.473913   -1.525757
     12          6           0        0.888179   -1.151654   -1.010364
     13          6           0       -0.708781   -2.733984   -1.246288
     14          6           0       -1.302889   -1.456766   -0.757881
     15          6           0        3.796764    1.470721   -0.417173
     16          6           0        2.449853    0.878593   -0.593364
     17          6           0        2.192246   -0.421689   -0.994774
     18          6           0        3.592084    2.828152   -0.128171
     19          6           0        1.611395   -3.489394   -1.955576
     20          6           0       -5.536768   -2.554481    1.356617
     21          6           0       -3.694615   -1.773506    0.115214
     22          6           0        2.144535    2.938600    0.025384
     23          6           0       -5.093692   -1.522879    0.379913
     24          6           0        5.145138    0.682770   -0.445996
     25          6           0       -2.695488   -1.055309   -0.451051
     26          6           0       -1.512456   -3.922043   -1.733520
     27          6           0       -4.377075   -3.594666    1.385473
     28          6           0        2.044193   -4.597661   -0.846167
     29          6           0        5.421957   -0.074116    0.843925
     30          6           0        4.607323    3.828823    0.210386
     31          6           0        1.331838    4.156404    0.304342
     32          6           0       -6.930740   -3.260785    1.137442
     33          6           0       -5.833002   -0.601219   -0.280984
     34          6           0       -0.017177    4.174191    0.210589
     35          6           0       -0.906888    5.217969    0.426547
     36          6           0       -2.164902    4.753438    0.376264
     37          6           0        3.013875   -4.109874    0.203326
     38          6           0       -5.375177    0.398726   -1.309082
     39          6           0        6.747636   -0.838655    0.873277
     40          6           0       -3.582436    5.233973    0.564288
     41          6           0       -2.000617    3.294001   -0.084130
     42          6           0       -0.470936    6.601929    0.878242
     43          6           0       -4.266398    5.609859   -0.724146
     44          1           0       -0.440029    0.191652   -0.437336
     45          1           0        3.016441   -1.069913   -1.099521
     46          1           0        2.469450   -3.127573   -2.569719
     47          1           0        1.205331   -4.148759   -2.566842
     48          1           0       -5.581391   -2.222316    2.525607
     49          1           0        5.101349   -0.164185   -1.127195
     50          1           0        5.997367    1.348193   -0.798894
     51          1           0       -2.864511   -0.012694   -0.676436
     52          1           0        0.533085    2.034721   -0.444221
     53          1           0       -1.872561   -4.753284   -0.841266
     54          1           0       -2.423025   -3.711393   -2.154204
     55          1           0       -0.920938   -4.345539   -2.508631
     56          1           0       -2.424478   -3.177352    0.969918
     57          1           0        1.223580   -5.047862   -0.250545
     58          1           0        2.693211   -5.433946   -1.262887
     59          1           0        4.624200   -0.926435    1.023705
     60          1           0        5.358932    0.723880    1.754081
     61          1           0        4.747979    4.671448   -0.403007
     62          1           0        5.569441    3.275768   -0.098732
     63          1           0        4.531932    4.173539    1.223835
     64          1           0        1.905005    5.015609    0.637939
     65          1           0       -7.732639   -2.623819    1.618743
     66          1           0       -7.125944   -4.240508    1.540357
     67          1           0       -7.242694   -3.279890    0.030005
     68          1           0       -6.950278   -0.668804   -0.126890
     69          1           0       -4.832080    1.171335   -0.810021
     70          1           0       -6.265506    0.960598   -1.777833
     71          1           0       -4.738365    0.124523   -2.183553
     72          1           0       -3.452114    6.135372    1.166783
     73          1           0       -4.334118    4.636332    1.133733
     74          1           0        0.434915    6.543050    1.694945
     75          1           0       -1.416301    7.068616    1.426798
     76          1           0       -0.233091    7.166237    0.058307
     77          1           0       -3.728620    6.185932   -1.442359
     78          1           0       -5.306708    5.855461   -0.399486
     79          1           0       -4.296119    4.571299   -1.224866
     80          1           0        3.660995   -4.083254    1.939002
     81          1           0        7.720250   -2.216627    1.908412
 ---------------------------------------------------------------------

 SCF Done:  E(RB3LYP) =  -1949.13118522     A.U. after   19 cycles

 Excitation energies and oscillator strengths:

 Excited State   1:      Singlet-A      1.9686 eV  629.80 nm  f=0.3532  <S**2>=0.000
     156 ->157         0.70031
 This state for optimization and/or second-order correction.
 Total Energy, E(TD-HF/TD-DFT) =  -1949.05883991
 Copying the excited state density for this state as the 1-particle RhoCI density.

 The electronic state is 1-A.
 Alpha  occ. eigenvalues --  -19.20340 -19.20056 -19.14329 -19.12895 -19.10794
 Alpha  occ. eigenvalues --  -19.07449 -14.38305 -14.37735 -14.36217 -14.28208
 Alpha  occ. eigenvalues --  -10.33511 -10.33019 -10.28549 -10.24899 -10.24609
 Alpha  occ. eigenvalues --  -10.24481 -10.24312 -10.24263 -10.23834 -10.23489
 Alpha  occ. eigenvalues --  -10.22724 -10.22441 -10.21685 -10.21672 -10.21570
 Alpha  occ. eigenvalues --  -10.21111 -10.21094 -10.20957 -10.20648 -10.20600
 Alpha  occ. eigenvalues --  -10.20479 -10.20252 -10.20112 -10.19900 -10.19636
 Alpha  occ. eigenvalues --  -10.19360 -10.19312 -10.18774 -10.18710 -10.18709
 Alpha  occ. eigenvalues --  -10.18273 -10.17707 -10.17024  -1.10452  -1.09021
 Alpha  occ. eigenvalues --   -1.04239  -1.02709  -1.01652  -1.01251  -0.99532
 Alpha  occ. eigenvalues --   -0.97823  -0.95386  -0.89431  -0.83955  -0.82370
 Alpha  occ. eigenvalues --   -0.81613  -0.81218  -0.79446  -0.79178  -0.78507
 Alpha  occ. eigenvalues --   -0.77602  -0.76786  -0.75375  -0.74059  -0.73142
 Alpha  occ. eigenvalues --   -0.71760  -0.71298  -0.70467  -0.68658  -0.68137
 Alpha  occ. eigenvalues --   -0.67554  -0.66661  -0.64507  -0.63089  -0.61778
 Alpha  occ. eigenvalues --   -0.61119  -0.60765  -0.58808  -0.58463  -0.58177
 Alpha  occ. eigenvalues --   -0.56789  -0.56241  -0.55630  -0.54292  -0.53266
 Alpha  occ. eigenvalues --   -0.52048  -0.51702  -0.50875  -0.50338  -0.49757
 Alpha  occ. eigenvalues --   -0.49520  -0.49325  -0.48794  -0.48236  -0.47883
 Alpha  occ. eigenvalues --   -0.47488  -0.46659  -0.46575  -0.46466  -0.45995
 Alpha  occ. eigenvalues --   -0.45780  -0.44741  -0.44170  -0.43827  -0.43752
 Alpha  occ. eigenvalues --   -0.43561  -0.43353  -0.42993  -0.42854  -0.42663
 Alpha  occ. eigenvalues --   -0.42024  -0.41962  -0.41716  -0.41358  -0.41079
 Alpha  occ. eigenvalues --   -0.40666  -0.40309  -0.40169  -0.39644  -0.39549
 Alpha  occ. eigenvalues --   -0.39333  -0.39240  -0.39105  -0.38593  -0.37883
 Alpha  occ. eigenvalues --   -0.37402  -0.37212  -0.36851  -0.36626  -0.36509
 Alpha  occ. eigenvalues --   -0.36251  -0.35736  -0.35548  -0.35271  -0.34965
 Alpha  occ. eigenvalues --   -0.34528  -0.34339  -0.34012  -0.33736  -0.33372
 Alpha  occ. eigenvalues --   -0.32536  -0.31885  -0.30958  -0.29594  -0.29461
 Alpha  occ. eigenvalues --   -0.28024  -0.26997  -0.26647  -0.26527  -0.26094
 Alpha  occ. eigenvalues --   -0.25567  -0.24527  -0.23290  -0.22029  -0.21343
 Alpha  occ. eigenvalues --   -0.18677
 Alpha virt. eigenvalues --   -0.10705  -0.05730  -0.04296  -0.01817  -0.00936
 Alpha virt. eigenvalues --    0.00067   0.01316   0.01776   0.02426   0.03436
 Alpha virt. eigenvalues --    0.04054   0.04228   0.04713   0.05749   0.06163

 Mulliken charges:
               1
     1  O   -0.200916
     2  O   -0.225272
     3  O   -0.215797
     4  O   -0.244677
     5  O   -0.266272
     6  O   -0.354410
     7  N    0.168660
     8  N    0.038265
     9  N   -0.062664
    10  N   -0.304586
    11  C   -0.076696
    12  C   -0.036229
    13  C   -0.171484
    14  C   -0.013264
    15  C   -0.087738
    16  C    0.062557
    17  C    0.002700
    18  C   -0.142720
    19  C    0.212874
    20  C   -0.128054
    21  C    0.097592
    22  C   -0.048108
    23  C    0.042349
    24  C    0.113293
    25  C   -0.097302
    26  C    0.090529
    27  C    0.086968
    28  C   -0.018214
    29  C   -0.101458
    30  C    0.126087
    31  C   -0.105498
    32  C    0.020313
    33  C   -0.142123
    34  C    0.160927
    35  C   -0.105547
    36  C   -0.164131
    37  C    0.120404
    38  C    0.040090
    39  C    0.183696
    40  C    0.101923
    41  C    0.161509
    42  C    0.073838
    43  C   -0.003410
    44  H    0.016979
    45  H   -0.010155
    46  H    0.021477
    47  H   -0.056275
    48  H    0.066314
    49  H    0.008185
    50  H    0.040067
    51  H    0.013404
    52  H    0.169514
    53  H    0.036943
    54  H    0.001777
    55  H   -0.001167
    56  H    0.146612
    57  H    0.045590
    58  H    0.052950
    59  H    0.071208
    60  H    0.053737
    61  H    0.001678
    62  H    0.006667
    63  H    0.030192
    64  H   -0.036775
    65  H    0.008309
    66  H    0.030145
    67  H    0.017569
    68  H    0.009311
    69  H    0.068928
    70  H    0.007312
    71  H    0.036322
    72  H   -0.032316
    73  H    0.017823
    74  H    0.042117
    75  H    0.033631
    76  H    0.006945
    77  H    0.004538
    78  H    0.016479
    79  H    0.028174
    80  H    0.212596
    81  H    0.225192
 Sum of Mulliken charges =  -0.00000

 Dipole moment (field-independent basis, Debye):
    X=              4.4823    Y=             -0.4428    Z=              0.5863  Tot=              4.5421
 Quadrupole moment (field-independent basis, Debye-Ang):
   XX=           -254.0012   YY=           -246.7609   ZZ=           -252.2408
   XY=            -14.5631   XZ=             16.5181   YZ=             12.9492

 Normal termination of Gaussian 16 at Sat Jun 29 23:36:08 2019.
