 Gaussian 16, Revision A.03,
 Gaussian 16:  ES64L-G16RevA.03 25-Dec-2016

 --------------------------
 # td=(NStates=1) B3LYP/SVP
 --------------------------

 --
 TD
 --
 Symbolic Z-matrix:
 Charge =  0 Multiplicity = 1

                         Standard orientation:
 ---------------------------------------------------------------------
 Center     Atomic      Atomic             Coordinates (Angstroms)
 Number     Number       Type             X           Y           Z
 ---------------------------------------------------------------------
      1          8           0       -4.538365   -4.653730    2.004700
      2          8           0        3.124624   -5.042548    1.126740
      3          8           0        6.961767   -1.555521    1.989775
      4          8           0        3.681894   -3.131659    0.101549
      5          8           0        7.406962   -0.973450   -0.144760
      6          8           0       -2.891315    2.494872   -0.170969
      7          7           0       -0.338839   -0.549302   -0.576105
      8          7           0        1.518699    1.885324   -0.518140
      9          7           0       -3.459298   -3.083596    0.623364
     10          7           0       -0.659323    2.872562   -0.150475
     11          6           0        0.516645   -2.467022   -1.405648
     12          6           0        0.874529   -1.180273   -0.921210
     13          6           0       -0.828736   -2.623740   -1.206619
     14          6           0       -1.394903   -1.434479   -0.691178
     15          6           0        3.862684    1.385207   -0.406985
     16          6           0        2.491766    0.801520   -0.673606
     17          6           0        2.167267   -0.532112   -0.822142
     18          6           0        3.695818    2.726014   -0.098891
     19          6           0        1.547888   -3.499914   -1.944295
     20          6           0       -5.622989   -2.485971    1.435238
     21          6           0       -3.674669   -1.738261    0.235304
     22          6           0        2.203047    2.990161   -0.115315
     23          6           0       -5.109006   -1.459684    0.418637
     24          6           0        5.180456    0.661691   -0.337443
     25          6           0       -2.774551   -0.918444   -0.381146
     26          6           0       -1.642893   -3.649108   -1.811600
     27          6           0       -4.501896   -3.550885    1.441887
     28          6           0        1.894670   -4.599780   -0.978505
     29          6           0        5.403353   -0.068187    0.989602
     30          6           0        4.669917    3.728846    0.291941
     31          6           0        1.461115    4.170870    0.101588
     32          6           0       -6.894581   -3.214154    0.917711
     33          6           0       -5.829462   -0.547258   -0.139613
     34          6           0        0.009278    4.002842    0.144694
     35          6           0       -0.837701    5.138287    0.552965
     36          6           0       -2.091377    4.701661    0.338917
     37          6           0        2.997028   -4.140840    0.075156
     38          6           0       -5.420113    0.449347   -1.178924
     39          6           0        6.709663   -0.928303    0.817809
     40          6           0       -3.436885    5.461301    0.511728
     41          6           0       -1.995882    3.243003    0.035143
     42          6           0       -0.403685    6.589982    0.861231
     43          6           0       -4.131747    5.757578   -0.804196
     44          1           0       -0.316880    0.332586   -0.017625
     45          1           0        2.915952   -1.326231   -0.954685
     46          1           0        2.359092   -2.866795   -2.122290
     47          1           0        0.929745   -4.057740   -2.769423
     48          1           0       -5.584200   -2.080920    2.441933
     49          1           0        5.027519    0.010873   -1.175216
     50          1           0        5.966759    1.380291   -0.726571
     51          1           0       -2.873058    0.155643   -0.488214
     52          1           0        0.527613    1.839582   -0.546446
     53          1           0       -1.725497   -4.488255   -1.201757
     54          1           0       -2.617084   -3.280725   -2.164902
     55          1           0       -1.131950   -3.852914   -2.676514
     56          1           0       -2.683992   -3.601137    0.253458
     57          1           0        1.102314   -4.931169   -0.588661
     58          1           0        2.303630   -5.388474   -1.601800
     59          1           0        4.611052   -0.809223    1.110096
     60          1           0        5.554428    0.549585    1.836249
     61          1           0        4.825379    4.509229   -0.613055
     62          1           0        5.602347    3.210319    0.404153
     63          1           0        4.253523    4.430032    1.104773
     64          1           0        2.073786    5.146653    0.458493
     65          1           0       -8.017405   -2.479467    0.867946
     66          1           0       -7.245291   -3.930771    1.583480
     67          1           0       -6.834884   -3.647801   -0.158861
     68          1           0       -6.964358   -0.638442    0.014896
     69          1           0       -5.148987    1.453748   -0.717231
     70          1           0       -6.243579    0.647926   -1.766342
     71          1           0       -4.717041    0.018822   -1.682002
     72          1           0       -3.367025    6.202590    1.212323
     73          1           0       -4.167735    4.758580    1.102869
     74          1           0       -0.020516    6.438806    1.989240
     75          1           0       -1.173123    7.554741    0.542340
     76          1           0        0.426680    6.671769    0.260202
     77          1           0       -3.520100    6.510944   -1.252351
     78          1           0       -5.239786    6.005448   -0.718490
     79          1           0       -4.170033    4.592701   -1.488742
     80          1           0        3.599774   -4.646720    1.747447
     81          1           0        7.725437   -1.992075    2.081075
 ---------------------------------------------------------------------

 SCF Done:  E(RB3LYP) =  -1949.08464562     A.U. after   16 cycles

 Excitation energies and oscillator strengths:

 Excited State   1:      Singlet-A      2.0172 eV  614.62 nm  f=0.3247  <S**2>=0.000
     156 ->157         0.70548
 This state for optimization and/or second-order correction.
 Total Energy, E(TD-HF/TD-DFT) =  -1949.01051315
 Copying the excited state density for this state as the 1-particle RhoCI density.

 The electronic state is 1-A.
 Alpha  occ. eigenvalues --  -19.18363 -19.17517 -19.15730 -19.13146 -19.10775
 Alpha  occ. eigenvalues --  -19.10731 -14.37071 -14.36803 -14.35397 -14.29192
 Alpha  occ. eigenvalues --  -10.34881 -10.32356 -10.29312 -10.26380 -10.24381
 Alpha  occ. eigenvalues --  -10.24009 -10.23785 -10.23621 -10.22726 -10.22289
 Alpha  occ. eigenvalues --  -10.21760 -10.21353 -10.21301 -10.21073 -10.21022
 Alpha  occ. eigenvalues --  -10.20980 -10.20876 -10.20789 -10.20776 -10.20279
 Alpha  occ. eigenvalues --  -10.20249 -10.19951 -10.19907 -10.19887 -10.19056
 Alpha  occ. eigenvalues --  -10.18923 -10.18721 -10.18637 -10.18619 -10.18503
 Alpha  occ. eigenvalues --  -10.18185 -10.18156 -10.15777  -1.11452  -1.10532
 Alpha  occ. eigenvalues --   -1.03775  -1.02606  -1.02390  -1.01789  -0.96958
 Alpha  occ. eigenvalues --   -0.96074  -0.94186  -0.92211  -0.83193  -0.82542
 Alpha  occ. eigenvalues --   -0.81785  -0.80628  -0.79607  -0.79164  -0.77972
 Alpha  occ. eigenvalues --   -0.77310  -0.75959  -0.75005  -0.73903  -0.72514
 Alpha  occ. eigenvalues --   -0.71719  -0.69576  -0.69334  -0.68605  -0.68296
 Alpha  occ. eigenvalues --   -0.66800  -0.65341  -0.64406  -0.62628  -0.62411
 Alpha  occ. eigenvalues --   -0.61389  -0.60219  -0.58391  -0.58106  -0.57239
 Alpha  occ. eigenvalues --   -0.55859  -0.54777  -0.53863  -0.53501  -0.53114
 Alpha  occ. eigenvalues --   -0.52616  -0.52161  -0.50825  -0.50454  -0.49627
 Alpha  occ. eigenvalues --   -0.49471  -0.49309  -0.48293  -0.47926  -0.47817
 Alpha  occ. eigenvalues --   -0.47586  -0.46706  -0.46446  -0.45934  -0.45552
 Alpha  occ. eigenvalues --   -0.44989  -0.44605  -0.44364  -0.43831  -0.43604
 Alpha  occ. eigenvalues --   -0.43095  -0.42865  -0.42742  -0.42641  -0.42160
 Alpha  occ. eigenvalues --   -0.41991  -0.41898  -0.41327  -0.41242  -0.40930
 Alpha  occ. eigenvalues --   -0.40700  -0.40491  -0.40254  -0.40016  -0.39815
 Alpha  occ. eigenvalues --   -0.39505  -0.39319  -0.39056  -0.38877  -0.38776
 Alpha  occ. eigenvalues --   -0.38368  -0.38014  -0.37638  -0.37173  -0.36878
 Alpha  occ. eigenvalues --   -0.36421  -0.36357  -0.35396  -0.35090  -0.34558
 Alpha  occ. eigenvalues --   -0.34433  -0.33910  -0.33522  -0.33274  -0.32899
 Alpha  occ. eigenvalues --   -0.32589  -0.31952  -0.31592  -0.30594  -0.29617
 Alpha  occ. eigenvalues --   -0.28736  -0.28538  -0.26508  -0.25651  -0.25319
 Alpha  occ. eigenvalues --   -0.25189  -0.24682  -0.24388  -0.23832  -0.21772
 Alpha  occ. eigenvalues --   -0.17840
 Alpha virt. eigenvalues --   -0.09583  -0.05457  -0.02934  -0.02517   0.00343
 Alpha virt. eigenvalues --    0.01026   0.02092   0.02855   0.03758   0.04193
 Alpha virt. eigenvalues --    0.04380   0.04795   0.05688   0.05758   0.05972

 Mulliken charges:
               1
     1  O   -0.233584
     2  O   -0.148758
     3  O   -0.150732
     4  O   -0.220030
     5  O   -0.191756
     6  O   -0.156472
     7  N   -0.110397
     8  N   -0.100954
     9  N   -0.128906
    10  N   -0.296309
    11  C   -0.125579
    12  C   -0.021609
    13  C   -0.218599
    14  C    0.048644
    15  C   -0.134834
    16  C    0.147258
    17  C   -0.056990
    18  C   -0.105680
    19  C    0.106654
    20  C   -0.000871
    21  C    0.116570
    22  C    0.091434
    23  C    0.025137
    24  C    0.101581
    25  C   -0.099360
    26  C    0.153957
    27  C    0.134129
    28  C    0.164273
    29  C    0.049368
    30  C    0.069125
    31  C   -0.176527
    32  C   -0.007057
    33  C   -0.236747
    34  C    0.082127
    35  C   -0.122506
    36  C   -0.186655
    37  C    0.143843
    38  C    0.200672
    39  C    0.124242
    40  C    0.101155
    41  C    0.139845
    42  C    0.056245
    43  C   -0.057223
    44  H    0.145280
    45  H    0.006840
    46  H   -0.003889
    47  H    0.015570
    48  H    0.041925
    49  H    0.005035
    50  H    0.025755
    51  H    0.025224
    52  H    0.106763
    53  H    0.007194
    54  H    0.029006
    55  H   -0.018689
    56  H    0.113884
    57  H   -0.045615
    58  H    0.039736
    59  H    0.046897
    60  H    0.025333
    61  H    0.035812
    62  H    0.012867
    63  H    0.040035
    64  H    0.017392
    65  H    0.020834
    66  H    0.017752
    67  H    0.043788
    68  H    0.000031
    69  H    0.063451
    70  H   -0.027993
    71  H   -0.030697
    72  H   -0.026770
    73  H    0.008436
    74  H    0.050125
    75  H    0.067107
    76  H    0.013776
    77  H    0.016545
    78  H    0.033373
    79  H    0.050101
    80  H    0.128212
    81  H    0.131452
 Sum of Mulliken charges =  -0.00000

 Dipole moment (field-independent basis, Debye):
    X=              3.3198    Y=              1.3555    Z=              0.5379  Tot=              3.6260
 Quadrupole moment (field-independent basis, Debye-Ang):
   XX=           -248.9219   YY=           -238.2445   ZZ=           -254.8927
   XY=            -13.6260   XZ=             21.6476   YZ=             16.9372

 Normal termination of Gaussian 16 at Sat Jun 29 02:45:17 2019.
