 Gaussian 16, Revision A.03,
 Gaussian 16:  ES64L-G16RevA.03 25-Dec-2016

 --------------------------
 # td=(NStates=1) B3LYP/SVP
 --------------------------

 --
 TD
 --
 Symbolic Z-matrix:
 Charge =  0 Multiplicity = 1

                         Standard orientation:
 ---------------------------------------------------------------------
 Center     Atomic      Atomic             Coordinates (Angstroms)
 Number     Number       Type             X           Y           Z
 ---------------------------------------------------------------------
      1          8           0       -4.241840   -4.734489    2.095554
      2          8           0        3.197140   -4.719809    1.262917
      3          8           0        7.084470   -1.337076    1.847249
      4          8           0        3.941331   -3.024704    0.054228
      5          8           0        7.660147   -0.035275   -0.017544
      6          8           0       -3.118077    2.264334   -0.117656
      7          7           0       -0.221206   -0.508467   -0.677552
      8          7           0        1.409386    1.865486   -0.483537
      9          7           0       -3.350157   -3.258384    0.563734
     10          7           0       -0.869452    2.869442   -0.012188
     11          6           0        0.807127   -2.467549   -1.426250
     12          6           0        1.072214   -1.130187   -0.971422
     13          6           0       -0.668167   -2.676009   -1.455199
     14          6           0       -1.247758   -1.591104   -0.844554
     15          6           0        3.725883    1.560869   -0.433634
     16          6           0        2.424247    0.866720   -0.658259
     17          6           0        2.213258   -0.415220   -1.007311
     18          6           0        3.450909    2.860633   -0.075670
     19          6           0        1.802762   -3.459409   -1.906769
     20          6           0       -5.465147   -2.668887    1.382788
     21          6           0       -3.524524   -1.945159    0.156475
     22          6           0        2.016412    3.003499   -0.030620
     23          6           0       -4.998913   -1.675134    0.335993
     24          6           0        5.074742    0.787372   -0.514575
     25          6           0       -2.619135   -1.249548   -0.409133
     26          6           0       -1.264101   -3.935198   -1.715725
     27          6           0       -4.286438   -3.748144    1.426098
     28          6           0        2.243849   -4.449117   -0.834042
     29          6           0        5.435841    0.114823    0.968699
     30          6           0        4.404878    3.921217    0.459024
     31          6           0        1.197266    4.075038    0.148337
     32          6           0       -6.884279   -3.293417    1.238474
     33          6           0       -5.774826   -0.741428   -0.225335
     34          6           0       -0.309094    4.093917    0.166682
     35          6           0       -1.246317    5.106825    0.485130
     36          6           0       -2.515872    4.588046    0.234104
     37          6           0        3.191637   -3.932894    0.183427
     38          6           0       -5.452159    0.153232   -1.381248
     39          6           0        6.920204   -0.360075    0.883774
     40          6           0       -3.806824    5.206499    0.459870
     41          6           0       -2.304420    3.176322   -0.051145
     42          6           0       -0.898497    6.494396    0.897958
     43          6           0       -4.600885    5.469440   -0.898436
     44          1           0       -0.615165    0.207689   -0.133700
     45          1           0        3.088513   -1.069444   -1.058427
     46          1           0        2.747533   -2.883778   -2.180191
     47          1           0        1.577634   -4.046999   -2.759562
     48          1           0       -5.510327   -2.175592    2.473859
     49          1           0        5.045084   -0.230920   -1.130890
     50          1           0        6.126684    1.361981   -0.848595
     51          1           0       -2.960738   -0.235710   -0.726051
     52          1           0        0.405776    2.057204   -0.729121
     53          1           0       -0.988183   -4.827731   -1.171130
     54          1           0       -2.420967   -3.852987   -1.453945
     55          1           0       -1.255280   -4.249324   -2.886498
     56          1           0       -2.402133   -3.818883    0.434073
     57          1           0        1.538308   -5.078340   -0.416454
     58          1           0        2.809500   -5.210201   -1.344132
     59          1           0        4.983788   -0.928510    0.860342
     60          1           0        5.206075    0.726563    1.853684
     61          1           0        4.352910    5.001555    0.196977
     62          1           0        5.440770    3.675618    0.363784
     63          1           0        4.249249    3.978791    1.740316
     64          1           0        1.452960    5.200525    0.420566
     65          1           0       -7.646542   -2.654048    1.276818
     66          1           0       -6.915186   -4.003168    1.974878
     67          1           0       -6.955318   -3.780296    0.241451
     68          1           0       -6.779876   -0.710582    0.434869
     69          1           0       -4.841210    1.106774   -1.125509
     70          1           0       -6.208645    0.428997   -2.028061
     71          1           0       -4.750238   -0.335766   -1.983402
     72          1           0       -3.679605    6.200212    0.952453
     73          1           0       -4.291278    4.612469    1.204581
     74          1           0       -0.633081    6.511927    2.121770
     75          1           0       -1.785667    7.254627    0.700836
     76          1           0        0.129727    6.925152    0.375432
     77          1           0       -3.794615    6.106421   -1.312405
     78          1           0       -5.442354    5.795168   -0.534549
     79          1           0       -4.846581    4.558390   -1.673227
     80          1           0        3.961586   -4.345693    1.852081
     81          1           0        7.958304   -1.794695    1.760841
 ---------------------------------------------------------------------

 SCF Done:  E(RB3LYP) =  -1949.07263405     A.U. after   16 cycles

 Excitation energies and oscillator strengths:

 Excited State   1:      Singlet-A      1.8357 eV  675.40 nm  f=0.2924  <S**2>=0.000
     156 ->157         0.70660
     156 <-157        -0.12872
 This state for optimization and/or second-order correction.
 Total Energy, E(TD-HF/TD-DFT) =  -1949.00517263
 Copying the excited state density for this state as the 1-particle RhoCI density.

 The electronic state is 1-A.
 Alpha  occ. eigenvalues --  -19.19705 -19.19020 -19.14287 -19.13874 -19.11231
 Alpha  occ. eigenvalues --  -19.10734 -14.36754 -14.35590 -14.34553 -14.28657
 Alpha  occ. eigenvalues --  -10.32948 -10.32808 -10.28554 -10.26797 -10.23337
 Alpha  occ. eigenvalues --  -10.23310 -10.23236 -10.23207 -10.23192 -10.22948
 Alpha  occ. eigenvalues --  -10.22806 -10.22549 -10.21573 -10.21113 -10.21112
 Alpha  occ. eigenvalues --  -10.20888 -10.20836 -10.20660 -10.20638 -10.20540
 Alpha  occ. eigenvalues --  -10.20480 -10.20321 -10.19954 -10.19556 -10.19544
 Alpha  occ. eigenvalues --  -10.19448 -10.19414 -10.19254 -10.19240 -10.18909
 Alpha  occ. eigenvalues --  -10.17840 -10.17064 -10.16692  -1.11861  -1.08642
 Alpha  occ. eigenvalues --   -1.03903  -1.02566  -1.01707  -1.01570  -0.96450
 Alpha  occ. eigenvalues --   -0.95245  -0.93025  -0.91246  -0.82606  -0.81841
 Alpha  occ. eigenvalues --   -0.80853  -0.80520  -0.79988  -0.78899  -0.77968
 Alpha  occ. eigenvalues --   -0.76057  -0.75541  -0.75238  -0.74233  -0.72363
 Alpha  occ. eigenvalues --   -0.70386  -0.69401  -0.69102  -0.68359  -0.66954
 Alpha  occ. eigenvalues --   -0.66425  -0.64588  -0.64155  -0.63094  -0.61583
 Alpha  occ. eigenvalues --   -0.60671  -0.59345  -0.58540  -0.56956  -0.55858
 Alpha  occ. eigenvalues --   -0.55542  -0.55036  -0.54200  -0.52844  -0.52279
 Alpha  occ. eigenvalues --   -0.51979  -0.51471  -0.51303  -0.50308  -0.49658
 Alpha  occ. eigenvalues --   -0.49036  -0.48685  -0.48226  -0.47905  -0.47667
 Alpha  occ. eigenvalues --   -0.47078  -0.46660  -0.45876  -0.45518  -0.45355
 Alpha  occ. eigenvalues --   -0.44401  -0.44279  -0.43724  -0.43612  -0.43499
 Alpha  occ. eigenvalues --   -0.42967  -0.42777  -0.42594  -0.42338  -0.41834
 Alpha  occ. eigenvalues --   -0.41473  -0.41272  -0.41185  -0.41108  -0.40511
 Alpha  occ. eigenvalues --   -0.40305  -0.40082  -0.39533  -0.39330  -0.39242
 Alpha  occ. eigenvalues --   -0.39006  -0.38973  -0.38480  -0.38444  -0.37738
 Alpha  occ. eigenvalues --   -0.37273  -0.37242  -0.37206  -0.36974  -0.36508
 Alpha  occ. eigenvalues --   -0.35977  -0.35639  -0.35477  -0.34745  -0.34528
 Alpha  occ. eigenvalues --   -0.34234  -0.34108  -0.33847  -0.33588  -0.33322
 Alpha  occ. eigenvalues --   -0.33071  -0.32804  -0.32138  -0.30243  -0.29872
 Alpha  occ. eigenvalues --   -0.28625  -0.28285  -0.26058  -0.25347  -0.25045
 Alpha  occ. eigenvalues --   -0.24390  -0.24120  -0.23968  -0.23046  -0.21719
 Alpha  occ. eigenvalues --   -0.17797
 Alpha virt. eigenvalues --   -0.10622  -0.06419  -0.03019  -0.00552  -0.00138
 Alpha virt. eigenvalues --    0.00810   0.01490   0.02515   0.02807   0.03291
 Alpha virt. eigenvalues --    0.03493   0.03982   0.04576   0.05123   0.05875

 Mulliken charges:
               1
     1  O   -0.187865
     2  O   -0.198718
     3  O   -0.224663
     4  O   -0.200852
     5  O   -0.213452
     6  O   -0.189131
     7  N   -0.190452
     8  N   -0.132108
     9  N   -0.173006
    10  N   -0.353702
    11  C   -0.103903
    12  C    0.157224
    13  C   -0.073028
    14  C    0.060321
    15  C    0.002213
    16  C    0.137540
    17  C   -0.091397
    18  C   -0.085030
    19  C    0.127011
    20  C   -0.173332
    21  C    0.142657
    22  C    0.147287
    23  C    0.012187
    24  C   -0.069456
    25  C   -0.136884
    26  C   -0.049677
    27  C    0.131149
    28  C    0.071700
    29  C   -0.060786
    30  C    0.028623
    31  C   -0.116950
    32  C    0.146483
    33  C   -0.142344
    34  C    0.005101
    35  C   -0.035257
    36  C   -0.166978
    37  C    0.096925
    38  C    0.087462
    39  C    0.163911
    40  C    0.058124
    41  C    0.168791
    42  C   -0.064524
    43  C    0.020899
    44  H    0.131683
    45  H   -0.000514
    46  H    0.016161
    47  H   -0.013422
    48  H    0.050564
    49  H    0.044312
    50  H    0.083539
    51  H    0.025928
    52  H    0.156066
    53  H    0.027223
    54  H    0.040357
    55  H    0.037740
    56  H    0.162530
    57  H   -0.009050
    58  H    0.021693
    59  H    0.072788
    60  H    0.058463
    61  H    0.032324
    62  H    0.010098
    63  H    0.032394
    64  H   -0.013900
    65  H   -0.020088
    66  H    0.003808
    67  H    0.001703
    68  H    0.011188
    69  H    0.074432
    70  H   -0.008886
    71  H   -0.005432
    72  H   -0.007563
    73  H    0.014016
    74  H    0.058251
    75  H    0.049934
    76  H    0.060842
    77  H    0.029474
    78  H   -0.012406
    79  H    0.053452
    80  H    0.208887
    81  H    0.189297
 Sum of Mulliken charges =  -0.00000

 Dipole moment (field-independent basis, Debye):
    X=              3.1383    Y=              0.8130    Z=              0.2333  Tot=              3.2503
 Quadrupole moment (field-independent basis, Debye-Ang):
   XX=           -245.4463   YY=           -229.7623   ZZ=           -255.9055
   XY=            -30.0200   XZ=             18.3136   YZ=             16.5274

 Normal termination of Gaussian 16 at Thu Jul  4 08:09:42 2019.
