 Gaussian 16, Revision A.03,
 Gaussian 16:  ES64L-G16RevA.03 25-Dec-2016

 --------------------------
 # td=(NStates=1) B3LYP/SVP
 --------------------------

 --
 TD
 --
 Symbolic Z-matrix:
 Charge =  0 Multiplicity = 1

                         Standard orientation:
 ---------------------------------------------------------------------
 Center     Atomic      Atomic             Coordinates (Angstroms)
 Number     Number       Type             X           Y           Z
 ---------------------------------------------------------------------
      1          8           0       -4.416866   -4.725323    1.879483
      2          8           0        3.077751   -4.922108    1.148658
      3          8           0        7.186114   -1.126046    1.980491
      4          8           0        3.653336   -3.125381    0.035313
      5          8           0        7.609085   -0.759900   -0.182067
      6          8           0       -3.095849    2.423517   -0.132158
      7          7           0       -0.271707   -0.569672   -0.502856
      8          7           0        1.484801    1.756112   -0.323121
      9          7           0       -3.401446   -3.135712    0.519361
     10          7           0       -0.848351    2.932685   -0.154692
     11          6           0        0.640730   -2.470608   -1.448005
     12          6           0        0.953351   -1.104337   -1.015937
     13          6           0       -0.769748   -2.655982   -1.363425
     14          6           0       -1.268531   -1.454507   -0.729533
     15          6           0        3.819938    1.521188   -0.387173
     16          6           0        2.504746    0.818358   -0.622829
     17          6           0        2.172363   -0.513283   -0.823303
     18          6           0        3.519228    2.792430    0.096933
     19          6           0        1.629432   -3.605584   -1.879759
     20          6           0       -5.434785   -2.515528    1.490492
     21          6           0       -3.606778   -1.856805    0.020390
     22          6           0        2.134496    2.921794    0.072512
     23          6           0       -4.975084   -1.541837    0.424029
     24          6           0        5.110055    0.767222   -0.413448
     25          6           0       -2.642939   -1.034381   -0.460078
     26          6           0       -1.459055   -3.912882   -1.876804
     27          6           0       -4.521377   -3.669270    1.310284
     28          6           0        1.966580   -4.569742   -0.779399
     29          6           0        5.450702   -0.100518    0.762902
     30          6           0        4.516239    3.858056    0.500318
     31          6           0        1.330594    4.075401    0.217611
     32          6           0       -6.894406   -3.136606    1.310154
     33          6           0       -5.767627   -0.538165   -0.009282
     34          6           0       -0.051947    4.053399    0.206235
     35          6           0       -0.983557    5.202679    0.343679
     36          6           0       -2.243755    4.763391    0.266685
     37          6           0        2.970317   -4.167688    0.117191
     38          6           0       -5.458761    0.402860   -1.146504
     39          6           0        6.867205   -0.623555    0.785269
     40          6           0       -3.517001    5.423843    0.336619
     41          6           0       -2.143526    3.207791   -0.040570
     42          6           0       -0.620446    6.608565    0.806681
     43          6           0       -4.384505    5.419678   -1.067959
     44          1           0       -0.455757    0.326977   -0.328096
     45          1           0        3.113367   -1.281198   -0.994122
     46          1           0        2.633144   -3.231331   -2.081047
     47          1           0        1.164239   -4.005027   -2.681617
     48          1           0       -5.417766   -2.166414    2.410307
     49          1           0        5.230719    0.110851   -1.362073
     50          1           0        6.065055    1.455015   -0.780028
     51          1           0       -2.805141   -0.066146   -0.382571
     52          1           0        0.462612    1.870227   -0.555357
     53          1           0       -1.771223   -4.539401   -1.047728
     54          1           0       -2.532559   -3.607008   -2.386186
     55          1           0       -0.883706   -4.466972   -2.679314
     56          1           0       -2.523312   -3.493741    0.648313
     57          1           0        1.118914   -5.027278   -0.312730
     58          1           0        2.507885   -5.500773   -1.280667
     59          1           0        5.025475   -1.078537    0.637879
     60          1           0        5.129065    0.211793    1.632472
     61          1           0        4.555558    4.590874   -0.200753
     62          1           0        5.534048    3.357990    0.680189
     63          1           0        4.214917    4.423130    1.470551
     64          1           0        1.891685    5.099072    0.578155
     65          1           0       -7.761647   -2.466185    1.565028
     66          1           0       -7.149095   -4.042195    2.096840
     67          1           0       -7.304895   -3.797144    0.346830
     68          1           0       -6.687842   -0.420069    0.492340
     69          1           0       -5.070418    1.294211   -0.614050
     70          1           0       -6.330653    0.587503   -1.620472
     71          1           0       -4.943290   -0.011182   -2.001926
     72          1           0       -3.512576    6.473326    0.715318
     73          1           0       -4.126215    4.916759    1.253259
     74          1           0        0.004725    6.663037    1.777275
     75          1           0       -1.415053    7.363435    0.769834
     76          1           0        0.091581    7.030077   -0.096578
     77          1           0       -3.909151    5.921941   -1.699249
     78          1           0       -5.377928    5.918444   -0.832593
     79          1           0       -4.371243    4.333819   -1.566633
     80          1           0        3.572171   -4.520124    1.867669
     81          1           0        8.129793   -1.421977    1.929072
 ---------------------------------------------------------------------

 SCF Done:  E(RB3LYP) =  -1949.09942517     A.U. after   19 cycles

 Excitation energies and oscillator strengths:

 Excited State   1:      Singlet-A      1.9597 eV  632.67 nm  f=0.4239  <S**2>=0.000
     156 ->157         0.70634
     156 <-157        -0.11682
 This state for optimization and/or second-order correction.
 Total Energy, E(TD-HF/TD-DFT) =  -1949.02740794
 Copying the excited state density for this state as the 1-particle RhoCI density.

 The electronic state is 1-A.
 Alpha  occ. eigenvalues --  -19.20543 -19.18587 -19.13462 -19.12995 -19.12068
 Alpha  occ. eigenvalues --  -19.08225 -14.37433 -14.36226 -14.35199 -14.27566
 Alpha  occ. eigenvalues --  -10.33593 -10.31945 -10.30600 -10.24667 -10.24552
 Alpha  occ. eigenvalues --  -10.24319 -10.23305 -10.23177 -10.23158 -10.22340
 Alpha  occ. eigenvalues --  -10.22249 -10.21817 -10.21765 -10.21470 -10.21404
 Alpha  occ. eigenvalues --  -10.21389 -10.21382 -10.21377 -10.20747 -10.20646
 Alpha  occ. eigenvalues --  -10.19929 -10.19888 -10.19816 -10.19779 -10.19679
 Alpha  occ. eigenvalues --  -10.19239 -10.19237 -10.19017 -10.18111 -10.17662
 Alpha  occ. eigenvalues --  -10.17196 -10.17055 -10.16519  -1.13907  -1.09890
 Alpha  occ. eigenvalues --   -1.05124  -1.00895  -0.99542  -0.98686  -0.98484
 Alpha  occ. eigenvalues --   -0.96027  -0.95402  -0.89369  -0.83928  -0.82382
 Alpha  occ. eigenvalues --   -0.81916  -0.81060  -0.79947  -0.78966  -0.78326
 Alpha  occ. eigenvalues --   -0.77700  -0.76445  -0.74826  -0.73174  -0.72304
 Alpha  occ. eigenvalues --   -0.71291  -0.70737  -0.69810  -0.68303  -0.67326
 Alpha  occ. eigenvalues --   -0.66476  -0.65614  -0.64730  -0.63484  -0.62497
 Alpha  occ. eigenvalues --   -0.61472  -0.59757  -0.59083  -0.58643  -0.58008
 Alpha  occ. eigenvalues --   -0.55867  -0.55077  -0.54580  -0.53894  -0.53498
 Alpha  occ. eigenvalues --   -0.53002  -0.51271  -0.51121  -0.50564  -0.50464
 Alpha  occ. eigenvalues --   -0.49936  -0.49703  -0.48702  -0.48506  -0.47947
 Alpha  occ. eigenvalues --   -0.47620  -0.46675  -0.46189  -0.46054  -0.45563
 Alpha  occ. eigenvalues --   -0.45119  -0.44787  -0.44013  -0.43908  -0.43540
 Alpha  occ. eigenvalues --   -0.43095  -0.42969  -0.42612  -0.42034  -0.41918
 Alpha  occ. eigenvalues --   -0.41868  -0.41556  -0.41248  -0.40989  -0.40839
 Alpha  occ. eigenvalues --   -0.40402  -0.40338  -0.39836  -0.39526  -0.38936
 Alpha  occ. eigenvalues --   -0.38672  -0.38566  -0.38478  -0.38238  -0.37588
 Alpha  occ. eigenvalues --   -0.37411  -0.36938  -0.36876  -0.36734  -0.36537
 Alpha  occ. eigenvalues --   -0.36286  -0.35815  -0.35426  -0.35361  -0.35143
 Alpha  occ. eigenvalues --   -0.34561  -0.34425  -0.33438  -0.32935  -0.32241
 Alpha  occ. eigenvalues --   -0.32079  -0.31623  -0.31544  -0.29443  -0.29358
 Alpha  occ. eigenvalues --   -0.27826  -0.27786  -0.26262  -0.26012  -0.25745
 Alpha  occ. eigenvalues --   -0.25368  -0.25041  -0.22424  -0.22008  -0.21003
 Alpha  occ. eigenvalues --   -0.17746
 Alpha virt. eigenvalues --   -0.10038  -0.04979  -0.03295  -0.02118  -0.02046
 Alpha virt. eigenvalues --    0.00788   0.01467   0.02924   0.03953   0.04214
 Alpha virt. eigenvalues --    0.04408   0.05027   0.05594   0.05990   0.06046

 Mulliken charges:
               1
     1  O   -0.179125
     2  O   -0.111487
     3  O   -0.182905
     4  O   -0.272583
     5  O   -0.251001
     6  O   -0.250186
     7  N   -0.005733
     8  N   -0.155926
     9  N   -0.149655
    10  N   -0.322543
    11  C   -0.133417
    12  C    0.067344
    13  C   -0.145432
    14  C    0.019296
    15  C   -0.035675
    16  C    0.078026
    17  C   -0.094448
    18  C   -0.137289
    19  C    0.228861
    20  C    0.064760
    21  C    0.126472
    22  C    0.102991
    23  C   -0.039822
    24  C   -0.031768
    25  C    0.009850
    26  C    0.046912
    27  C    0.159851
    28  C   -0.002727
    29  C    0.150539
    30  C    0.116990
    31  C   -0.154888
    32  C   -0.097812
    33  C   -0.127600
    34  C    0.109292
    35  C   -0.076105
    36  C   -0.148112
    37  C    0.097128
    38  C    0.133640
    39  C    0.089171
    40  C    0.006747
    41  C    0.141832
    42  C    0.027233
    43  C    0.034507
    44  H    0.071935
    45  H    0.077926
    46  H    0.004203
    47  H   -0.032799
    48  H    0.004253
    49  H    0.027719
    50  H    0.035248
    51  H   -0.075070
    52  H    0.164705
    53  H    0.018096
    54  H    0.044933
    55  H    0.033731
    56  H    0.101543
    57  H    0.026874
    58  H    0.060546
    59  H    0.037246
    60  H   -0.031483
    61  H    0.005037
    62  H    0.032422
    63  H    0.026426
    64  H    0.012978
    65  H    0.025729
    66  H    0.038938
    67  H    0.044264
    68  H   -0.025975
    69  H    0.089260
    70  H   -0.030883
    71  H    0.012841
    72  H   -0.012698
    73  H    0.024117
    74  H    0.043502
    75  H    0.014213
    76  H    0.015779
    77  H   -0.044439
    78  H    0.023695
    79  H    0.050453
    80  H    0.191022
    81  H    0.188507
 Sum of Mulliken charges =  -0.00000

 Dipole moment (field-independent basis, Debye):
    X=              1.9399    Y=             -2.6237    Z=              1.4143  Tot=              3.5563
 Quadrupole moment (field-independent basis, Debye-Ang):
   XX=           -245.6942   YY=           -238.6681   ZZ=           -250.8604
   XY=             -8.8000   XZ=             17.3451   YZ=              9.1793

 Normal termination of Gaussian 16 at Fri Jul  5 19:48:12 2019.
