 Gaussian 16, Revision A.03,
 Gaussian 16:  ES64L-G16RevA.03 25-Dec-2016

 --------------------------
 # td=(NStates=1) B3LYP/SVP
 --------------------------

 --
 TD
 --
 Symbolic Z-matrix:
 Charge =  0 Multiplicity = 1

                         Standard orientation:
 ---------------------------------------------------------------------
 Center     Atomic      Atomic             Coordinates (Angstroms)
 Number     Number       Type             X           Y           Z
 ---------------------------------------------------------------------
      1          8           0        4.351510   -4.831931   -1.898557
      2          8           0       -3.111386   -4.889809   -1.221493
      3          8           0       -7.090089   -1.374928   -1.918984
      4          8           0       -3.845629   -3.100179   -0.056130
      5          8           0       -7.779139   -0.285435   -0.035488
      6          8           0        3.102334    2.406131    0.284672
      7          7           0        0.222313   -0.735087    0.530404
      8          7           0       -1.503745    1.824284    0.284981
      9          7           0        3.402472   -3.229666   -0.566697
     10          7           0        0.765507    2.904268    0.042148
     11          6           0       -0.661222   -2.454299    1.428090
     12          6           0       -1.001628   -1.166557    1.079832
     13          6           0        0.739476   -2.726674    1.378493
     14          6           0        1.304439   -1.540439    0.741087
     15          6           0       -3.714854    1.512566    0.365062
     16          6           0       -2.496860    0.844161    0.530338
     17          6           0       -2.226741   -0.459399    0.877407
     18          6           0       -3.526969    2.802567    0.071147
     19          6           0       -1.702916   -3.494722    1.881611
     20          6           0        5.487961   -2.677774   -1.461171
     21          6           0        3.598500   -1.907439   -0.106821
     22          6           0       -2.037106    3.090512   -0.098100
     23          6           0        5.054469   -1.689008   -0.357221
     24          6           0       -5.031662    0.830019    0.454789
     25          6           0        2.641590   -1.090096    0.354903
     26          6           0        1.431958   -3.954649    1.875453
     27          6           0        4.392890   -3.731770   -1.346138
     28          6           0       -2.211013   -4.587339    0.962513
     29          6           0       -5.422081   -0.080351   -0.785539
     30          6           0       -4.423371    3.847916   -0.265254
     31          6           0       -1.240974    4.210313   -0.168533
     32          6           0        6.814045   -3.184848   -1.224593
     33          6           0        5.781060   -0.701910    0.167567
     34          6           0        0.109768    4.134239   -0.173543
     35          6           0        1.110385    5.219913   -0.459898
     36          6           0        2.303313    4.710849   -0.299433
     37          6           0       -3.122098   -3.992316   -0.198966
     38          6           0        5.511407    0.346195    1.169325
     39          6           0       -6.905043   -0.564068   -0.854763
     40          6           0        3.704101    5.252847   -0.445193
     41          6           0        2.172133    3.203217   -0.050563
     42          6           0        0.719332    6.602434   -0.772008
     43          6           0        4.343655    5.663310    0.924766
     44          1           0        0.619142    0.218385    0.407044
     45          1           0       -2.935406   -1.053607    1.127516
     46          1           0       -2.640573   -2.830688    2.009513
     47          1           0       -1.265974   -3.947988    2.698609
     48          1           0        5.426014   -2.260956   -2.522995
     49          1           0       -4.999796    0.181420    1.475192
     50          1           0       -5.823684    1.755410    0.514299
     51          1           0        2.844608    0.082621    0.319898
     52          1           0       -0.487648    1.675371    0.420932
     53          1           0        1.520165   -4.963588    1.101667
     54          1           0        2.516050   -3.885836    2.379830
     55          1           0        0.959938   -4.306032    2.810565
     56          1           0        2.487754   -3.767174   -0.522800
     57          1           0       -1.236211   -5.040719    0.485746
     58          1           0       -2.708258   -5.197053    1.708742
     59          1           0       -4.846504   -0.977835   -0.817314
     60          1           0       -5.159364    0.452306   -1.689732
     61          1           0       -4.633862    4.662188    0.497803
     62          1           0       -5.405444    3.520684   -0.619206
     63          1           0       -4.143746    4.424134   -1.348109
     64          1           0       -1.819995    5.007161   -0.470475
     65          1           0        7.503494   -2.243180   -1.347873
     66          1           0        6.981571   -4.026038   -1.997967
     67          1           0        6.987351   -3.542595   -0.268154
     68          1           0        6.785638   -0.591182   -0.121318
     69          1           0        5.122755    1.291557    0.704588
     70          1           0        6.651646    0.480445    1.422029
     71          1           0        4.794226   -0.052214    2.152493
     72          1           0        3.929258    6.021463   -1.074250
     73          1           0        4.325780    4.553837   -0.875296
     74          1           0        0.225809    6.747582   -1.784706
     75          1           0        1.685491    7.114377   -0.930752
     76          1           0        0.328636    7.169008    0.095974
     77          1           0        3.960306    6.707111    1.381602
     78          1           0        5.397396    5.966601    0.508416
     79          1           0        4.200534    4.632903    1.417959
     80          1           0       -3.503049   -4.383667   -1.973944
     81          1           0       -7.846366   -1.936005   -1.711407
 ---------------------------------------------------------------------

 SCF Done:  E(RB3LYP) =  -1949.08690661     A.U. after   16 cycles

 Excitation energies and oscillator strengths:

 Excited State   1:      Singlet-A      1.9582 eV  633.16 nm  f=0.3499  <S**2>=0.000
     156 ->157         0.70349
     156 <-157        -0.10568
 This state for optimization and/or second-order correction.
 Total Energy, E(TD-HF/TD-DFT) =  -1949.01494530
 Copying the excited state density for this state as the 1-particle RhoCI density.

 The electronic state is 1-A.
 Alpha  occ. eigenvalues --  -19.19956 -19.18876 -19.16160 -19.13009 -19.11299
 Alpha  occ. eigenvalues --  -19.10293 -14.37290 -14.37249 -14.35668 -14.29291
 Alpha  occ. eigenvalues --  -10.34018 -10.32756 -10.28431 -10.27324 -10.24813
 Alpha  occ. eigenvalues --  -10.24582 -10.24208 -10.23331 -10.23235 -10.23079
 Alpha  occ. eigenvalues --  -10.22369 -10.22258 -10.21797 -10.20990 -10.20988
 Alpha  occ. eigenvalues --  -10.20823 -10.20403 -10.20397 -10.20364 -10.20108
 Alpha  occ. eigenvalues --  -10.20071 -10.20063 -10.19985 -10.19876 -10.19849
 Alpha  occ. eigenvalues --  -10.19751 -10.19741 -10.19596 -10.19284 -10.18917
 Alpha  occ. eigenvalues --  -10.18466 -10.18440 -10.17367  -1.12875  -1.09783
 Alpha  occ. eigenvalues --   -1.04777  -1.02544  -1.00270  -0.99264  -0.98269
 Alpha  occ. eigenvalues --   -0.96097  -0.94664  -0.90009  -0.82874  -0.82330
 Alpha  occ. eigenvalues --   -0.82174  -0.81493  -0.79980  -0.79185  -0.77706
 Alpha  occ. eigenvalues --   -0.77326  -0.76863  -0.75960  -0.75468  -0.73306
 Alpha  occ. eigenvalues --   -0.71523  -0.69402  -0.69064  -0.67589  -0.67467
 Alpha  occ. eigenvalues --   -0.67167  -0.65753  -0.64318  -0.62567  -0.61206
 Alpha  occ. eigenvalues --   -0.60767  -0.60181  -0.59597  -0.57088  -0.56672
 Alpha  occ. eigenvalues --   -0.56065  -0.54918  -0.54345  -0.53816  -0.53136
 Alpha  occ. eigenvalues --   -0.52335  -0.52128  -0.51402  -0.50962  -0.50051
 Alpha  occ. eigenvalues --   -0.49696  -0.49405  -0.48945  -0.48370  -0.48145
 Alpha  occ. eigenvalues --   -0.47727  -0.47074  -0.46844  -0.46296  -0.45526
 Alpha  occ. eigenvalues --   -0.45296  -0.44941  -0.44529  -0.44291  -0.44111
 Alpha  occ. eigenvalues --   -0.43719  -0.43369  -0.42690  -0.42565  -0.42196
 Alpha  occ. eigenvalues --   -0.41765  -0.41674  -0.41350  -0.41337  -0.40954
 Alpha  occ. eigenvalues --   -0.40632  -0.40413  -0.40128  -0.39855  -0.39730
 Alpha  occ. eigenvalues --   -0.39092  -0.38899  -0.38682  -0.38213  -0.38113
 Alpha  occ. eigenvalues --   -0.37917  -0.37158  -0.36940  -0.36586  -0.35919
 Alpha  occ. eigenvalues --   -0.35851  -0.35696  -0.35326  -0.34997  -0.34708
 Alpha  occ. eigenvalues --   -0.34626  -0.34124  -0.33990  -0.33510  -0.33051
 Alpha  occ. eigenvalues --   -0.32679  -0.31934  -0.31826  -0.30868  -0.29896
 Alpha  occ. eigenvalues --   -0.28153  -0.27623  -0.26659  -0.26417  -0.25441
 Alpha  occ. eigenvalues --   -0.24958  -0.24727  -0.24439  -0.23873  -0.22241
 Alpha  occ. eigenvalues --   -0.18720
 Alpha virt. eigenvalues --   -0.10875  -0.06119  -0.04102  -0.01881  -0.00419
 Alpha virt. eigenvalues --   -0.00000   0.01630   0.02204   0.02564   0.03386
 Alpha virt. eigenvalues --    0.03830   0.04370   0.04966   0.05421   0.05637

 Mulliken charges:
               1
     1  O   -0.235680
     2  O   -0.182712
     3  O   -0.181915
     4  O   -0.148720
     5  O   -0.233788
     6  O   -0.268977
     7  N   -0.113106
     8  N   -0.156285
     9  N   -0.125390
    10  N   -0.371243
    11  C   -0.106291
    12  C    0.043725
    13  C   -0.097650
    14  C    0.021684
    15  C   -0.042260
    16  C    0.134609
    17  C    0.079274
    18  C   -0.073879
    19  C    0.079416
    20  C   -0.045774
    21  C    0.129248
    22  C    0.091258
    23  C    0.012828
    24  C    0.005333
    25  C   -0.154160
    26  C   -0.052092
    27  C    0.102122
    28  C    0.003318
    29  C    0.031330
    30  C   -0.014132
    31  C   -0.068579
    32  C    0.051159
    33  C   -0.160787
    34  C    0.148635
    35  C   -0.097639
    36  C   -0.141519
    37  C    0.123302
    38  C   -0.014334
    39  C    0.143878
    40  C    0.140960
    41  C    0.214146
    42  C    0.111657
    43  C   -0.086910
    44  H    0.151493
    45  H   -0.131876
    46  H    0.020983
    47  H   -0.020121
    48  H    0.054018
    49  H    0.046140
    50  H    0.041506
    51  H    0.084053
    52  H    0.137793
    53  H    0.049416
    54  H    0.047207
    55  H    0.016808
    56  H    0.150002
    57  H    0.042805
    58  H    0.049254
    59  H    0.025938
    60  H    0.025444
    61  H    0.046865
    62  H    0.010519
    63  H    0.036698
    64  H   -0.056988
    65  H    0.026736
    66  H    0.041510
    67  H   -0.009747
    68  H   -0.028158
    69  H    0.088827
    70  H    0.018951
    71  H    0.061963
    72  H   -0.045366
    73  H   -0.022338
    74  H    0.036547
    75  H   -0.008011
    76  H    0.033975
    77  H    0.037696
    78  H    0.019664
    79  H    0.062820
    80  H    0.182557
    81  H    0.180356
 Sum of Mulliken charges =  -0.00000

 Dipole moment (field-independent basis, Debye):
    X=             -2.1771    Y=              1.2827    Z=             -0.8993  Tot=              2.6821
 Quadrupole moment (field-independent basis, Debye-Ang):
   XX=           -260.7462   YY=           -242.4657   ZZ=           -254.2432
   XY=             20.7940   XZ=             13.5297   YZ=            -16.9248

 Normal termination of Gaussian 16 at Thu Jun 27 01:48:34 2019.
