 Gaussian 16, Revision A.03,
 Gaussian 16:  ES64L-G16RevA.03 25-Dec-2016

 --------------------------
 # td=(NStates=1) B3LYP/SVP
 --------------------------

 --
 TD
 --
 Symbolic Z-matrix:
 Charge =  0 Multiplicity = 1

                         Standard orientation:
 ---------------------------------------------------------------------
 Center     Atomic      Atomic             Coordinates (Angstroms)
 Number     Number       Type             X           Y           Z
 ---------------------------------------------------------------------
      1          8           0        4.689638   -4.697119   -2.027748
      2          8           0       -2.937741   -4.664779   -1.270374
      3          8           0       -7.271517   -1.422176   -1.757713
      4          8           0       -3.827316   -3.097015   -0.060169
      5          8           0       -7.757674   -0.415228    0.265488
      6          8           0        3.011904    2.388262    0.069129
      7          7           0        0.339430   -0.636061    0.454905
      8          7           0       -1.494872    1.652505    0.251883
      9          7           0        3.502572   -3.104868   -0.769582
     10          7           0        0.786897    2.868138    0.060160
     11          6           0       -0.678745   -2.556802    1.352453
     12          6           0       -0.870968   -1.177778    0.904914
     13          6           0        0.719796   -2.718665    1.192010
     14          6           0        1.389951   -1.614714    0.672798
     15          6           0       -3.725114    1.458630    0.384008
     16          6           0       -2.442669    0.778650    0.474302
     17          6           0       -2.177570   -0.519109    0.868351
     18          6           0       -3.557296    2.732846    0.017530
     19          6           0       -1.647582   -3.526318    1.845526
     20          6           0        5.631533   -2.417074   -1.394899
     21          6           0        3.744047   -1.871142   -0.083274
     22          6           0       -2.121742    2.841924   -0.067484
     23          6           0        5.126420   -1.364578   -0.293750
     24          6           0       -5.125467    0.675446    0.528610
     25          6           0        2.730883   -1.160386    0.512027
     26          6           0        1.449395   -4.074048    1.610692
     27          6           0        4.620951   -3.564743   -1.423063
     28          6           0       -2.086845   -4.508692    0.856737
     29          6           0       -5.508079   -0.110345   -0.852695
     30          6           0       -4.507349    3.718274   -0.348947
     31          6           0       -1.375222    3.971019   -0.401375
     32          6           0        7.073304   -2.844554   -1.006630
     33          6           0        5.804272   -0.489412    0.320840
     34          6           0        0.039344    3.939198   -0.312424
     35          6           0        0.943337    5.133564   -0.445297
     36          6           0        2.208427    4.702694   -0.279734
     37          6           0       -3.004660   -3.959952   -0.216278
     38          6           0        5.421271    0.343503    1.605012
     39          6           0       -6.954013   -0.692684   -0.642027
     40          6           0        3.523523    5.480303   -0.425900
     41          6           0        2.127390    3.253550    0.014431
     42          6           0        0.389146    6.434744   -0.809656
     43          6           0        4.274052    5.724193    0.973429
     44          1           0        0.641521    0.137238    0.082994
     45          1           0       -3.041618   -1.155717    1.339677
     46          1           0       -2.528029   -2.771505    2.108563
     47          1           0       -1.243650   -3.929711    2.930082
     48          1           0        5.787598   -1.887793   -2.399035
     49          1           0       -4.859872   -0.112483    1.230081
     50          1           0       -6.001359    1.197854    1.026677
     51          1           0        3.126386   -0.187151    0.638233
     52          1           0       -0.424643    1.633247    0.464211
     53          1           0        1.125957   -4.907357    0.964274
     54          1           0        2.440965   -4.217143    1.617158
     55          1           0        0.825846   -4.322003    2.537628
     56          1           0        2.695351   -3.562049   -0.713158
     57          1           0       -1.257562   -4.870757    0.322087
     58          1           0       -2.632379   -5.380912    1.293783
     59          1           0       -4.904699   -0.915350   -1.014365
     60          1           0       -5.443425    0.396254   -1.688959
     61          1           0       -4.443901    4.586121    0.259743
     62          1           0       -5.464837    3.328680    0.021163
     63          1           0       -4.402159    4.179639   -1.402185
     64          1           0       -1.753889    4.909160   -0.790885
     65          1           0        7.690021   -1.812668   -1.113066
     66          1           0        7.343238   -3.665043   -1.650119
     67          1           0        7.156309   -3.299897    0.022442
     68          1           0        6.724171   -0.110526    0.018132
     69          1           0        4.729666    1.164260    1.170755
     70          1           0        6.235686    0.691331    2.003451
     71          1           0        4.820204   -0.349902    2.448750
     72          1           0        3.421618    6.399847   -0.871488
     73          1           0        4.090091    4.779924   -1.062455
     74          1           0       -0.335119    6.468791   -1.633642
     75          1           0        1.214870    7.399728   -0.936528
     76          1           0       -0.311735    6.856114   -0.025462
     77          1           0        3.368923    6.178034    1.303601
     78          1           0        5.158516    6.225448    0.941484
     79          1           0        4.509248    4.801348    1.635417
     80          1           0       -3.625302   -4.567328   -2.028513
     81          1           0       -8.230880   -1.606544   -1.562406
 ---------------------------------------------------------------------

 SCF Done:  E(RB3LYP) =  -1949.07710378     A.U. after   17 cycles

 Excitation energies and oscillator strengths:

 Excited State   1:      Singlet-A      1.9007 eV  652.29 nm  f=0.3766  <S**2>=0.000
     156 ->157         0.70773
     156 <-157        -0.12238
 This state for optimization and/or second-order correction.
 Total Energy, E(TD-HF/TD-DFT) =  -1949.00725267
 Copying the excited state density for this state as the 1-particle RhoCI density.

 The electronic state is 1-A.
 Alpha  occ. eigenvalues --  -19.20302 -19.19234 -19.13740 -19.12819 -19.10396
 Alpha  occ. eigenvalues --  -19.10184 -14.36805 -14.36704 -14.36018 -14.28701
 Alpha  occ. eigenvalues --  -10.32942 -10.32826 -10.29445 -10.26374 -10.24386
 Alpha  occ. eigenvalues --  -10.24090 -10.23897 -10.23077 -10.22837 -10.22641
 Alpha  occ. eigenvalues --  -10.22194 -10.21586 -10.21270 -10.21266 -10.21160
 Alpha  occ. eigenvalues --  -10.21094 -10.20600 -10.20122 -10.20091 -10.20061
 Alpha  occ. eigenvalues --  -10.19717 -10.19593 -10.19572 -10.19491 -10.19434
 Alpha  occ. eigenvalues --  -10.19331 -10.19007 -10.18887 -10.18816 -10.18641
 Alpha  occ. eigenvalues --  -10.18605 -10.18500 -10.17485  -1.12960  -1.09121
 Alpha  occ. eigenvalues --   -1.01831  -1.00514  -1.00413  -0.99953  -0.99668
 Alpha  occ. eigenvalues --   -0.96592  -0.93698  -0.91196  -0.83638  -0.82781
 Alpha  occ. eigenvalues --   -0.81957  -0.80707  -0.79467  -0.78972  -0.78276
 Alpha  occ. eigenvalues --   -0.77016  -0.76161  -0.75178  -0.74280  -0.72517
 Alpha  occ. eigenvalues --   -0.71945  -0.70140  -0.69605  -0.69158  -0.67647
 Alpha  occ. eigenvalues --   -0.66874  -0.66135  -0.64644  -0.63839  -0.62211
 Alpha  occ. eigenvalues --   -0.61388  -0.59327  -0.58925  -0.58034  -0.57359
 Alpha  occ. eigenvalues --   -0.56823  -0.55926  -0.55583  -0.54321  -0.53417
 Alpha  occ. eigenvalues --   -0.52422  -0.51653  -0.50765  -0.50669  -0.49430
 Alpha  occ. eigenvalues --   -0.49289  -0.49058  -0.48925  -0.48683  -0.48155
 Alpha  occ. eigenvalues --   -0.47278  -0.46729  -0.46411  -0.46028  -0.45880
 Alpha  occ. eigenvalues --   -0.45753  -0.45172  -0.44602  -0.44145  -0.43820
 Alpha  occ. eigenvalues --   -0.43537  -0.43388  -0.43052  -0.42542  -0.41727
 Alpha  occ. eigenvalues --   -0.41649  -0.41582  -0.41181  -0.41064  -0.40654
 Alpha  occ. eigenvalues --   -0.40488  -0.40413  -0.39611  -0.39484  -0.39405
 Alpha  occ. eigenvalues --   -0.39359  -0.39003  -0.38788  -0.38416  -0.38206
 Alpha  occ. eigenvalues --   -0.37796  -0.37651  -0.37584  -0.36423  -0.36067
 Alpha  occ. eigenvalues --   -0.35923  -0.35781  -0.35516  -0.35270  -0.34942
 Alpha  occ. eigenvalues --   -0.33718  -0.33588  -0.33509  -0.33228  -0.32926
 Alpha  occ. eigenvalues --   -0.32708  -0.32118  -0.30719  -0.29253  -0.28914
 Alpha  occ. eigenvalues --   -0.28728  -0.27110  -0.26463  -0.26207  -0.25856
 Alpha  occ. eigenvalues --   -0.25263  -0.25157  -0.24479  -0.23366  -0.21481
 Alpha  occ. eigenvalues --   -0.17705
 Alpha virt. eigenvalues --   -0.10309  -0.05727  -0.03393  -0.00896  -0.00766
 Alpha virt. eigenvalues --   -0.00190   0.01621   0.02125   0.03644   0.03776
 Alpha virt. eigenvalues --    0.04114   0.04987   0.05385   0.05793   0.06207

 Mulliken charges:
               1
     1  O   -0.283089
     2  O   -0.150913
     3  O   -0.199498
     4  O   -0.223287
     5  O   -0.257763
     6  O   -0.220992
     7  N   -0.073867
     8  N   -0.070680
     9  N   -0.054587
    10  N   -0.312095
    11  C   -0.122412
    12  C    0.078065
    13  C   -0.152793
    14  C    0.087443
    15  C   -0.101990
    16  C    0.077703
    17  C   -0.109584
    18  C   -0.114113
    19  C    0.010637
    20  C   -0.122413
    21  C    0.009576
    22  C    0.137027
    23  C    0.130671
    24  C    0.060976
    25  C   -0.039236
    26  C    0.123260
    27  C    0.194159
    28  C    0.108333
    29  C    0.119997
    30  C    0.156785
    31  C   -0.137533
    32  C    0.008596
    33  C   -0.204090
    34  C    0.050135
    35  C   -0.038958
    36  C   -0.220298
    37  C    0.063485
    38  C    0.023013
    39  C    0.159101
    40  C    0.138431
    41  C    0.158659
    42  C    0.020104
    43  C   -0.010114
    44  H    0.065863
    45  H    0.051589
    46  H    0.027763
    47  H    0.050278
    48  H    0.060295
    49  H   -0.000110
    50  H    0.048140
    51  H   -0.016510
    52  H    0.181893
    53  H    0.005728
    54  H   -0.006525
    55  H    0.011188
    56  H    0.077913
    57  H    0.005829
    58  H    0.049594
    59  H    0.001213
    60  H   -0.011127
    61  H   -0.009147
    62  H    0.006409
    63  H    0.040934
    64  H   -0.046089
    65  H    0.040720
    66  H    0.028279
    67  H    0.018175
    68  H   -0.025329
    69  H    0.100658
    70  H   -0.031994
    71  H    0.045347
    72  H   -0.027549
    73  H    0.013673
    74  H    0.025944
    75  H    0.040055
    76  H    0.020973
    77  H    0.014439
    78  H    0.001842
    79  H    0.034360
    80  H    0.227783
    81  H    0.181657
 Sum of Mulliken charges =  -0.00000

 Dipole moment (field-independent basis, Debye):
    X=             -4.0082    Y=              1.1324    Z=             -0.6571  Tot=              4.2166
 Quadrupole moment (field-independent basis, Debye-Ang):
   XX=           -253.1481   YY=           -234.5524   ZZ=           -255.2886
   XY=             23.4184   XZ=             22.2308   YZ=            -12.2830

 Normal termination of Gaussian 16 at Fri Jun 28 00:41:56 2019.
