 Gaussian 16, Revision A.03,
 Gaussian 16:  ES64L-G16RevA.03 25-Dec-2016

 --------------------------
 # td=(NStates=1) B3LYP/SVP
 --------------------------

 --
 TD
 --
 Symbolic Z-matrix:
 Charge =  0 Multiplicity = 1

                         Standard orientation:
 ---------------------------------------------------------------------
 Center     Atomic      Atomic             Coordinates (Angstroms)
 Number     Number       Type             X           Y           Z
 ---------------------------------------------------------------------
      1          8           0        4.339456   -4.658793   -2.003613
      2          8           0       -2.879797   -4.898786   -1.411160
      3          8           0       -7.145234   -1.550531   -1.645169
      4          8           0       -3.723922   -3.083125   -0.286049
      5          8           0       -7.603789   -0.364451    0.281266
      6          8           0        3.021984    2.504687    0.299240
      7          7           0        0.245621   -0.645765    0.608295
      8          7           0       -1.535194    1.823834    0.394181
      9          7           0        3.287587   -3.150488   -0.606852
     10          7           0        0.744819    2.984204    0.140594
     11          6           0       -0.719201   -2.480955    1.296999
     12          6           0       -0.968677   -1.160325    0.893999
     13          6           0        0.749127   -2.720121    1.236279
     14          6           0        1.225776   -1.467940    0.802194
     15          6           0       -3.755054    1.460053    0.269801
     16          6           0       -2.439507    0.893026    0.657196
     17          6           0       -2.195227   -0.491557    0.780144
     18          6           0       -3.448244    2.766558   -0.029857
     19          6           0       -1.735140   -3.436588    1.854449
     20          6           0        5.549034   -2.649710   -1.277358
     21          6           0        3.583945   -1.867014   -0.036266
     22          6           0       -2.086020    3.007767   -0.063099
     23          6           0        4.989317   -1.593375   -0.381986
     24          6           0       -5.041246    0.799151    0.394707
     25          6           0        2.725586   -1.041771    0.517100
     26          6           0        1.415064   -3.918819    1.739696
     27          6           0        4.388169   -3.642816   -1.369883
     28          6           0       -2.058970   -4.519822    0.865460
     29          6           0       -5.477684   -0.175218   -0.734066
     30          6           0       -4.464973    3.831396   -0.409717
     31          6           0       -1.319696    4.109917   -0.301102
     32          6           0        6.977244   -3.321542   -0.944726
     33          6           0        5.809160   -0.657793    0.130319
     34          6           0        0.080502    4.075356   -0.260431
     35          6           0        1.066531    5.178780   -0.475938
     36          6           0        2.339363    4.759988   -0.317263
     37          6           0       -2.965576   -4.101563   -0.285095
     38          6           0        5.424466    0.306350    1.202838
     39          6           0       -6.828979   -0.692494   -0.556894
     40          6           0        3.726691    5.363456   -0.492659
     41          6           0        2.132572    3.297198    0.128392
     42          6           0        0.515425    6.550764   -0.925701
     43          6           0        4.287265    5.659436    0.861153
     44          1           0        0.434357    0.231610    0.324350
     45          1           0       -3.102154   -1.225158    0.861286
     46          1           0       -2.606413   -2.758277    1.842654
     47          1           0       -1.286818   -3.817982    2.877912
     48          1           0        5.350124   -2.141287   -2.210647
     49          1           0       -4.984334    0.126579    1.237257
     50          1           0       -5.819130    1.319587    0.540650
     51          1           0        2.944132   -0.066451    0.563851
     52          1           0       -0.436160    1.714209    0.523766
     53          1           0        1.412472   -4.636803    1.149652
     54          1           0        2.531806   -3.768034    2.034719
     55          1           0        0.898921   -4.466314    2.818082
     56          1           0        2.364113   -3.630183   -0.672826
     57          1           0       -1.171823   -5.148271    0.483044
     58          1           0       -2.794385   -5.058401    1.373409
     59          1           0       -4.675868   -1.002183   -0.927720
     60          1           0       -5.373734    0.422169   -1.701670
     61          1           0       -4.309743    4.514021    0.459244
     62          1           0       -5.615976    3.426830   -0.496766
     63          1           0       -4.055522    4.572484   -1.320430
     64          1           0       -1.720022    5.067394   -0.773260
     65          1           0        7.969958   -2.595449   -1.027451
     66          1           0        7.126431   -4.100062   -1.810807
     67          1           0        7.122473   -3.873432    0.061942
     68          1           0        6.987652   -0.721310   -0.000882
     69          1           0        4.881079    1.285269    0.923096
     70          1           0        6.327074    0.673784    1.703323
     71          1           0        4.840074   -0.170140    2.010929
     72          1           0        3.673904    6.221960   -1.042070
     73          1           0        4.445840    4.637260   -0.952867
     74          1           0       -0.161029    6.390903   -1.972710
     75          1           0        1.425211    7.168073   -1.118403
     76          1           0       -0.423309    7.089673   -0.340046
     77          1           0        3.576421    6.340030    1.338943
     78          1           0        5.314320    6.139487    0.758419
     79          1           0        4.487862    4.810756    1.461180
     80          1           0       -3.611545   -4.511478   -1.740228
     81          1           0       -8.121938   -1.854010   -1.480693
 ---------------------------------------------------------------------

 SCF Done:  E(RB3LYP) =  -1949.07568856     A.U. after   16 cycles

 Excitation energies and oscillator strengths:

 Excited State   1:      Singlet-A      2.0527 eV  604.00 nm  f=0.3941  <S**2>=0.000
     156 ->157         0.70299
     156 <-157        -0.11926
 This state for optimization and/or second-order correction.
 Total Energy, E(TD-HF/TD-DFT) =  -1949.00025282
 Copying the excited state density for this state as the 1-particle RhoCI density.

 The electronic state is 1-A.
 Alpha  occ. eigenvalues --  -19.20299 -19.17415 -19.15642 -19.13848 -19.11152
 Alpha  occ. eigenvalues --  -19.11043 -14.37848 -14.36633 -14.35797 -14.29086
 Alpha  occ. eigenvalues --  -10.35279 -10.32112 -10.29148 -10.26967 -10.24089
 Alpha  occ. eigenvalues --  -10.23948 -10.23481 -10.23116 -10.22731 -10.22703
 Alpha  occ. eigenvalues --  -10.22619 -10.22246 -10.22211 -10.21919 -10.21851
 Alpha  occ. eigenvalues --  -10.21665 -10.21174 -10.20711 -10.20594 -10.20499
 Alpha  occ. eigenvalues --  -10.20152 -10.19896 -10.19883 -10.19584 -10.19565
 Alpha  occ. eigenvalues --  -10.19473 -10.19421 -10.18997 -10.18896 -10.18421
 Alpha  occ. eigenvalues --  -10.18291 -10.17525 -10.17423  -1.12887  -1.08398
 Alpha  occ. eigenvalues --   -1.03937  -1.02730  -1.01818  -1.01424  -0.99978
 Alpha  occ. eigenvalues --   -0.98760  -0.93720  -0.91685  -0.83651  -0.82430
 Alpha  occ. eigenvalues --   -0.81733  -0.81568  -0.80105  -0.79487  -0.78909
 Alpha  occ. eigenvalues --   -0.77365  -0.76792  -0.75284  -0.73908  -0.73114
 Alpha  occ. eigenvalues --   -0.71522  -0.69859  -0.69082  -0.68280  -0.67694
 Alpha  occ. eigenvalues --   -0.67285  -0.65008  -0.64246  -0.61930  -0.61449
 Alpha  occ. eigenvalues --   -0.60856  -0.59223  -0.58481  -0.57937  -0.57369
 Alpha  occ. eigenvalues --   -0.55879  -0.55616  -0.54926  -0.53568  -0.52811
 Alpha  occ. eigenvalues --   -0.52707  -0.52422  -0.51724  -0.51033  -0.50550
 Alpha  occ. eigenvalues --   -0.49673  -0.49312  -0.48919  -0.48004  -0.47818
 Alpha  occ. eigenvalues --   -0.47258  -0.46884  -0.46218  -0.45717  -0.45420
 Alpha  occ. eigenvalues --   -0.45303  -0.45125  -0.44864  -0.44489  -0.44187
 Alpha  occ. eigenvalues --   -0.44060  -0.43665  -0.42806  -0.42608  -0.42284
 Alpha  occ. eigenvalues --   -0.42200  -0.41764  -0.41474  -0.41301  -0.41023
 Alpha  occ. eigenvalues --   -0.40855  -0.40319  -0.39977  -0.39694  -0.39513
 Alpha  occ. eigenvalues --   -0.39276  -0.38791  -0.38576  -0.38343  -0.38148
 Alpha  occ. eigenvalues --   -0.37884  -0.37769  -0.37386  -0.37270  -0.37248
 Alpha  occ. eigenvalues --   -0.36686  -0.36318  -0.36125  -0.35160  -0.34618
 Alpha  occ. eigenvalues --   -0.34439  -0.34244  -0.34137  -0.34047  -0.33576
 Alpha  occ. eigenvalues --   -0.33365  -0.32379  -0.32252  -0.30612  -0.30029
 Alpha  occ. eigenvalues --   -0.29178  -0.27604  -0.26442  -0.26278  -0.25297
 Alpha  occ. eigenvalues --   -0.25010  -0.24613  -0.24456  -0.23514  -0.21953
 Alpha  occ. eigenvalues --   -0.18196
 Alpha virt. eigenvalues --   -0.10271  -0.05376  -0.03592  -0.03434  -0.00501
 Alpha virt. eigenvalues --    0.00885   0.02099   0.02425   0.03086   0.03938
 Alpha virt. eigenvalues --    0.04130   0.04692   0.05115   0.05302   0.05991

 Mulliken charges:
               1
     1  O   -0.189426
     2  O   -0.119619
     3  O   -0.274469
     4  O   -0.282522
     5  O   -0.193213
     6  O   -0.180658
     7  N    0.107986
     8  N   -0.112270
     9  N   -0.197100
    10  N   -0.329212
    11  C   -0.170724
    12  C    0.034989
    13  C   -0.149075
    14  C   -0.047613
    15  C   -0.094579
    16  C    0.059438
    17  C   -0.102323
    18  C   -0.109070
    19  C    0.085861
    20  C    0.055121
    21  C    0.197028
    22  C    0.169967
    23  C   -0.061828
    24  C    0.226399
    25  C   -0.025376
    26  C    0.095281
    27  C    0.077491
    28  C    0.105626
    29  C   -0.101512
    30  C    0.007384
    31  C   -0.144374
    32  C   -0.032159
    33  C   -0.172978
    34  C    0.061894
    35  C   -0.061644
    36  C   -0.207500
    37  C    0.124518
    38  C    0.008103
    39  C    0.180367
    40  C    0.173612
    41  C    0.148823
    42  C   -0.024665
    43  C   -0.007040
    44  H    0.065009
    45  H    0.063792
    46  H    0.000511
    47  H    0.045278
    48  H    0.038411
    49  H   -0.002312
    50  H   -0.078110
    51  H   -0.059470
    52  H    0.182458
    53  H   -0.050287
    54  H    0.043228
    55  H    0.023014
    56  H    0.145355
    57  H    0.059769
    58  H    0.021833
    59  H    0.077308
    60  H    0.045827
    61  H    0.029553
    62  H    0.058970
    63  H    0.042246
    64  H   -0.017008
    65  H    0.045610
    66  H    0.053121
    67  H    0.049265
    68  H    0.024643
    69  H    0.081496
    70  H   -0.011133
    71  H    0.023368
    72  H   -0.033880
    73  H    0.015205
    74  H    0.037596
    75  H    0.031739
    76  H    0.055401
    77  H    0.010003
    78  H    0.007962
    79  H    0.018572
    80  H    0.125048
    81  H    0.201673
 Sum of Mulliken charges =  -0.00000

 Dipole moment (field-independent basis, Debye):
    X=             -1.7020    Y=              0.0205    Z=              0.3091  Tot=              1.7300
 Quadrupole moment (field-independent basis, Debye-Ang):
   XX=           -247.3434   YY=           -239.8119   ZZ=           -260.1036
   XY=             17.1385   XZ=             12.1560   YZ=            -17.4755

 Normal termination of Gaussian 16 at Mon Jul  1 20:45:45 2019.
