 Gaussian 16, Revision A.03,
 Gaussian 16:  ES64L-G16RevA.03 25-Dec-2016

 --------------------------
 # td=(NStates=1) B3LYP/SVP
 --------------------------

 --
 TD
 --
 Symbolic Z-matrix:
 Charge =  0 Multiplicity = 1

                         Standard orientation:
 ---------------------------------------------------------------------
 Center     Atomic      Atomic             Coordinates (Angstroms)
 Number     Number       Type             X           Y           Z
 ---------------------------------------------------------------------
      1          8           0        4.687862   -4.604503   -1.906363
      2          8           0       -2.581732   -4.859075   -1.333964
      3          8           0       -7.081682   -1.698067   -1.767570
      4          8           0       -3.507889   -3.181407   -0.196737
      5          8           0       -7.555605   -0.764858    0.127544
      6          8           0        2.924570    2.406134    0.120756
      7          7           0        0.270907   -0.486972    0.597003
      8          7           0       -1.622059    1.758518    0.333099
      9          7           0        3.487345   -3.035281   -0.585567
     10          7           0        0.635218    2.891327    0.040089
     11          6           0       -0.645182   -2.480914    1.395770
     12          6           0       -0.885928   -1.215285    0.858816
     13          6           0        0.760439   -2.651475    1.226298
     14          6           0        1.302294   -1.378862    0.733806
     15          6           0       -3.888732    1.335867    0.400521
     16          6           0       -2.524265    0.648399    0.558008
     17          6           0       -2.202224   -0.602516    0.909552
     18          6           0       -3.703861    2.618549    0.070128
     19          6           0       -1.478205   -3.484952    1.825665
     20          6           0        5.711532   -2.441941   -1.244573
     21          6           0        3.639733   -1.765186   -0.078754
     22          6           0       -2.240208    2.937133    0.025890
     23          6           0        5.100607   -1.408886   -0.366469
     24          6           0       -5.132626    0.534167    0.414487
     25          6           0        2.704750   -0.937998    0.399524
     26          6           0        1.574487   -3.842271    1.759405
     27          6           0        4.600827   -3.474914   -1.299386
     28          6           0       -1.844916   -4.608926    0.869491
     29          6           0       -5.464967   -0.343533   -0.837790
     30          6           0       -4.678751    3.809306   -0.300983
     31          6           0       -1.420033    4.100985   -0.139802
     32          6           0        7.080047   -2.882299   -1.059518
     33          6           0        5.746891   -0.431273    0.217310
     34          6           0       -0.000914    4.057167   -0.229477
     35          6           0        0.833614    5.216890   -0.565151
     36          6           0        2.176060    4.727288   -0.520169
     37          6           0       -2.814773   -4.134608   -0.190260
     38          6           0        5.371926    0.382206    1.388880
     39          6           0       -6.836730   -0.981706   -0.704799
     40          6           0        3.314571    5.439098   -0.478972
     41          6           0        1.966006    3.214533   -0.071879
     42          6           0        0.397696    6.602304   -0.848455
     43          6           0        3.835042    5.964948    0.931705
     44          1           0        0.340943    0.375112    0.220495
     45          1           0       -3.022052   -1.053931    0.922496
     46          1           0       -2.444376   -3.255482    2.389444
     47          1           0       -1.081467   -4.025312    2.774073
     48          1           0        5.801728   -1.760560   -2.298862
     49          1           0       -4.909256    0.042514    1.334782
     50          1           0       -5.859185    1.297079    0.410887
     51          1           0        2.799792    0.109538    0.388930
     52          1           0       -0.617766    1.936971    0.590901
     53          1           0        1.856379   -4.758053    1.043811
     54          1           0        2.744029   -3.405827    1.791585
     55          1           0        1.153367   -4.127036    2.749446
     56          1           0        2.667795   -3.818635   -0.700246
     57          1           0       -1.071128   -5.106919    0.331600
     58          1           0       -2.602681   -5.543626    1.254632
     59          1           0       -4.837858   -1.454843   -0.730516
     60          1           0       -5.288308    0.110502   -1.772512
     61          1           0       -4.284708    4.650826    0.216101
     62          1           0       -5.773016    3.467473    0.075833
     63          1           0       -4.516695    4.154094   -1.323837
     64          1           0       -1.876590    5.090921   -0.344172
     65          1           0        8.055435   -2.340601   -1.270592
     66          1           0        7.211097   -3.690352   -1.715752
     67          1           0        7.145043   -3.270176    0.005079
     68          1           0        7.069177   -0.575359    0.247496
     69          1           0        4.952110    1.334253    0.970354
     70          1           0        6.333392    0.585735    1.910045
     71          1           0        4.535921    0.031579    1.987834
     72          1           0        3.184126    6.476229   -0.984176
     73          1           0        4.390101    5.020999   -0.916195
     74          1           0        0.098448    6.642763   -1.982511
     75          1           0        1.259651    7.322973   -0.850467
     76          1           0       -0.349026    6.886649   -0.008853
     77          1           0        3.045517    6.398746    1.503710
     78          1           0        4.786656    6.385333    0.732845
     79          1           0        3.779541    5.074795    1.606657
     80          1           0       -3.154420   -4.522858   -2.164296
     81          1           0       -8.131044   -2.092231   -1.730684
 ---------------------------------------------------------------------

 SCF Done:  E(RB3LYP) =  -1948.98820808     A.U. after   17 cycles

 Excitation energies and oscillator strengths:

 Excited State   1:      Singlet-A      1.9065 eV  650.33 nm  f=0.2934  <S**2>=0.000
     156 ->157         0.70608
 This state for optimization and/or second-order correction.
 Total Energy, E(TD-HF/TD-DFT) =  -1948.91814615
 Copying the excited state density for this state as the 1-particle RhoCI density.

 The electronic state is 1-A.
 Alpha  occ. eigenvalues --  -19.18366 -19.18316 -19.14213 -19.11859 -19.10593
 Alpha  occ. eigenvalues --  -19.10067 -14.38574 -14.37752 -14.35455 -14.29694
 Alpha  occ. eigenvalues --  -10.32688 -10.30335 -10.29404 -10.27134 -10.24966
 Alpha  occ. eigenvalues --  -10.24427 -10.23822 -10.23539 -10.23269 -10.23159
 Alpha  occ. eigenvalues --  -10.22744 -10.21892 -10.21471 -10.21352 -10.21336
 Alpha  occ. eigenvalues --  -10.21064 -10.20801 -10.20760 -10.20730 -10.20554
 Alpha  occ. eigenvalues --  -10.20018 -10.19862 -10.19757 -10.19675 -10.19558
 Alpha  occ. eigenvalues --  -10.19443 -10.19402 -10.19325 -10.19114 -10.18302
 Alpha  occ. eigenvalues --  -10.18246 -10.18231 -10.17095  -1.11963  -1.10144
 Alpha  occ. eigenvalues --   -1.02410  -1.01066  -1.00591  -0.99100  -0.98589
 Alpha  occ. eigenvalues --   -0.96137  -0.94025  -0.91586  -0.84172  -0.82569
 Alpha  occ. eigenvalues --   -0.81996  -0.81189  -0.80782  -0.78459  -0.77863
 Alpha  occ. eigenvalues --   -0.76693  -0.76434  -0.75397  -0.74313  -0.72144
 Alpha  occ. eigenvalues --   -0.70955  -0.69679  -0.69309  -0.68853  -0.67802
 Alpha  occ. eigenvalues --   -0.67382  -0.65557  -0.64017  -0.62859  -0.61881
 Alpha  occ. eigenvalues --   -0.60516  -0.59197  -0.58467  -0.57428  -0.56510
 Alpha  occ. eigenvalues --   -0.55659  -0.55281  -0.54460  -0.52596  -0.52324
 Alpha  occ. eigenvalues --   -0.51870  -0.51397  -0.50842  -0.50682  -0.49519
 Alpha  occ. eigenvalues --   -0.49259  -0.49198  -0.48553  -0.48075  -0.47876
 Alpha  occ. eigenvalues --   -0.47630  -0.47331  -0.46575  -0.46091  -0.45438
 Alpha  occ. eigenvalues --   -0.44768  -0.44645  -0.44221  -0.44037  -0.43671
 Alpha  occ. eigenvalues --   -0.43575  -0.43372  -0.43103  -0.42670  -0.41955
 Alpha  occ. eigenvalues --   -0.41718  -0.41513  -0.41223  -0.41062  -0.40861
 Alpha  occ. eigenvalues --   -0.40635  -0.40405  -0.39881  -0.39503  -0.39446
 Alpha  occ. eigenvalues --   -0.39171  -0.38863  -0.38699  -0.38421  -0.38180
 Alpha  occ. eigenvalues --   -0.37803  -0.37400  -0.37143  -0.36542  -0.36316
 Alpha  occ. eigenvalues --   -0.35909  -0.35466  -0.34678  -0.34372  -0.33668
 Alpha  occ. eigenvalues --   -0.33441  -0.33281  -0.33208  -0.33109  -0.32714
 Alpha  occ. eigenvalues --   -0.32394  -0.31456  -0.30886  -0.29933  -0.29317
 Alpha  occ. eigenvalues --   -0.28534  -0.27621  -0.25877  -0.25794  -0.25575
 Alpha  occ. eigenvalues --   -0.25085  -0.24232  -0.23854  -0.22663  -0.21742
 Alpha  occ. eigenvalues --   -0.18107
 Alpha virt. eigenvalues --   -0.10236  -0.05681  -0.03175  -0.01861  -0.00352
 Alpha virt. eigenvalues --    0.00473   0.01061   0.02040   0.02407   0.03269
 Alpha virt. eigenvalues --    0.03626   0.04195   0.04366   0.04902   0.05104

 Mulliken charges:
               1
     1  O   -0.284880
     2  O   -0.265039
     3  O   -0.239176
     4  O   -0.172358
     5  O   -0.134777
     6  O   -0.255619
     7  N   -0.009677
     8  N   -0.159243
     9  N   -0.175475
    10  N   -0.283673
    11  C    0.002142
    12  C    0.073394
    13  C   -0.154927
    14  C    0.017645
    15  C   -0.132504
    16  C    0.067957
    17  C    0.096954
    18  C   -0.118849
    19  C    0.047428
    20  C   -0.041039
    21  C    0.180580
    22  C    0.075091
    23  C   -0.014631
    24  C    0.184839
    25  C   -0.065807
    26  C   -0.033896
    27  C    0.143937
    28  C   -0.004963
    29  C   -0.091881
    30  C    0.105172
    31  C   -0.121784
    32  C    0.056552
    33  C   -0.235519
    34  C    0.079457
    35  C   -0.117518
    36  C   -0.060020
    37  C    0.107407
    38  C    0.060051
    39  C    0.088369
    40  C   -0.098964
    41  C    0.173341
    42  C    0.059832
    43  C    0.052032
    44  H    0.094150
    45  H   -0.133484
    46  H    0.011717
    47  H    0.008110
    48  H    0.075667
    49  H    0.020484
    50  H   -0.020764
    51  H   -0.016436
    52  H    0.157538
    53  H    0.036224
    54  H    0.047353
    55  H    0.044019
    56  H    0.198013
    57  H    0.028287
    58  H    0.058920
    59  H    0.095403
    60  H    0.026787
    61  H    0.008001
    62  H    0.052424
    63  H    0.023432
    64  H   -0.027557
    65  H    0.028571
    66  H    0.008164
    67  H    0.009251
    68  H    0.023880
    69  H    0.059230
    70  H    0.013880
    71  H    0.023041
    72  H    0.011285
    73  H    0.038132
    74  H    0.050409
    75  H    0.016959
    76  H    0.053556
    77  H   -0.013895
    78  H    0.028516
    79  H    0.005730
    80  H    0.223458
    81  H    0.231577
 Sum of Mulliken charges =  -0.00000

 Dipole moment (field-independent basis, Debye):
    X=             -4.2105    Y=              1.4728    Z=             -0.1531  Tot=              4.4633
 Quadrupole moment (field-independent basis, Debye-Ang):
   XX=           -247.6663   YY=           -234.8726   ZZ=           -254.4413
   XY=             22.5708   XZ=             18.1453   YZ=            -11.8340

 Normal termination of Gaussian 16 at Sat Jul  6 15:58:43 2019.
