 Gaussian 16, Revision A.03,
 Gaussian 16:  ES64L-G16RevA.03 25-Dec-2016

 --------------------------
 # td=(NStates=1) B3LYP/SVP
 --------------------------

 --
 TD
 --
 Symbolic Z-matrix:
 Charge =  0 Multiplicity = 1

                         Standard orientation:
 ---------------------------------------------------------------------
 Center     Atomic      Atomic             Coordinates (Angstroms)
 Number     Number       Type             X           Y           Z
 ---------------------------------------------------------------------
      1          8           0        4.458866   -4.819382   -1.850051
      2          8           0       -3.035214   -4.929749   -1.340567
      3          8           0       -6.873552   -1.570154   -1.698430
      4          8           0       -3.737741   -3.067385   -0.282092
      5          8           0       -7.530019   -0.767209    0.204711
      6          8           0        3.034711    2.423441    0.153726
      7          7           0        0.269335   -0.568155    0.626162
      8          7           0       -1.516474    1.799807    0.325619
      9          7           0        3.348748   -3.162278   -0.703887
     10          7           0        0.783033    2.943333    0.064082
     11          6           0       -0.697152   -2.397663    1.400810
     12          6           0       -0.971068   -1.117575    0.905962
     13          6           0        0.708571   -2.734411    1.236152
     14          6           0        1.317147   -1.496221    0.681328
     15          6           0       -3.747677    1.505808    0.362615
     16          6           0       -2.483870    0.937468    0.603314
     17          6           0       -2.264792   -0.461837    0.842234
     18          6           0       -3.516678    2.871432    0.040870
     19          6           0       -1.753342   -3.400959    1.815714
     20          6           0        5.522672   -2.619503   -1.270002
     21          6           0        3.670921   -1.820150   -0.175684
     22          6           0       -2.034364    3.000619   -0.097885
     23          6           0        5.044725   -1.593805   -0.287647
     24          6           0       -5.094451    0.835878    0.434355
     25          6           0        2.736943   -1.072377    0.497826
     26          6           0        1.394309   -3.837375    1.765739
     27          6           0        4.418940   -3.704830   -1.428651
     28          6           0       -2.126877   -4.511055    0.814231
     29          6           0       -5.426769   -0.019602   -0.739149
     30          6           0       -4.484553    3.998446   -0.278487
     31          6           0       -1.179868    4.079390   -0.311209
     32          6           0        6.892281   -3.290889   -0.939050
     33          6           0        5.830409   -0.614340    0.295546
     34          6           0        0.164951    3.980925   -0.262810
     35          6           0        1.032779    5.189841   -0.622734
     36          6           0        2.309457    4.669225   -0.419553
     37          6           0       -3.105857   -4.124893   -0.253258
     38          6           0        5.363804    0.369553    1.356665
     39          6           0       -6.714481   -0.771941   -0.680990
     40          6           0        3.544463    5.376098   -0.490676
     41          6           0        2.143100    3.230258   -0.100404
     42          6           0        0.527222    6.565542   -0.932975
     43          6           0        4.151414    5.594890    0.920981
     44          1           0        0.340659    0.295971   -0.117112
     45          1           0       -3.091370   -1.107877    1.010497
     46          1           0       -2.615648   -2.830288    2.310722
     47          1           0       -1.499008   -4.056034    2.688150
     48          1           0        5.597724   -2.173253   -2.290220
     49          1           0       -4.966430    0.022062    1.327201
     50          1           0       -5.818583    1.620432    0.771619
     51          1           0        2.767300    0.069244    0.548466
     52          1           0       -0.528771    1.831835    0.553892
     53          1           0        1.599795   -4.548381    0.964298
     54          1           0        2.377786   -3.595133    2.227042
     55          1           0        0.743211   -4.351343    2.598672
     56          1           0        2.444873   -3.314468   -0.287140
     57          1           0       -1.122890   -4.720969    0.337724
     58          1           0       -2.619694   -5.304975    1.371474
     59          1           0       -4.613648   -0.718155   -0.620926
     60          1           0       -5.378917    0.588093   -1.695804
     61          1           0       -4.542349    4.815551    0.650788
     62          1           0       -5.592036    3.569412   -0.269501
     63          1           0       -4.312713    4.468893   -1.164087
     64          1           0       -1.757382    5.017222   -0.561336
     65          1           0        7.852769   -2.749082   -1.127075
     66          1           0        7.043487   -4.141827   -1.483883
     67          1           0        6.897615   -3.480134    0.159133
     68          1           0        6.741613   -0.334023   -0.015831
     69          1           0        4.894222    1.263948    0.743349
     70          1           0        6.184441    0.829206    2.102755
     71          1           0        4.651675   -0.016560    2.037465
     72          1           0        3.661105    6.193417   -1.095818
     73          1           0        4.353667    4.630918   -0.909785
     74          1           0       -0.113947    6.325130   -1.800122
     75          1           0        1.267995    7.362694   -1.138366
     76          1           0       -0.039477    7.063089   -0.012431
     77          1           0        3.354898    6.181001    1.651432
     78          1           0        5.056989    6.082789    0.996757
     79          1           0        4.310491    4.682189    1.444337
     80          1           0       -3.550511   -4.420148   -1.990350
     81          1           0       -7.741706   -1.991565   -1.697249
 ---------------------------------------------------------------------

 SCF Done:  E(RB3LYP) =  -1949.15620046     A.U. after   17 cycles

 Excitation energies and oscillator strengths:

 Excited State   1:      Singlet-A      1.8393 eV  674.08 nm  f=0.3816  <S**2>=0.000
     156 ->157         0.70661
     156 <-157        -0.12206
 This state for optimization and/or second-order correction.
 Total Energy, E(TD-HF/TD-DFT) =  -1949.08860663
 Copying the excited state density for this state as the 1-particle RhoCI density.

 The electronic state is 1-A.
 Alpha  occ. eigenvalues --  -19.19722 -19.17916 -19.14347 -19.11414 -19.11337
 Alpha  occ. eigenvalues --  -19.10848 -14.38410 -14.35945 -14.35836 -14.28739
 Alpha  occ. eigenvalues --  -10.33503 -10.31290 -10.29800 -10.26903 -10.24377
 Alpha  occ. eigenvalues --  -10.23898 -10.23803 -10.23430 -10.23403 -10.22272
 Alpha  occ. eigenvalues --  -10.21839 -10.21824 -10.21400 -10.21396 -10.21133
 Alpha  occ. eigenvalues --  -10.21055 -10.20945 -10.20837 -10.20703 -10.20297
 Alpha  occ. eigenvalues --  -10.20293 -10.20271 -10.20233 -10.20202 -10.19980
 Alpha  occ. eigenvalues --  -10.19843 -10.19670 -10.18700 -10.18572 -10.18538
 Alpha  occ. eigenvalues --  -10.18086 -10.18057 -10.17793  -1.11172  -1.11080
 Alpha  occ. eigenvalues --   -1.04261  -1.01804  -1.01238  -1.00032  -0.99434
 Alpha  occ. eigenvalues --   -0.96807  -0.94153  -0.94010  -0.82813  -0.82252
 Alpha  occ. eigenvalues --   -0.81459  -0.80938  -0.80500  -0.79159  -0.78019
 Alpha  occ. eigenvalues --   -0.77860  -0.76553  -0.75359  -0.73934  -0.72909
 Alpha  occ. eigenvalues --   -0.71425  -0.69886  -0.69347  -0.68395  -0.67863
 Alpha  occ. eigenvalues --   -0.67624  -0.65734  -0.63963  -0.62752  -0.61579
 Alpha  occ. eigenvalues --   -0.60898  -0.60085  -0.59032  -0.58867  -0.56419
 Alpha  occ. eigenvalues --   -0.56111  -0.55342  -0.54677  -0.53763  -0.53296
 Alpha  occ. eigenvalues --   -0.52796  -0.51353  -0.50888  -0.50661  -0.50197
 Alpha  occ. eigenvalues --   -0.49874  -0.49633  -0.49034  -0.48180  -0.47687
 Alpha  occ. eigenvalues --   -0.47498  -0.46981  -0.46299  -0.46054  -0.45562
 Alpha  occ. eigenvalues --   -0.45181  -0.44799  -0.44716  -0.44276  -0.44046
 Alpha  occ. eigenvalues --   -0.43443  -0.43275  -0.42822  -0.42782  -0.42154
 Alpha  occ. eigenvalues --   -0.41642  -0.41507  -0.41304  -0.41261  -0.40938
 Alpha  occ. eigenvalues --   -0.40764  -0.40387  -0.40167  -0.39781  -0.39664
 Alpha  occ. eigenvalues --   -0.39446  -0.39178  -0.38777  -0.38457  -0.38153
 Alpha  occ. eigenvalues --   -0.37974  -0.37610  -0.37527  -0.36960  -0.36842
 Alpha  occ. eigenvalues --   -0.36118  -0.35946  -0.35816  -0.35097  -0.34979
 Alpha  occ. eigenvalues --   -0.34760  -0.34513  -0.34174  -0.33742  -0.33598
 Alpha  occ. eigenvalues --   -0.32905  -0.31907  -0.31624  -0.29670  -0.29408
 Alpha  occ. eigenvalues --   -0.28198  -0.27391  -0.26712  -0.26178  -0.25424
 Alpha  occ. eigenvalues --   -0.25302  -0.24964  -0.24703  -0.23422  -0.21443
 Alpha  occ. eigenvalues --   -0.17858
 Alpha virt. eigenvalues --   -0.10673  -0.06336  -0.04858  -0.02268   0.00535
 Alpha virt. eigenvalues --    0.01305   0.01936   0.03028   0.03365   0.03571
 Alpha virt. eigenvalues --    0.04114   0.04691   0.05152   0.05667   0.05946

 Mulliken charges:
               1
     1  O   -0.173678
     2  O   -0.172553
     3  O   -0.142882
     4  O   -0.244378
     5  O   -0.226276
     6  O   -0.206299
     7  N   -0.150336
     8  N   -0.042640
     9  N   -0.164287
    10  N   -0.220887
    11  C   -0.096994
    12  C    0.064454
    13  C   -0.153113
    14  C   -0.002013
    15  C   -0.100484
    16  C    0.084846
    17  C   -0.037846
    18  C   -0.113580
    19  C    0.035127
    20  C   -0.105537
    21  C    0.065870
    22  C    0.032528
    23  C    0.067931
    24  C    0.027256
    25  C   -0.117601
    26  C    0.043605
    27  C    0.179711
    28  C    0.052372
    29  C    0.032808
    30  C    0.047375
    31  C   -0.167926
    32  C    0.072073
    33  C   -0.080566
    34  C    0.101230
    35  C   -0.105606
    36  C   -0.146141
    37  C    0.126327
    38  C   -0.023545
    39  C    0.098402
    40  C    0.090994
    41  C    0.152856
    42  C    0.066587
    43  C   -0.006805
    44  H    0.191908
    45  H   -0.010671
    46  H    0.018755
    47  H   -0.002700
    48  H    0.043202
    49  H    0.030050
    50  H    0.027469
    51  H    0.065807
    52  H    0.135939
    53  H    0.033492
    54  H    0.041797
    55  H    0.031688
    56  H    0.107755
    57  H    0.058622
    58  H    0.039609
    59  H    0.045796
    60  H    0.039940
    61  H    0.046935
    62  H    0.026305
    63  H    0.016254
    64  H   -0.020220
    65  H    0.009271
    66  H    0.002435
    67  H    0.015052
    68  H   -0.039684
    69  H    0.097509
    70  H    0.019962
    71  H    0.020154
    72  H   -0.024308
    73  H    0.009904
    74  H    0.040615
    75  H    0.018857
    76  H    0.049521
    77  H    0.005397
    78  H   -0.007017
    79  H    0.015021
    80  H    0.181113
    81  H    0.178090
 Sum of Mulliken charges =  -0.00000

 Dipole moment (field-independent basis, Debye):
    X=             -2.3334    Y=              1.5870    Z=             -0.9312  Tot=              2.9716
 Quadrupole moment (field-independent basis, Debye-Ang):
   XX=           -253.8049   YY=           -241.0835   ZZ=           -253.0984
   XY=             16.9586   XZ=             16.9585   YZ=            -15.0247

 Normal termination of Gaussian 16 at Sun Jul  7 01:45:48 2019.
