 Gaussian 16, Revision A.03,
 Gaussian 16:  ES64L-G16RevA.03 25-Dec-2016

 --------------------------
 # td=(NStates=1) B3LYP/SVP
 --------------------------

 --
 TD
 --
 Symbolic Z-matrix:
 Charge =  0 Multiplicity = 1

                         Standard orientation:
 ---------------------------------------------------------------------
 Center     Atomic      Atomic             Coordinates (Angstroms)
 Number     Number       Type             X           Y           Z
 ---------------------------------------------------------------------
      1          8           0       -4.530227   -4.724910    1.784840
      2          8           0        2.914037   -4.782406    1.401133
      3          8           0        7.232103   -1.498158    1.844570
      4          8           0        3.795723   -3.143491    0.161602
      5          8           0        7.667167   -0.451943   -0.162769
      6          8           0       -3.006089    2.488172   -0.354864
      7          7           0       -0.220337   -0.631434   -0.601278
      8          7           0        1.608947    1.866417   -0.549808
      9          7           0       -3.457745   -3.135559    0.513549
     10          7           0       -0.734693    2.919538   -0.145285
     11          6           0        0.615679   -2.565903   -1.368717
     12          6           0        0.930298   -1.216066   -1.079384
     13          6           0       -0.732480   -2.709830   -1.155208
     14          6           0       -1.329349   -1.502807   -0.675838
     15          6           0        3.848697    1.374389   -0.328670
     16          6           0        2.563262    0.779489   -0.570845
     17          6           0        2.254958   -0.507804   -1.032292
     18          6           0        3.605541    2.815383   -0.130821
     19          6           0        1.595165   -3.542232   -1.922788
     20          6           0       -5.609517   -2.484201    1.331597
     21          6           0       -3.686043   -1.856816    0.052622
     22          6           0        2.162057    2.993524   -0.120856
     23          6           0       -5.037572   -1.488815    0.341890
     24          6           0        5.167826    0.671362   -0.415511
     25          6           0       -2.671001   -1.004363   -0.390249
     26          6           0       -1.665493   -3.898861   -1.645627
     27          6           0       -4.535462   -3.625668    1.250344
     28          6           0        1.988650   -4.505671   -0.684123
     29          6           0        5.491616   -0.235570    0.743951
     30          6           0        4.510161    3.888766    0.356680
     31          6           0        1.289837    4.079244    0.146899
     32          6           0       -7.005050   -2.979379    1.137360
     33          6           0       -5.738707   -0.520107   -0.273322
     34          6           0       -0.023709    4.104485    0.166983
     35          6           0       -0.926897    5.134614    0.527837
     36          6           0       -2.287582    4.639556    0.404937
     37          6           0        2.992014   -4.079720    0.282775
     38          6           0       -5.433284    0.429743   -1.227563
     39          6           0        6.911288   -0.734923    0.721355
     40          6           0       -3.592825    5.333075    0.601131
     41          6           0       -2.056866    3.204474   -0.030659
     42          6           0       -0.530767    6.474073    0.903520
     43          6           0       -4.367681    5.576309   -0.660789
     44          1           0       -0.477467    0.295775   -0.284140
     45          1           0        3.229572   -1.184405   -0.914017
     46          1           0        2.514323   -3.052761   -2.278594
     47          1           0        1.181067   -4.392705   -2.694728
     48          1           0       -5.570747   -2.016533    2.373217
     49          1           0        5.316551    0.146013   -1.322352
     50          1           0        5.941163    1.479844   -0.629251
     51          1           0       -2.873922    0.039416   -0.437992
     52          1           0        0.557063    1.771198   -0.638775
     53          1           0       -1.838785   -4.723129   -0.829260
     54          1           0       -2.568518   -3.443980   -2.026472
     55          1           0       -1.152317   -4.591058   -2.440627
     56          1           0       -2.653198   -3.739638    0.466959
     57          1           0        1.238987   -5.078642   -0.118860
     58          1           0        2.452731   -5.459807   -1.148966
     59          1           0        4.660200   -0.996640    0.836855
     60          1           0        5.197444    0.548950    1.577203
     61          1           0        4.355790    4.883828   -0.170310
     62          1           0        5.593505    3.380565    0.232912
     63          1           0        4.294909    4.077348    1.485004
     64          1           0        1.687797    5.075461    0.364957
     65          1           0       -7.872791   -2.366947    1.261686
     66          1           0       -7.155283   -3.732141    2.001501
     67          1           0       -7.088064   -3.455154    0.194428
     68          1           0       -6.897717   -0.385563    0.001227
     69          1           0       -4.944802    1.381858   -0.735057
     70          1           0       -6.272739    0.743287   -1.810961
     71          1           0       -4.789668    0.079159   -1.901355
     72          1           0       -3.528497    6.129211    1.044248
     73          1           0       -4.162024    4.697877    1.187358
     74          1           0       -0.149005    6.370996    1.856627
     75          1           0       -1.449033    7.192077    1.121740
     76          1           0        0.122689    6.951879    0.095054
     77          1           0       -3.816365    6.172680   -1.393142
     78          1           0       -5.327982    6.037604   -0.554407
     79          1           0       -4.501582    4.681985   -1.340445
     80          1           0        3.479454   -4.325524    2.127134
     81          1           0        8.131776   -1.661725    1.985555
 ---------------------------------------------------------------------

 SCF Done:  E(RB3LYP) =  -1949.14331871     A.U. after   24 cycles

 Excitation energies and oscillator strengths:

 Excited State   1:      Singlet-A      1.7728 eV  699.39 nm  f=0.3081  <S**2>=0.000
     155 ->157        -0.12035
     156 ->157         0.69605
     156 <-157        -0.10973
 This state for optimization and/or second-order correction.
 Total Energy, E(TD-HF/TD-DFT) =  -1949.07817123
 Copying the excited state density for this state as the 1-particle RhoCI density.

 The electronic state is 1-A.
 Alpha  occ. eigenvalues --  -19.20139 -19.17426 -19.13606 -19.13605 -19.11574
 Alpha  occ. eigenvalues --  -19.08136 -14.37725 -14.37308 -14.35821 -14.26864
 Alpha  occ. eigenvalues --  -10.33417 -10.32923 -10.29625 -10.24754 -10.24443
 Alpha  occ. eigenvalues --  -10.24389 -10.24138 -10.23962 -10.23829 -10.23515
 Alpha  occ. eigenvalues --  -10.23364 -10.22462 -10.21737 -10.21642 -10.21485
 Alpha  occ. eigenvalues --  -10.21328 -10.21101 -10.21081 -10.20936 -10.20479
 Alpha  occ. eigenvalues --  -10.20212 -10.20203 -10.19727 -10.19473 -10.19195
 Alpha  occ. eigenvalues --  -10.18999 -10.18807 -10.18619 -10.18413 -10.17998
 Alpha  occ. eigenvalues --  -10.16615 -10.16240 -10.16154  -1.11106  -1.08887
 Alpha  occ. eigenvalues --   -1.03644  -1.01686  -1.00526  -0.99005  -0.98053
 Alpha  occ. eigenvalues --   -0.97129  -0.95861  -0.89602  -0.82777  -0.82505
 Alpha  occ. eigenvalues --   -0.82149  -0.80242  -0.79349  -0.78764  -0.78166
 Alpha  occ. eigenvalues --   -0.77431  -0.77248  -0.76487  -0.74870  -0.73271
 Alpha  occ. eigenvalues --   -0.70895  -0.70583  -0.69166  -0.68033  -0.67743
 Alpha  occ. eigenvalues --   -0.66988  -0.65522  -0.64764  -0.62837  -0.62044
 Alpha  occ. eigenvalues --   -0.60985  -0.60617  -0.58493  -0.58031  -0.57091
 Alpha  occ. eigenvalues --   -0.55766  -0.55506  -0.55003  -0.53988  -0.52787
 Alpha  occ. eigenvalues --   -0.52275  -0.51846  -0.50812  -0.50620  -0.49912
 Alpha  occ. eigenvalues --   -0.49046  -0.48947  -0.48648  -0.48283  -0.47926
 Alpha  occ. eigenvalues --   -0.47454  -0.46497  -0.46212  -0.45651  -0.45352
 Alpha  occ. eigenvalues --   -0.44994  -0.44949  -0.44649  -0.44021  -0.43839
 Alpha  occ. eigenvalues --   -0.43672  -0.43293  -0.42770  -0.42526  -0.42140
 Alpha  occ. eigenvalues --   -0.42003  -0.41630  -0.41213  -0.41100  -0.40796
 Alpha  occ. eigenvalues --   -0.40371  -0.40324  -0.40122  -0.39717  -0.39642
 Alpha  occ. eigenvalues --   -0.39397  -0.38845  -0.38550  -0.38167  -0.37973
 Alpha  occ. eigenvalues --   -0.37809  -0.37565  -0.37293  -0.37081  -0.36549
 Alpha  occ. eigenvalues --   -0.36251  -0.36076  -0.35827  -0.35626  -0.35602
 Alpha  occ. eigenvalues --   -0.34091  -0.33870  -0.33584  -0.33087  -0.33048
 Alpha  occ. eigenvalues --   -0.32536  -0.32473  -0.32107  -0.29544  -0.29275
 Alpha  occ. eigenvalues --   -0.29014  -0.26912  -0.26396  -0.25961  -0.25773
 Alpha  occ. eigenvalues --   -0.25108  -0.24251  -0.22360  -0.21937  -0.20471
 Alpha  occ. eigenvalues --   -0.18134
 Alpha virt. eigenvalues --   -0.10930  -0.05836  -0.04236  -0.02072  -0.00867
 Alpha virt. eigenvalues --   -0.00504   0.01418   0.02741   0.03221   0.03436
 Alpha virt. eigenvalues --    0.04477   0.04796   0.05617   0.05831   0.06151

 Mulliken charges:
               1
     1  O   -0.213822
     2  O   -0.189222
     3  O   -0.206964
     4  O   -0.258370
     5  O   -0.194843
     6  O   -0.252761
     7  N   -0.104708
     8  N   -0.099311
     9  N   -0.103309
    10  N   -0.346861
    11  C   -0.055166
    12  C    0.056873
    13  C   -0.165575
    14  C    0.065952
    15  C   -0.095996
    16  C    0.061434
    17  C   -0.062263
    18  C   -0.126195
    19  C    0.105764
    20  C   -0.054785
    21  C    0.082388
    22  C    0.122469
    23  C   -0.007941
    24  C    0.081632
    25  C   -0.063525
    26  C    0.016494
    27  C    0.115217
    28  C   -0.029437
    29  C   -0.063807
    30  C    0.015012
    31  C   -0.124861
    32  C    0.070546
    33  C   -0.205769
    34  C    0.113333
    35  C   -0.113609
    36  C   -0.206401
    37  C    0.125070
    38  C    0.144770
    39  C    0.196790
    40  C    0.333161
    41  C    0.137317
    42  C    0.095484
    43  C   -0.024410
    44  H    0.136569
    45  H    0.075479
    46  H    0.031061
    47  H    0.040404
    48  H    0.052831
    49  H    0.000911
    50  H    0.012815
    51  H   -0.004419
    52  H    0.145703
    53  H    0.031158
    54  H    0.048941
    55  H    0.019947
    56  H    0.128832
    57  H    0.029036
    58  H    0.047297
    59  H    0.065936
    60  H    0.049093
    61  H    0.043855
    62  H    0.039531
    63  H    0.048422
    64  H   -0.050448
    65  H    0.010458
    66  H    0.029266
    67  H    0.000602
    68  H    0.011413
    69  H    0.104244
    70  H   -0.008340
    71  H   -0.025549
    72  H   -0.116686
    73  H   -0.022098
    74  H    0.002896
    75  H    0.015199
    76  H    0.044531
    77  H   -0.010309
    78  H    0.000167
    79  H    0.021096
    80  H    0.219482
    81  H    0.160878
 Sum of Mulliken charges =  -0.00000

 Dipole moment (field-independent basis, Debye):
    X=              2.2286    Y=             -0.8222    Z=              1.2763  Tot=              2.6966
 Quadrupole moment (field-independent basis, Debye-Ang):
   XX=           -247.0457   YY=           -240.9128   ZZ=           -251.8380
   XY=            -14.9662   XZ=             18.2042   YZ=             14.0419

 Normal termination of Gaussian 16 at Sat Jul  6 01:10:44 2019.
