 Gaussian 16, Revision A.03,
 Gaussian 16:  ES64L-G16RevA.03 25-Dec-2016

 --------------------------
 # td=(NStates=1) B3LYP/SVP
 --------------------------

 --
 TD
 --
 Symbolic Z-matrix:
 Charge =  0 Multiplicity = 1

                         Standard orientation:
 ---------------------------------------------------------------------
 Center     Atomic      Atomic             Coordinates (Angstroms)
 Number     Number       Type             X           Y           Z
 ---------------------------------------------------------------------
      1          8           0       -4.252962   -4.761911    1.908793
      2          8           0        2.996927   -4.796852    1.274948
      3          8           0        7.113380   -1.341436    1.901502
      4          8           0        3.745895   -3.100526    0.080424
      5          8           0        7.570900   -0.424834   -0.111730
      6          8           0       -3.090788    2.381873   -0.464899
      7          7           0       -0.214435   -0.567901   -0.676872
      8          7           0        1.506911    1.741014   -0.430133
      9          7           0       -3.332885   -3.088850    0.676726
     10          7           0       -0.767362    2.913247   -0.046037
     11          6           0        0.622323   -2.491540   -1.365590
     12          6           0        1.027026   -1.141948   -1.028339
     13          6           0       -0.758805   -2.712493   -1.203887
     14          6           0       -1.270917   -1.469491   -0.709605
     15          6           0        3.759863    1.510227   -0.359903
     16          6           0        2.496981    0.803098   -0.658610
     17          6           0        2.251460   -0.516557   -0.958556
     18          6           0        3.500607    2.821411    0.050755
     19          6           0        1.709854   -3.472975   -1.953014
     20          6           0       -5.498292   -2.692190    1.420423
     21          6           0       -3.539591   -1.803942    0.150416
     22          6           0        2.084342    3.016419   -0.033537
     23          6           0       -4.948221   -1.578747    0.481545
     24          6           0        5.078643    0.872387   -0.373983
     25          6           0       -2.590859   -1.051775   -0.398834
     26          6           0       -1.551009   -3.838994   -1.701099
     27          6           0       -4.323767   -3.723986    1.365838
     28          6           0        2.207477   -4.528178   -1.029351
     29          6           0        5.388068   -0.095809    0.772400
     30          6           0        4.414639    3.843622    0.447946
     31          6           0        1.236156    4.056257    0.267936
     32          6           0       -6.901877   -3.364686    1.088131
     33          6           0       -5.761518   -0.656962   -0.121369
     34          6           0       -0.138918    4.067800    0.297838
     35          6           0       -1.155427    5.161564    0.562474
     36          6           0       -2.314824    4.633689    0.276240
     37          6           0        2.968647   -4.024011    0.126281
     38          6           0       -5.344862    0.285485   -1.194987
     39          6           0        6.708162   -0.706215    0.762892
     40          6           0       -3.730970    5.245981    0.457389
     41          6           0       -2.139728    3.179357   -0.160879
     42          6           0       -0.806768    6.475108    1.028274
     43          6           0       -4.172502    5.809042   -1.032265
     44          1           0       -0.278994    0.536759   -0.603371
     45          1           0        3.089029   -1.076269   -1.114632
     46          1           0        2.406653   -2.844906   -2.381087
     47          1           0        1.260584   -4.005811   -2.835368
     48          1           0       -5.524653   -2.285181    2.552452
     49          1           0        5.259405    0.108774   -1.324235
     50          1           0        5.878492    1.592349   -0.279479
     51          1           0       -2.644322    0.115441   -0.376612
     52          1           0        0.400543    1.860531   -0.712473
     53          1           0       -1.618890   -4.686483   -0.997588
     54          1           0       -2.727294   -3.747686   -1.870875
     55          1           0       -1.083879   -4.265479   -2.654975
     56          1           0       -2.548797   -3.644984    0.755636
     57          1           0        1.328517   -5.107551   -0.476659
     58          1           0        2.864274   -5.264516   -1.538852
     59          1           0        4.530479   -0.885930    0.760933
     60          1           0        5.211892    0.450117    1.777410
     61          1           0        4.271057    4.815885   -0.139019
     62          1           0        5.413622    3.466004    0.326758
     63          1           0        4.313790    4.169775    1.567046
     64          1           0        1.734021    5.007127    0.742582
     65          1           0       -7.634015   -2.497638    1.103202
     66          1           0       -6.957321   -4.117064    1.951017
     67          1           0       -6.888103   -3.946214    0.012569
     68          1           0       -6.848520   -0.408215    0.296540
     69          1           0       -5.004486    1.313342   -0.695179
     70          1           0       -6.288162    0.339744   -1.801277
     71          1           0       -4.459352   -0.020319   -1.831364
     72          1           0       -3.935188    6.110467    1.033630
     73          1           0       -4.348294    4.337513    0.785184
     74          1           0        0.043664    6.365257    1.852296
     75          1           0       -1.637238    6.987156    1.552346
     76          1           0       -0.206297    7.090265    0.103519
     77          1           0       -3.423436    6.432070   -1.682001
     78          1           0       -4.964328    6.571269   -1.099719
     79          1           0       -4.378136    4.921497   -1.467221
     80          1           0        3.406135   -4.143832    1.774864
     81          1           0        7.942784   -1.742035    1.918096
 ---------------------------------------------------------------------

 SCF Done:  E(RB3LYP) =  -1949.13815997     A.U. after   17 cycles

 Excitation energies and oscillator strengths:

 Excited State   1:      Singlet-A      1.7983 eV  689.46 nm  f=0.3841  <S**2>=0.000
     156 ->157         0.71172
     156 <-157        -0.13385
 This state for optimization and/or second-order correction.
 Total Energy, E(TD-HF/TD-DFT) =  -1949.07207488
 Copying the excited state density for this state as the 1-particle RhoCI density.

 The electronic state is 1-A.
 Alpha  occ. eigenvalues --  -19.18590 -19.17515 -19.14616 -19.11864 -19.11615
 Alpha  occ. eigenvalues --  -19.10997 -14.38081 -14.36636 -14.35696 -14.29864
 Alpha  occ. eigenvalues --  -10.33450 -10.32475 -10.28805 -10.27474 -10.25172
 Alpha  occ. eigenvalues --  -10.24477 -10.24069 -10.23506 -10.23493 -10.23111
 Alpha  occ. eigenvalues --  -10.23001 -10.21541 -10.21478 -10.21409 -10.21337
 Alpha  occ. eigenvalues --  -10.21230 -10.21162 -10.21146 -10.21073 -10.21021
 Alpha  occ. eigenvalues --  -10.20862 -10.20848 -10.20502 -10.20338 -10.20226
 Alpha  occ. eigenvalues --  -10.20123 -10.19812 -10.19554 -10.19326 -10.19314
 Alpha  occ. eigenvalues --  -10.18834 -10.18456 -10.17691  -1.12177  -1.08442
 Alpha  occ. eigenvalues --   -1.06194  -1.02100  -0.99039  -0.98322  -0.97404
 Alpha  occ. eigenvalues --   -0.96369  -0.95393  -0.91732  -0.82818  -0.82589
 Alpha  occ. eigenvalues --   -0.82203  -0.81159  -0.80122  -0.79678  -0.78589
 Alpha  occ. eigenvalues --   -0.77775  -0.76842  -0.74610  -0.74122  -0.72787
 Alpha  occ. eigenvalues --   -0.71969  -0.70073  -0.69116  -0.68525  -0.67816
 Alpha  occ. eigenvalues --   -0.67517  -0.65815  -0.63686  -0.62840  -0.62068
 Alpha  occ. eigenvalues --   -0.60811  -0.59837  -0.59011  -0.57486  -0.56816
 Alpha  occ. eigenvalues --   -0.55957  -0.55196  -0.54436  -0.53277  -0.52652
 Alpha  occ. eigenvalues --   -0.52242  -0.51903  -0.51600  -0.50765  -0.50643
 Alpha  occ. eigenvalues --   -0.49872  -0.49621  -0.48800  -0.47827  -0.47427
 Alpha  occ. eigenvalues --   -0.46893  -0.46336  -0.46244  -0.45662  -0.45287
 Alpha  occ. eigenvalues --   -0.45154  -0.44645  -0.44147  -0.43948  -0.43837
 Alpha  occ. eigenvalues --   -0.43497  -0.43073  -0.43007  -0.42771  -0.42336
 Alpha  occ. eigenvalues --   -0.42207  -0.41904  -0.41719  -0.41447  -0.41225
 Alpha  occ. eigenvalues --   -0.40767  -0.40221  -0.39990  -0.39467  -0.39297
 Alpha  occ. eigenvalues --   -0.39054  -0.38857  -0.38765  -0.38400  -0.38063
 Alpha  occ. eigenvalues --   -0.37991  -0.37582  -0.37189  -0.37058  -0.36923
 Alpha  occ. eigenvalues --   -0.36268  -0.35875  -0.35518  -0.35438  -0.35195
 Alpha  occ. eigenvalues --   -0.34354  -0.33932  -0.33678  -0.33526  -0.33263
 Alpha  occ. eigenvalues --   -0.32993  -0.31763  -0.31230  -0.30384  -0.29829
 Alpha  occ. eigenvalues --   -0.28281  -0.27177  -0.26842  -0.26423  -0.25602
 Alpha  occ. eigenvalues --   -0.25253  -0.24937  -0.24579  -0.23722  -0.22301
 Alpha  occ. eigenvalues --   -0.18038
 Alpha virt. eigenvalues --   -0.11075  -0.06078  -0.04241  -0.02677  -0.01631
 Alpha virt. eigenvalues --    0.00249   0.01750   0.03041   0.03149   0.03897
 Alpha virt. eigenvalues --    0.04081   0.04998   0.05567   0.05946   0.06400

 Mulliken charges:
               1
     1  O   -0.170836
     2  O   -0.160286
     3  O   -0.174563
     4  O   -0.234649
     5  O   -0.274355
     6  O   -0.282384
     7  N   -0.159408
     8  N   -0.241526
     9  N   -0.102050
    10  N   -0.344341
    11  C   -0.157956
    12  C    0.097633
    13  C   -0.102228
    14  C    0.072671
    15  C   -0.030942
    16  C    0.094911
    17  C    0.016664
    18  C   -0.086138
    19  C    0.149852
    20  C   -0.131491
    21  C    0.187698
    22  C    0.116380
    23  C   -0.009301
    24  C    0.033663
    25  C   -0.147671
    26  C    0.016312
    27  C    0.078406
    28  C    0.034403
    29  C   -0.073235
    30  C    0.075995
    31  C   -0.132877
    32  C   -0.004853
    33  C   -0.181024
    34  C    0.071481
    35  C   -0.026797
    36  C   -0.168971
    37  C    0.113651
    38  C   -0.001078
    39  C    0.189346
    40  C    0.060852
    41  C    0.214711
    42  C    0.015433
    43  C   -0.034058
    44  H    0.167101
    45  H   -0.059445
    46  H   -0.007082
    47  H    0.005598
    48  H    0.060407
    49  H    0.048686
    50  H    0.005431
    51  H    0.067810
    52  H    0.203904
    53  H    0.013430
    54  H    0.047607
    55  H    0.032842
    56  H    0.092997
    57  H    0.051512
    58  H    0.061402
    59  H    0.068170
    60  H    0.044927
    61  H    0.037697
    62  H   -0.000475
    63  H    0.034642
    64  H   -0.009233
    65  H    0.038891
    66  H    0.056025
    67  H    0.042274
    68  H    0.030644
    69  H    0.100698
    70  H    0.018095
    71  H    0.038072
    72  H   -0.001166
    73  H    0.039261
    74  H    0.029542
    75  H    0.029934
    76  H    0.056385
    77  H    0.018270
    78  H    0.009409
    79  H    0.012102
    80  H    0.141814
    81  H    0.164778
 Sum of Mulliken charges =  -0.00000

 Dipole moment (field-independent basis, Debye):
    X=              1.2175    Y=              0.4625    Z=              0.2849  Tot=              1.3332
 Quadrupole moment (field-independent basis, Debye-Ang):
   XX=           -260.3947   YY=           -240.8597   ZZ=           -254.3540
   XY=            -11.9093   XZ=             13.3481   YZ=             18.1943

 Normal termination of Gaussian 16 at Tue Jul  2 23:15:13 2019.
