 Gaussian 16, Revision A.03,
 Gaussian 16:  ES64L-G16RevA.03 25-Dec-2016

 --------------------------
 # td=(NStates=1) B3LYP/SVP
 --------------------------

 --
 TD
 --
 Symbolic Z-matrix:
 Charge =  0 Multiplicity = 1

                         Standard orientation:
 ---------------------------------------------------------------------
 Center     Atomic      Atomic             Coordinates (Angstroms)
 Number     Number       Type             X           Y           Z
 ---------------------------------------------------------------------
      1          8           0        4.663768   -4.809488   -1.781293
      2          8           0       -2.855369   -5.008755   -1.348294
      3          8           0       -7.100643   -1.587699   -1.704311
      4          8           0       -3.712621   -3.142656   -0.269292
      5          8           0       -7.757036   -0.487018    0.198979
      6          8           0        2.978541    2.498192    0.211028
      7          7           0        0.276517   -0.581977    0.630850
      8          7           0       -1.552238    1.775532    0.252877
      9          7           0        3.487838   -3.174090   -0.620553
     10          7           0        0.757203    2.967991    0.165284
     11          6           0       -0.661614   -2.466993    1.489730
     12          6           0       -0.960380   -1.214805    0.982628
     13          6           0        0.711269   -2.591866    1.343632
     14          6           0        1.284176   -1.473029    0.791573
     15          6           0       -3.791790    1.350715    0.318447
     16          6           0       -2.544260    0.716519    0.493933
     17          6           0       -2.154591   -0.522732    0.925984
     18          6           0       -3.570364    2.661263   -0.121744
     19          6           0       -1.670805   -3.483661    1.959133
     20          6           0        5.630126   -2.579855   -1.384475
     21          6           0        3.684273   -1.805902   -0.125980
     22          6           0       -2.139228    2.898514   -0.193453
     23          6           0        5.058836   -1.547890   -0.527136
     24          6           0       -5.197123    0.641877    0.439428
     25          6           0        2.678957   -1.090707    0.479525
     26          6           0        1.606657   -3.762208    1.781694
     27          6           0        4.576459   -3.661014   -1.333453
     28          6           0       -2.001283   -4.491747    0.883644
     29          6           0       -5.583629   -0.126039   -0.836712
     30          6           0       -4.552720    3.739685   -0.323870
     31          6           0       -1.347997    4.047123   -0.445667
     32          6           0        6.986575   -3.105378   -1.108963
     33          6           0        5.875618   -0.545368    0.081578
     34          6           0        0.018157    4.004209   -0.233231
     35          6           0        0.958763    5.213507   -0.430397
     36          6           0        2.257981    4.822207   -0.255961
     37          6           0       -2.960479   -4.130409   -0.234993
     38          6           0        5.506096    0.366670    1.319892
     39          6           0       -6.933990   -0.738549   -0.642407
     40          6           0        3.520503    5.577685   -0.395971
     41          6           0        2.085675    3.294636    0.135945
     42          6           0        0.476724    6.526885   -0.870870
     43          6           0        4.174038    5.956025    0.902099
     44          1           0        0.541071    0.390710    0.151122
     45          1           0       -3.031074   -1.145472    1.276516
     46          1           0       -2.493015   -3.016487    2.397675
     47          1           0       -1.225029   -4.286348    2.849711
     48          1           0        5.499883   -2.251931   -2.485051
     49          1           0       -5.299281    0.127184    1.253124
     50          1           0       -6.084166    1.337004    0.703247
     51          1           0        2.867815    0.073884    0.440392
     52          1           0       -0.500614    1.872556    0.381648
     53          1           0        1.644710   -4.496611    1.086855
     54          1           0        2.713375   -3.705825    2.225083
     55          1           0        1.103041   -4.203654    2.681610
     56          1           0        2.605009   -3.697426   -0.509978
     57          1           0       -1.204296   -4.963955    0.276832
     58          1           0       -2.443097   -5.439991    1.378633
     59          1           0       -4.756700   -0.879915   -1.064575
     60          1           0       -5.737506    0.388627   -1.666188
     61          1           0       -4.078024    4.604978    0.226892
     62          1           0       -5.547143    3.793890    0.077085
     63          1           0       -4.739589    3.777167   -1.560238
     64          1           0       -1.813975    5.015180   -0.811917
     65          1           0        7.959854   -2.366881   -1.101365
     66          1           0        7.159787   -3.851082   -1.957853
     67          1           0        7.051636   -3.612407   -0.082639
     68          1           0        6.806592   -0.610805   -0.438645
     69          1           0        4.858097    1.045300    0.917727
     70          1           0        6.557782    0.857187    1.657986
     71          1           0        4.871190   -0.272418    2.103216
     72          1           0        3.252469    6.469680   -0.916098
     73          1           0        4.281322    4.849963   -0.861829
     74          1           0        0.033200    6.431905   -2.053672
     75          1           0        1.257423    7.115424   -1.033273
     76          1           0       -0.455611    7.198996   -0.131468
     77          1           0        3.647183    6.821784    1.381422
     78          1           0        5.234624    6.474800    0.754002
     79          1           0        4.126906    5.180758    1.505735
     80          1           0       -3.351843   -4.514297   -1.982342
     81          1           0       -7.954123   -2.000491   -1.704590
 ---------------------------------------------------------------------

 SCF Done:  E(RB3LYP) =  -1949.09256595     A.U. after   16 cycles

 Excitation energies and oscillator strengths:

 Excited State   1:      Singlet-A      2.0963 eV  591.43 nm  f=0.4362  <S**2>=0.000
     156 ->157         0.70530
 This state for optimization and/or second-order correction.
 Total Energy, E(TD-HF/TD-DFT) =  -1949.01552655
 Copying the excited state density for this state as the 1-particle RhoCI density.

 The electronic state is 1-A.
 Alpha  occ. eigenvalues --  -19.19107 -19.17763 -19.15201 -19.13450 -19.10538
 Alpha  occ. eigenvalues --  -19.10430 -14.38221 -14.36935 -14.35092 -14.29050
 Alpha  occ. eigenvalues --  -10.34342 -10.32139 -10.29112 -10.26751 -10.25166
 Alpha  occ. eigenvalues --  -10.23828 -10.23659 -10.23600 -10.23496 -10.23465
 Alpha  occ. eigenvalues --  -10.23329 -10.22714 -10.21809 -10.21281 -10.21071
 Alpha  occ. eigenvalues --  -10.20833 -10.20829 -10.20818 -10.20607 -10.20558
 Alpha  occ. eigenvalues --  -10.20463 -10.20282 -10.20183 -10.20042 -10.19995
 Alpha  occ. eigenvalues --  -10.19659 -10.19647 -10.19642 -10.19478 -10.19035
 Alpha  occ. eigenvalues --  -10.18931 -10.18711 -10.17597  -1.09355  -1.09298
 Alpha  occ. eigenvalues --   -1.02671  -1.02105  -1.01471  -1.01098  -0.98375
 Alpha  occ. eigenvalues --   -0.96601  -0.93765  -0.91697  -0.83546  -0.82195
 Alpha  occ. eigenvalues --   -0.82027  -0.80999  -0.80357  -0.78730  -0.78298
 Alpha  occ. eigenvalues --   -0.78105  -0.76591  -0.75543  -0.73957  -0.72772
 Alpha  occ. eigenvalues --   -0.71476  -0.69604  -0.69168  -0.68438  -0.68171
 Alpha  occ. eigenvalues --   -0.67413  -0.65289  -0.64489  -0.62312  -0.61694
 Alpha  occ. eigenvalues --   -0.60120  -0.60046  -0.58483  -0.57315  -0.56748
 Alpha  occ. eigenvalues --   -0.56487  -0.55989  -0.54990  -0.52991  -0.52580
 Alpha  occ. eigenvalues --   -0.52435  -0.51697  -0.51309  -0.50090  -0.49933
 Alpha  occ. eigenvalues --   -0.49156  -0.48790  -0.48658  -0.48056  -0.48018
 Alpha  occ. eigenvalues --   -0.47624  -0.46709  -0.46445  -0.45948  -0.45753
 Alpha  occ. eigenvalues --   -0.45042  -0.44336  -0.44106  -0.43741  -0.43374
 Alpha  occ. eigenvalues --   -0.43052  -0.42890  -0.42609  -0.42444  -0.42223
 Alpha  occ. eigenvalues --   -0.41985  -0.41496  -0.41400  -0.41109  -0.40924
 Alpha  occ. eigenvalues --   -0.40841  -0.40183  -0.40152  -0.39858  -0.39721
 Alpha  occ. eigenvalues --   -0.39374  -0.39027  -0.38663  -0.38582  -0.38308
 Alpha  occ. eigenvalues --   -0.37900  -0.37548  -0.37424  -0.37293  -0.36572
 Alpha  occ. eigenvalues --   -0.36511  -0.35564  -0.35363  -0.35321  -0.34861
 Alpha  occ. eigenvalues --   -0.34663  -0.34315  -0.34031  -0.33795  -0.33609
 Alpha  occ. eigenvalues --   -0.33251  -0.32828  -0.32395  -0.30697  -0.29742
 Alpha  occ. eigenvalues --   -0.28874  -0.27347  -0.26744  -0.25989  -0.25834
 Alpha  occ. eigenvalues --   -0.24931  -0.24343  -0.24067  -0.23347  -0.21790
 Alpha  occ. eigenvalues --   -0.18503
 Alpha virt. eigenvalues --   -0.10109  -0.05836  -0.04438  -0.03132  -0.00029
 Alpha virt. eigenvalues --    0.00554   0.01331   0.02306   0.03083   0.04129
 Alpha virt. eigenvalues --    0.04323   0.04574   0.05377   0.05784   0.05948

 Mulliken charges:
               1
     1  O   -0.233450
     2  O   -0.208542
     3  O   -0.194290
     4  O   -0.241281
     5  O   -0.211554
     6  O   -0.190956
     7  N   -0.157494
     8  N   -0.164358
     9  N   -0.179194
    10  N   -0.284461
    11  C   -0.044548
    12  C    0.088312
    13  C   -0.165241
    14  C    0.076398
    15  C   -0.042431
    16  C    0.099821
    17  C   -0.057785
    18  C   -0.116948
    19  C    0.101219
    20  C    0.016060
    21  C    0.137344
    22  C    0.103743
    23  C   -0.123533
    24  C    0.152828
    25  C   -0.152951
    26  C    0.053941
    27  C    0.096467
    28  C    0.006493
    29  C    0.045241
    30  C    0.024654
    31  C   -0.150259
    32  C   -0.015568
    33  C   -0.072229
    34  C    0.097876
    35  C   -0.083565
    36  C   -0.200843
    37  C    0.148733
    38  C    0.047520
    39  C    0.139739
    40  C    0.105943
    41  C    0.137737
    42  C    0.035389
    43  C    0.028441
    44  H    0.190671
    45  H    0.006199
    46  H    0.008978
    47  H    0.037249
    48  H    0.054899
    49  H   -0.051792
    50  H    0.011047
    51  H    0.062451
    52  H    0.147620
    53  H   -0.008778
    54  H    0.053950
    55  H    0.003213
    56  H    0.133956
    57  H    0.042143
    58  H    0.057354
    59  H    0.063632
    60  H   -0.013000
    61  H    0.037153
    62  H    0.011433
    63  H    0.045403
    64  H   -0.000617
    65  H    0.041109
    66  H    0.045229
    67  H    0.032157
    68  H   -0.023863
    69  H    0.046904
    70  H    0.045818
    71  H    0.058767
    72  H   -0.012098
    73  H    0.026465
    74  H    0.039127
    75  H   -0.039548
    76  H    0.053211
    77  H   -0.003016
    78  H    0.021899
    79  H   -0.008642
    80  H    0.168088
    81  H    0.162810
 Sum of Mulliken charges =  -0.00000

 Dipole moment (field-independent basis, Debye):
    X=             -2.4342    Y=              0.0743    Z=             -0.0107  Tot=              2.4353
 Quadrupole moment (field-independent basis, Debye-Ang):
   XX=           -252.0268   YY=           -247.4381   ZZ=           -252.9492
   XY=             19.6708   XZ=             13.9776   YZ=            -14.9390

 Normal termination of Gaussian 16 at Tue Jul  2 16:46:10 2019.
