 Gaussian 16, Revision A.03,
 Gaussian 16:  ES64L-G16RevA.03 25-Dec-2016

 --------------------------
 # td=(NStates=1) B3LYP/SVP
 --------------------------

 --
 TD
 --
 Symbolic Z-matrix:
 Charge =  0 Multiplicity = 1

                         Standard orientation:
 ---------------------------------------------------------------------
 Center     Atomic      Atomic             Coordinates (Angstroms)
 Number     Number       Type             X           Y           Z
 ---------------------------------------------------------------------
      1          8           0        4.669967   -4.716395   -1.786380
      2          8           0       -3.007571   -4.966915   -1.044668
      3          8           0       -7.070144   -1.636434   -1.962556
      4          8           0       -3.697521   -3.250370    0.122056
      5          8           0       -7.756110   -0.698680   -0.010705
      6          8           0        3.050951    2.659549    0.132207
      7          7           0        0.352534   -0.494900    0.433070
      8          7           0       -1.707643    1.832350    0.369152
      9          7           0        3.486492   -3.142115   -0.639044
     10          7           0        0.628638    2.880305   -0.041132
     11          6           0       -0.477478   -2.365526    1.383019
     12          6           0       -0.824811   -1.107372    0.896630
     13          6           0        0.891395   -2.556132    1.321315
     14          6           0        1.434716   -1.404441    0.798298
     15          6           0       -3.842902    1.252745    0.313001
     16          6           0       -2.456774    0.683974    0.521774
     17          6           0       -2.140768   -0.551597    0.878940
     18          6           0       -3.744631    2.623478    0.007593
     19          6           0       -1.540445   -3.375773    1.957023
     20          6           0        5.605514   -2.532871   -1.345388
     21          6           0        3.697324   -1.839131   -0.099640
     22          6           0       -2.298672    2.886033   -0.013732
     23          6           0        5.073772   -1.444192   -0.410072
     24          6           0       -5.183741    0.507859    0.396179
     25          6           0        2.793364   -0.941972    0.492777
     26          6           0        1.748019   -3.666494    1.944883
     27          6           0        4.615051   -3.619080   -1.284017
     28          6           0       -1.842970   -4.517804    0.904282
     29          6           0       -5.376604   -0.392395   -0.800657
     30          6           0       -4.667347    3.681024   -0.462683
     31          6           0       -1.470362    4.087465   -0.281997
     32          6           0        7.040171   -3.028496   -1.234025
     33          6           0        5.883685   -0.490322    0.016754
     34          6           0       -0.090983    4.014903   -0.295232
     35          6           0        0.828325    5.240688   -0.486232
     36          6           0        2.045286    4.762910   -0.408409
     37          6           0       -2.891344   -4.124117   -0.013623
     38          6           0        5.579015    0.668025    1.024910
     39          6           0       -6.787239   -0.974628   -0.727388
     40          6           0        3.413526    5.334110   -0.410067
     41          6           0        2.015689    3.271592   -0.031616
     42          6           0        0.321180    6.703957   -0.640695
     43          6           0        3.883647    5.714453    1.054905
     44          1           0        0.424160    0.352094   -0.020969
     45          1           0       -2.815375   -1.406616    0.997444
     46          1           0       -2.435159   -2.793732    2.222061
     47          1           0       -1.071623   -3.736893    2.938484
     48          1           0        5.410020   -2.113128   -2.485671
     49          1           0       -5.134992   -0.108949    1.323141
     50          1           0       -6.073497    1.055036    0.556977
     51          1           0        3.059155    0.089576    0.655456
     52          1           0       -0.684526    1.725294    0.402125
     53          1           0        1.582909   -4.531200    1.209097
     54          1           0        2.851812   -3.488672    2.015556
     55          1           0        1.341219   -3.783483    2.812034
     56          1           0        2.582238   -3.572648   -0.657094
     57          1           0       -0.898233   -4.915414    0.280484
     58          1           0       -2.190349   -5.320284    1.400117
     59          1           0       -4.768435   -1.112899   -0.730168
     60          1           0       -5.156189    0.125098   -1.900373
     61          1           0       -4.310150    4.568992    0.155262
     62          1           0       -5.850704    3.206635   -0.088150
     63          1           0       -4.657376    3.940777   -1.481810
     64          1           0       -2.162570    5.005729   -0.717584
     65          1           0        7.673136   -2.206419   -1.738382
     66          1           0        7.201770   -3.869295   -1.913572
     67          1           0        7.301787   -3.447258   -0.208415
     68          1           0        6.778557   -0.673472   -0.502372
     69          1           0        5.030524    1.509055    0.595691
     70          1           0        6.627146    0.950035    1.386043
     71          1           0        5.190216    0.225144    2.101406
     72          1           0        3.392265    6.226984   -1.062336
     73          1           0        4.111555    4.790378   -0.988754
     74          1           0       -0.543042    6.632836   -1.225309
     75          1           0        1.068187    7.277994   -0.948723
     76          1           0       -0.074470    7.093930    0.426452
     77          1           0        3.380108    6.433845    1.765403
     78          1           0        5.047646    6.271348    0.971505
     79          1           0        4.252446    4.710072    1.607844
     80          1           0       -3.836689   -4.749848   -1.519934
     81          1           0       -7.875845   -2.021394   -1.887782
 ---------------------------------------------------------------------

 SCF Done:  E(RB3LYP) =  -1949.08501431     A.U. after   16 cycles

 Excitation energies and oscillator strengths:

 Excited State   1:      Singlet-A      2.0886 eV  593.62 nm  f=0.3907  <S**2>=0.000
     156 ->157         0.70565
 This state for optimization and/or second-order correction.
 Total Energy, E(TD-HF/TD-DFT) =  -1949.00825918
 Copying the excited state density for this state as the 1-particle RhoCI density.

 The electronic state is 1-A.
 Alpha  occ. eigenvalues --  -19.19682 -19.16380 -19.14784 -19.14228 -19.10741
 Alpha  occ. eigenvalues --  -19.10718 -14.37236 -14.36713 -14.36699 -14.28979
 Alpha  occ. eigenvalues --  -10.33774 -10.33169 -10.28818 -10.26388 -10.24601
 Alpha  occ. eigenvalues --  -10.24530 -10.23888 -10.23330 -10.23060 -10.22769
 Alpha  occ. eigenvalues --  -10.22677 -10.22566 -10.21815 -10.21771 -10.21513
 Alpha  occ. eigenvalues --  -10.21185 -10.20974 -10.20694 -10.20431 -10.20184
 Alpha  occ. eigenvalues --  -10.20068 -10.19944 -10.19766 -10.19750 -10.19704
 Alpha  occ. eigenvalues --  -10.19424 -10.19309 -10.19284 -10.19161 -10.18974
 Alpha  occ. eigenvalues --  -10.18912 -10.18395 -10.17198  -1.12696  -1.08143
 Alpha  occ. eigenvalues --   -1.03893  -1.02870  -1.01553  -1.00939  -0.99939
 Alpha  occ. eigenvalues --   -0.96340  -0.94826  -0.90090  -0.82899  -0.82677
 Alpha  occ. eigenvalues --   -0.82138  -0.81939  -0.79894  -0.79106  -0.78651
 Alpha  occ. eigenvalues --   -0.77853  -0.76017  -0.74466  -0.73584  -0.72747
 Alpha  occ. eigenvalues --   -0.71368  -0.70045  -0.69362  -0.68628  -0.67870
 Alpha  occ. eigenvalues --   -0.67573  -0.65980  -0.65056  -0.62169  -0.61651
 Alpha  occ. eigenvalues --   -0.60832  -0.59710  -0.58327  -0.57686  -0.57513
 Alpha  occ. eigenvalues --   -0.56654  -0.56117  -0.54931  -0.53826  -0.53061
 Alpha  occ. eigenvalues --   -0.52812  -0.52034  -0.51152  -0.51038  -0.50421
 Alpha  occ. eigenvalues --   -0.50080  -0.49424  -0.48814  -0.48127  -0.47788
 Alpha  occ. eigenvalues --   -0.47438  -0.46599  -0.46228  -0.45848  -0.45440
 Alpha  occ. eigenvalues --   -0.45037  -0.44690  -0.44320  -0.43809  -0.43475
 Alpha  occ. eigenvalues --   -0.43239  -0.42978  -0.42514  -0.42456  -0.42250
 Alpha  occ. eigenvalues --   -0.41748  -0.41587  -0.41296  -0.41162  -0.40961
 Alpha  occ. eigenvalues --   -0.40806  -0.40577  -0.40044  -0.39923  -0.39632
 Alpha  occ. eigenvalues --   -0.39422  -0.39250  -0.39079  -0.38956  -0.38467
 Alpha  occ. eigenvalues --   -0.38361  -0.38067  -0.37775  -0.36970  -0.36470
 Alpha  occ. eigenvalues --   -0.36067  -0.35861  -0.35389  -0.35205  -0.34990
 Alpha  occ. eigenvalues --   -0.34519  -0.34172  -0.33444  -0.33289  -0.33076
 Alpha  occ. eigenvalues --   -0.32616  -0.32099  -0.31029  -0.30704  -0.30484
 Alpha  occ. eigenvalues --   -0.28958  -0.27804  -0.26901  -0.26074  -0.25781
 Alpha  occ. eigenvalues --   -0.25540  -0.24939  -0.23721  -0.23175  -0.21462
 Alpha  occ. eigenvalues --   -0.18535
 Alpha virt. eigenvalues --   -0.10039  -0.04980  -0.03678  -0.03000  -0.01697
 Alpha virt. eigenvalues --   -0.00521   0.02224   0.02466   0.03142   0.03955
 Alpha virt. eigenvalues --    0.04134   0.05506   0.05705   0.06381   0.06799

 Mulliken charges:
               1
     1  O   -0.200562
     2  O   -0.174801
     3  O   -0.204664
     4  O   -0.217989
     5  O   -0.232479
     6  O   -0.207302
     7  N   -0.120329
     8  N    0.032382
     9  N   -0.118846
    10  N   -0.366038
    11  C   -0.147582
    12  C    0.030250
    13  C   -0.192862
    14  C    0.084546
    15  C   -0.111169
    16  C    0.145269
    17  C   -0.089362
    18  C   -0.104732
    19  C    0.074338
    20  C   -0.118966
    21  C    0.098570
    22  C   -0.007350
    23  C   -0.034051
    24  C    0.101264
    25  C   -0.081389
    26  C    0.162628
    27  C    0.103590
    28  C    0.070649
    29  C    0.079640
    30  C    0.016932
    31  C   -0.169733
    32  C    0.049589
    33  C   -0.098960
    34  C    0.128692
    35  C   -0.123887
    36  C   -0.203561
    37  C    0.105044
    38  C    0.016465
    39  C    0.164472
    40  C    0.161677
    41  C    0.190397
    42  C    0.189144
    43  C   -0.106341
    44  H    0.094948
    45  H    0.025800
    46  H    0.019510
    47  H    0.021595
    48  H    0.072343
    49  H    0.013874
    50  H    0.002285
    51  H    0.019840
    52  H    0.124887
    53  H    0.018703
    54  H    0.041852
    55  H   -0.023866
    56  H    0.121195
    57  H    0.068607
    58  H    0.015775
    59  H   -0.050747
    60  H    0.078385
    61  H    0.045642
    62  H    0.047677
    63  H    0.039537
    64  H    0.022053
    65  H    0.031169
    66  H    0.022880
    67  H    0.035477
    68  H   -0.040942
    69  H    0.094801
    70  H    0.011972
    71  H    0.043686
    72  H   -0.024042
    73  H   -0.007789
    74  H    0.000110
    75  H   -0.018835
    76  H    0.034970
    77  H    0.042829
    78  H    0.004122
    79  H    0.053142
    80  H    0.190377
    81  H    0.133596
 Sum of Mulliken charges =  -0.00000

 Dipole moment (field-independent basis, Debye):
    X=             -2.5208    Y=             -1.3523    Z=              0.0194  Tot=              2.8607
 Quadrupole moment (field-independent basis, Debye-Ang):
   XX=           -263.2707   YY=           -242.7850   ZZ=           -252.9630
   XY=             14.9629   XZ=             11.5624   YZ=            -13.6471

 Normal termination of Gaussian 16 at Sat Jul  6 17:23:12 2019.
