 Gaussian 16, Revision A.03,
 Gaussian 16:  ES64L-G16RevA.03 25-Dec-2016

 --------------------------
 # td=(NStates=1) B3LYP/SVP
 --------------------------

 --
 TD
 --
 Symbolic Z-matrix:
 Charge =  0 Multiplicity = 1

                         Standard orientation:
 ---------------------------------------------------------------------
 Center     Atomic      Atomic             Coordinates (Angstroms)
 Number     Number       Type             X           Y           Z
 ---------------------------------------------------------------------
      1          8           0       -4.511741   -4.491470    2.049723
      2          8           0        2.532064   -4.835578    1.269880
      3          8           0        7.113647   -1.736034    1.928183
      4          8           0        3.532717   -3.327846   -0.114345
      5          8           0        7.726688   -0.630137    0.030114
      6          8           0       -2.863954    2.505966   -0.280720
      7          7           0       -0.349039   -0.551142   -0.663960
      8          7           0        1.584229    1.706545   -0.387804
      9          7           0       -3.490805   -3.001391    0.710420
     10          7           0       -0.576302    2.967414   -0.200151
     11          6           0        0.533965   -2.508192   -1.463675
     12          6           0        0.883360   -1.170024   -1.009078
     13          6           0       -0.877683   -2.625543   -1.265592
     14          6           0       -1.388618   -1.376964   -0.664832
     15          6           0        3.858724    1.309566   -0.455450
     16          6           0        2.587989    0.639392   -0.614761
     17          6           0        2.196236   -0.623812   -0.969055
     18          6           0        3.663537    2.529365   -0.051112
     19          6           0        1.404444   -3.546220   -1.945039
     20          6           0       -5.678011   -2.340668    1.357180
     21          6           0       -3.683379   -1.674416    0.215770
     22          6           0        2.183814    2.833153   -0.063489
     23          6           0       -5.169700   -1.391947    0.278596
     24          6           0        5.124433    0.487999   -0.404704
     25          6           0       -2.696775   -0.942433   -0.385730
     26          6           0       -1.709058   -3.807802   -1.770383
     27          6           0       -4.601383   -3.464347    1.461944
     28          6           0        1.851969   -4.606619   -0.881516
     29          6           0        5.403867   -0.269190    0.890924
     30          6           0        4.618152    3.671561    0.264206
     31          6           0        1.461651    4.047657    0.132944
     32          6           0       -7.111434   -2.897865    1.235415
     33          6           0       -5.804969   -0.425736   -0.378669
     34          6           0        0.086611    4.053782    0.085778
     35          6           0       -0.750686    5.073980    0.499855
     36          6           0       -2.000531    4.687746    0.229867
     37          6           0        2.722289   -4.184018    0.119578
     38          6           0       -5.335021    0.594267   -1.355751
     39          6           0        6.847767   -0.847063    0.929579
     40          6           0       -3.297775    5.438864    0.596369
     41          6           0       -1.936594    3.244497   -0.105252
     42          6           0       -0.238387    6.466357    1.022053
     43          6           0       -4.023145    5.824338   -0.784579
     44          1           0       -0.375118    0.178368   -0.070295
     45          1           0        2.994266   -1.516692   -0.872465
     46          1           0        2.327167   -3.126871   -2.334906
     47          1           0        0.717940   -4.097003   -2.880364
     48          1           0       -5.375043   -1.696724    2.388905
     49          1           0        5.161774   -0.020084   -1.303161
     50          1           0        5.931512    1.407802   -0.387724
     51          1           0       -2.980730    0.020806   -0.577226
     52          1           0        0.546359    2.010778   -0.628148
     53          1           0       -1.772462   -4.669969   -0.868620
     54          1           0       -2.681578   -3.462051   -1.874763
     55          1           0       -1.261250   -4.358902   -2.675815
     56          1           0       -2.593586   -3.529549    0.732759
     57          1           0        0.806772   -5.114711   -0.816916
     58          1           0        2.429489   -5.277082   -1.423239
     59          1           0        4.821596   -1.065939    1.167765
     60          1           0        5.405342    0.171834    1.761396
     61          1           0        4.630836    4.484070   -0.519959
     62          1           0        5.604866    3.256394    0.329735
     63          1           0        4.235912    3.911909    1.218720
     64          1           0        2.068146    4.926531    0.464712
     65          1           0       -7.788120   -2.051817    1.499023
     66          1           0       -7.315275   -3.694934    2.100362
     67          1           0       -7.351320   -3.434651    0.215568
     68          1           0       -6.867039   -0.123872   -0.014263
     69          1           0       -4.678931    1.334217   -0.805937
     70          1           0       -6.270551    1.035819   -1.733746
     71          1           0       -4.917127    0.122175   -2.245262
     72          1           0       -2.907431    6.342943    1.196989
     73          1           0       -3.974994    4.993832    1.353649
     74          1           0        0.096260    6.613643    1.961031
     75          1           0       -1.113214    7.302970    1.020269
     76          1           0        0.700561    7.063811    0.450139
     77          1           0       -3.496661    6.660709   -1.247797
     78          1           0       -5.276153    6.059975   -0.621025
     79          1           0       -3.827726    4.940308   -1.531942
     80          1           0        3.137960   -4.581588    1.929751
     81          1           0        8.041651   -1.943660    1.862225
 ---------------------------------------------------------------------

 SCF Done:  E(RB3LYP) =  -1949.07685528     A.U. after   16 cycles

 Excitation energies and oscillator strengths:

 Excited State   1:      Singlet-A      1.9711 eV  629.01 nm  f=0.3466  <S**2>=0.000
     156 ->157         0.70612
 This state for optimization and/or second-order correction.
 Total Energy, E(TD-HF/TD-DFT) =  -1949.00441905
 Copying the excited state density for this state as the 1-particle RhoCI density.

 The electronic state is 1-A.
 Alpha  occ. eigenvalues --  -19.20226 -19.19051 -19.14692 -19.12287 -19.11485
 Alpha  occ. eigenvalues --  -19.10674 -14.37120 -14.36082 -14.34422 -14.28096
 Alpha  occ. eigenvalues --  -10.33849 -10.32807 -10.29253 -10.26415 -10.24224
 Alpha  occ. eigenvalues --  -10.23409 -10.23391 -10.23049 -10.22933 -10.22835
 Alpha  occ. eigenvalues --  -10.21875 -10.21503 -10.21289 -10.20982 -10.20946
 Alpha  occ. eigenvalues --  -10.20941 -10.20941 -10.20905 -10.20326 -10.20233
 Alpha  occ. eigenvalues --  -10.20158 -10.19825 -10.19800 -10.19782 -10.19737
 Alpha  occ. eigenvalues --  -10.19585 -10.19509 -10.19385 -10.19368 -10.18559
 Alpha  occ. eigenvalues --  -10.18502 -10.17779 -10.17736  -1.12643  -1.09198
 Alpha  occ. eigenvalues --   -1.04901  -1.04175  -1.02891  -0.98674  -0.97768
 Alpha  occ. eigenvalues --   -0.96840  -0.94004  -0.93320  -0.83368  -0.83010
 Alpha  occ. eigenvalues --   -0.81058  -0.80469  -0.79315  -0.78905  -0.78429
 Alpha  occ. eigenvalues --   -0.78012  -0.76147  -0.74943  -0.73534  -0.72241
 Alpha  occ. eigenvalues --   -0.71809  -0.69797  -0.69264  -0.68418  -0.67951
 Alpha  occ. eigenvalues --   -0.67170  -0.64995  -0.64526  -0.63611  -0.62051
 Alpha  occ. eigenvalues --   -0.61410  -0.60472  -0.58382  -0.56652  -0.56304
 Alpha  occ. eigenvalues --   -0.55963  -0.55036  -0.54883  -0.53417  -0.53095
 Alpha  occ. eigenvalues --   -0.52886  -0.51763  -0.51420  -0.50980  -0.50471
 Alpha  occ. eigenvalues --   -0.49609  -0.48968  -0.48725  -0.48029  -0.47701
 Alpha  occ. eigenvalues --   -0.47345  -0.46809  -0.46072  -0.45820  -0.45591
 Alpha  occ. eigenvalues --   -0.45024  -0.44416  -0.44175  -0.43997  -0.43417
 Alpha  occ. eigenvalues --   -0.43401  -0.43072  -0.42730  -0.42393  -0.41981
 Alpha  occ. eigenvalues --   -0.41857  -0.41642  -0.41419  -0.40894  -0.40588
 Alpha  occ. eigenvalues --   -0.40501  -0.39827  -0.39734  -0.39476  -0.39169
 Alpha  occ. eigenvalues --   -0.39058  -0.38914  -0.38408  -0.38282  -0.38067
 Alpha  occ. eigenvalues --   -0.37668  -0.37424  -0.37207  -0.36837  -0.36621
 Alpha  occ. eigenvalues --   -0.36375  -0.36291  -0.35734  -0.34761  -0.34626
 Alpha  occ. eigenvalues --   -0.34458  -0.34217  -0.33869  -0.33604  -0.32974
 Alpha  occ. eigenvalues --   -0.32361  -0.32239  -0.31502  -0.30629  -0.30128
 Alpha  occ. eigenvalues --   -0.27926  -0.27473  -0.27102  -0.26638  -0.25220
 Alpha  occ. eigenvalues --   -0.24911  -0.24419  -0.24158  -0.23756  -0.21553
 Alpha  occ. eigenvalues --   -0.17826
 Alpha virt. eigenvalues --   -0.09774  -0.05878  -0.03323  -0.01655  -0.00776
 Alpha virt. eigenvalues --    0.00085   0.01686   0.02411   0.03692   0.03996
 Alpha virt. eigenvalues --    0.04196   0.04924   0.05482   0.05487   0.06135

 Mulliken charges:
               1
     1  O   -0.171585
     2  O   -0.136521
     3  O   -0.176347
     4  O   -0.224639
     5  O   -0.289520
     6  O   -0.177730
     7  N    0.011857
     8  N   -0.150179
     9  N   -0.181334
    10  N   -0.292004
    11  C   -0.060167
    12  C    0.024292
    13  C   -0.177798
    14  C    0.086010
    15  C   -0.074291
    16  C    0.090602
    17  C   -0.115358
    18  C   -0.161444
    19  C   -0.014644
    20  C   -0.123431
    21  C    0.065762
    22  C   -0.001337
    23  C    0.051598
    24  C    0.120392
    25  C   -0.076004
    26  C    0.054602
    27  C    0.128215
    28  C    0.080004
    29  C    0.192570
    30  C    0.149302
    31  C   -0.125083
    32  C    0.012855
    33  C   -0.242197
    34  C    0.123601
    35  C   -0.027822
    36  C   -0.198633
    37  C    0.135871
    38  C    0.062344
    39  C    0.112773
    40  C    0.054035
    41  C    0.146108
    42  C    0.017831
    43  C   -0.065386
    44  H    0.102155
    45  H    0.086648
    46  H    0.007260
    47  H    0.035981
    48  H    0.076750
    49  H    0.007295
    50  H    0.033069
    51  H   -0.049419
    52  H    0.178141
    53  H    0.026581
    54  H    0.018304
    55  H    0.032895
    56  H    0.141192
    57  H    0.042790
    58  H    0.024672
    59  H   -0.011854
    60  H   -0.038669
    61  H    0.048688
    62  H   -0.009879
    63  H    0.016852
    64  H   -0.021231
    65  H    0.029269
    66  H    0.046147
    67  H    0.051358
    68  H    0.010901
    69  H    0.106033
    70  H    0.000035
    71  H    0.024741
    72  H   -0.002890
    73  H    0.023886
    74  H   -0.005134
    75  H    0.028907
    76  H    0.035426
    77  H    0.018749
    78  H    0.038583
    79  H    0.047095
    80  H    0.165203
    81  H    0.176302
 Sum of Mulliken charges =  -0.00000

 Dipole moment (field-independent basis, Debye):
    X=              2.0387    Y=             -0.3667    Z=              1.9717  Tot=              2.8598
 Quadrupole moment (field-independent basis, Debye-Ang):
   XX=           -255.3232   YY=           -240.6870   ZZ=           -251.8853
   XY=            -13.7418   XZ=             19.5936   YZ=             13.1380

 Normal termination of Gaussian 16 at Sun Jun 30 23:12:11 2019.
