 Gaussian 16, Revision A.03,
 Gaussian 16:  ES64L-G16RevA.03 25-Dec-2016

 --------------------------
 # td=(NStates=1) B3LYP/SVP
 --------------------------

 --
 TD
 --
 Symbolic Z-matrix:
 Charge =  0 Multiplicity = 1

                         Standard orientation:
 ---------------------------------------------------------------------
 Center     Atomic      Atomic             Coordinates (Angstroms)
 Number     Number       Type             X           Y           Z
 ---------------------------------------------------------------------
      1          8           0        4.363940   -4.744951   -1.902239
      2          8           0       -3.038868   -4.738545   -1.356627
      3          8           0       -7.174093   -1.374822   -1.838624
      4          8           0       -3.780725   -3.187104   -0.072252
      5          8           0       -7.631733   -0.374341    0.042496
      6          8           0        3.026888    2.348849    0.084212
      7          7           0        0.319632   -0.546178    0.683885
      8          7           0       -1.471688    1.761132    0.398382
      9          7           0        3.321741   -3.079859   -0.577482
     10          7           0        0.793363    2.943615    0.179367
     11          6           0       -0.617410   -2.476263    1.373601
     12          6           0       -0.918944   -1.127966    0.969801
     13          6           0        0.819566   -2.639041    1.289752
     14          6           0        1.369605   -1.463643    0.765491
     15          6           0       -3.789457    1.439113    0.412481
     16          6           0       -2.462613    0.817234    0.631437
     17          6           0       -2.149708   -0.517384    0.949243
     18          6           0       -3.521869    2.693304   -0.030883
     19          6           0       -1.665201   -3.484179    1.917418
     20          6           0        5.505017   -2.633062   -1.358377
     21          6           0        3.645802   -1.795959   -0.105620
     22          6           0       -2.060655    2.942141    0.066204
     23          6           0        5.047842   -1.596215   -0.482216
     24          6           0       -5.071414    0.655059    0.440991
     25          6           0        2.673838   -1.006620    0.443208
     26          6           0        1.388749   -3.864462    1.872837
     27          6           0        4.373795   -3.659671   -1.424952
     28          6           0       -2.044410   -4.606307    0.847657
     29          6           0       -5.469115    0.030428   -0.877031
     30          6           0       -4.639191    3.717043   -0.394161
     31          6           0       -1.302554    4.041914   -0.250136
     32          6           0        6.859862   -3.298798   -1.032249
     33          6           0        5.860300   -0.594394    0.066074
     34          6           0        0.108724    4.109281   -0.135027
     35          6           0        1.029540    5.210118   -0.459533
     36          6           0        2.298908    4.675363   -0.408061
     37          6           0       -3.035457   -4.040935   -0.203652
     38          6           0        5.564101    0.351019    1.220650
     39          6           0       -6.885821   -0.629455   -0.813383
     40          6           0        3.583961    5.346236   -0.473125
     41          6           0        2.137081    3.167441   -0.079339
     42          6           0        0.559504    6.621535   -0.572708
     43          6           0        4.365253    5.627612    0.775918
     44          1           0        0.439837    0.407288    0.284818
     45          1           0       -3.046145   -1.405459    1.245091
     46          1           0       -2.706334   -3.154560    2.378514
     47          1           0       -1.310333   -4.036506    2.590796
     48          1           0        5.511710   -2.342892   -2.403069
     49          1           0       -5.049347    0.084619    1.259948
     50          1           0       -5.784937    1.376917    0.772229
     51          1           0        3.125720   -0.072398    0.441509
     52          1           0       -0.573420    1.704658    0.724529
     53          1           0        1.367017   -4.908966    1.351443
     54          1           0        2.549421   -3.738819    2.026926
     55          1           0        0.918001   -4.122094    2.820732
     56          1           0        2.336235   -3.419259   -0.678099
     57          1           0       -1.262966   -5.117044    0.495915
     58          1           0       -2.467521   -5.570697    1.366358
     59          1           0       -4.714818   -0.790610   -0.789821
     60          1           0       -5.446058    0.646316   -1.860809
     61          1           0       -4.398530    4.797639   -0.040441
     62          1           0       -5.472229    3.469618    0.271568
     63          1           0       -4.830277    3.716683   -1.573613
     64          1           0       -1.678310    5.035605   -0.636111
     65          1           0        7.629192   -2.637062   -1.193432
     66          1           0        7.006532   -4.137531   -1.870980
     67          1           0        6.986994   -3.763307    0.036135
     68          1           0        6.829738   -0.419608   -0.636151
     69          1           0        5.269841    1.342781    0.799388
     70          1           0        6.626685    0.582313    1.628285
     71          1           0        4.747821   -0.017493    2.068110
     72          1           0        3.577121    6.281049   -1.103501
     73          1           0        4.208598    4.771747   -1.180337
     74          1           0        0.133533    6.827849   -1.582524
     75          1           0        1.363523    7.453192   -0.870553
     76          1           0       -0.160117    7.051346    0.067351
     77          1           0        3.848780    6.462205    1.392997
     78          1           0        5.260226    6.082914    0.469792
     79          1           0        4.540660    4.744797    1.458869
     80          1           0       -3.603254   -4.427732   -2.028885
     81          1           0       -7.982978   -1.804081   -1.601625
 ---------------------------------------------------------------------

 SCF Done:  E(RB3LYP) =  -1949.11611122     A.U. after   16 cycles

 Excitation energies and oscillator strengths:

 Excited State   1:      Singlet-A      1.8381 eV  674.54 nm  f=0.3728  <S**2>=0.000
     156 ->157         0.70728
     156 <-157        -0.12365
 This state for optimization and/or second-order correction.
 Total Energy, E(TD-HF/TD-DFT) =  -1949.04856396
 Copying the excited state density for this state as the 1-particle RhoCI density.

 The electronic state is 1-A.
 Alpha  occ. eigenvalues --  -19.18842 -19.17273 -19.14033 -19.12330 -19.12200
 Alpha  occ. eigenvalues --  -19.09662 -14.37102 -14.36080 -14.35693 -14.27551
 Alpha  occ. eigenvalues --  -10.32780 -10.31450 -10.29432 -10.25617 -10.24219
 Alpha  occ. eigenvalues --  -10.23935 -10.23470 -10.23335 -10.22673 -10.22269
 Alpha  occ. eigenvalues --  -10.21938 -10.21600 -10.21564 -10.21239 -10.21041
 Alpha  occ. eigenvalues --  -10.20951 -10.20530 -10.20428 -10.20357 -10.20338
 Alpha  occ. eigenvalues --  -10.20337 -10.20300 -10.19938 -10.19861 -10.19728
 Alpha  occ. eigenvalues --  -10.19713 -10.19683 -10.18688 -10.18662 -10.18612
 Alpha  occ. eigenvalues --  -10.18218 -10.17835 -10.17554  -1.13057  -1.12807
 Alpha  occ. eigenvalues --   -1.04941  -1.03118  -1.03086  -1.00471  -0.98603
 Alpha  occ. eigenvalues --   -0.96756  -0.93875  -0.89828  -0.82682  -0.81809
 Alpha  occ. eigenvalues --   -0.81535  -0.80826  -0.79265  -0.78346  -0.77503
 Alpha  occ. eigenvalues --   -0.77110  -0.76115  -0.75113  -0.73721  -0.71503
 Alpha  occ. eigenvalues --   -0.70286  -0.69415  -0.69208  -0.68638  -0.68354
 Alpha  occ. eigenvalues --   -0.67407  -0.65288  -0.64093  -0.62372  -0.62152
 Alpha  occ. eigenvalues --   -0.61506  -0.60402  -0.58460  -0.57686  -0.57183
 Alpha  occ. eigenvalues --   -0.55825  -0.55437  -0.54973  -0.53337  -0.53225
 Alpha  occ. eigenvalues --   -0.52148  -0.51719  -0.50963  -0.50544  -0.49861
 Alpha  occ. eigenvalues --   -0.49464  -0.49066  -0.48684  -0.48495  -0.47990
 Alpha  occ. eigenvalues --   -0.47409  -0.46943  -0.45917  -0.45392  -0.44862
 Alpha  occ. eigenvalues --   -0.44518  -0.44318  -0.43837  -0.43767  -0.43157
 Alpha  occ. eigenvalues --   -0.43037  -0.42905  -0.42737  -0.42394  -0.41697
 Alpha  occ. eigenvalues --   -0.41331  -0.41209  -0.41004  -0.40915  -0.40842
 Alpha  occ. eigenvalues --   -0.40541  -0.40206  -0.39795  -0.39194  -0.38807
 Alpha  occ. eigenvalues --   -0.38385  -0.38322  -0.38303  -0.38075  -0.37954
 Alpha  occ. eigenvalues --   -0.37929  -0.37613  -0.37360  -0.37141  -0.36568
 Alpha  occ. eigenvalues --   -0.36132  -0.35950  -0.35787  -0.35555  -0.34829
 Alpha  occ. eigenvalues --   -0.34592  -0.34228  -0.34040  -0.33776  -0.33506
 Alpha  occ. eigenvalues --   -0.33272  -0.32576  -0.31596  -0.29994  -0.29650
 Alpha  occ. eigenvalues --   -0.28080  -0.26880  -0.26793  -0.26269  -0.25691
 Alpha  occ. eigenvalues --   -0.24671  -0.24424  -0.23256  -0.22244  -0.20910
 Alpha  occ. eigenvalues --   -0.17233
 Alpha virt. eigenvalues --   -0.10056  -0.05703  -0.03960   0.00043   0.00221
 Alpha virt. eigenvalues --    0.01962   0.02321   0.03500   0.04115   0.04239
 Alpha virt. eigenvalues --    0.04820   0.05073   0.05525   0.05672   0.05834

 Mulliken charges:
               1
     1  O   -0.160295
     2  O   -0.176510
     3  O   -0.118838
     4  O   -0.145506
     5  O   -0.187669
     6  O   -0.206771
     7  N   -0.125621
     8  N   -0.020819
     9  N   -0.223391
    10  N   -0.340641
    11  C   -0.084374
    12  C    0.039316
    13  C   -0.105103
    14  C    0.150396
    15  C   -0.119477
    16  C    0.049802
    17  C   -0.111850
    18  C   -0.148720
    19  C    0.197826
    20  C   -0.019484
    21  C    0.029351
    22  C    0.152763
    23  C   -0.032075
    24  C    0.246810
    25  C   -0.038526
    26  C   -0.000618
    27  C    0.121062
    28  C   -0.012020
    29  C   -0.025465
    30  C    0.037231
    31  C   -0.116816
    32  C    0.048177
    33  C   -0.154738
    34  C    0.014935
    35  C   -0.026620
    36  C   -0.174685
    37  C    0.114100
    38  C    0.007052
    39  C    0.080794
    40  C    0.052575
    41  C    0.156242
    42  C    0.073025
    43  C    0.026211
    44  H    0.143582
    45  H    0.083050
    46  H    0.041904
    47  H   -0.101670
    48  H    0.028857
    49  H   -0.038294
    50  H   -0.030825
    51  H   -0.044760
    52  H    0.106052
    53  H    0.029364
    54  H    0.037088
    55  H    0.022003
    56  H    0.147416
    57  H   -0.029416
    58  H    0.041685
    59  H    0.049987
    60  H    0.060136
    61  H    0.028029
    62  H    0.028503
    63  H    0.055392
    64  H   -0.021919
    65  H   -0.009947
    66  H    0.036763
    67  H    0.040060
    68  H    0.028807
    69  H    0.069510
    70  H    0.024522
    71  H    0.075038
    72  H   -0.016938
    73  H   -0.003628
    74  H    0.002597
    75  H    0.009027
    76  H    0.023610
    77  H    0.009951
    78  H   -0.004879
    79  H    0.037007
    80  H    0.161602
    81  H    0.159696
 Sum of Mulliken charges =  -0.00000

 Dipole moment (field-independent basis, Debye):
    X=             -2.4667    Y=             -0.0111    Z=             -0.7690  Tot=              2.5838
 Quadrupole moment (field-independent basis, Debye-Ang):
   XX=           -242.7548   YY=           -237.9281   ZZ=           -251.7034
   XY=             18.3020   XZ=             10.8325   YZ=            -13.7382

 Normal termination of Gaussian 16 at Mon Jul  1 21:37:37 2019.
