 Gaussian 16, Revision A.03,
 Gaussian 16:  ES64L-G16RevA.03 25-Dec-2016

 --------------------------
 # td=(NStates=1) B3LYP/SVP
 --------------------------

 --
 TD
 --
 Symbolic Z-matrix:
 Charge =  0 Multiplicity = 1

                         Standard orientation:
 ---------------------------------------------------------------------
 Center     Atomic      Atomic             Coordinates (Angstroms)
 Number     Number       Type             X           Y           Z
 ---------------------------------------------------------------------
      1          8           0       -4.288172   -4.820798    1.812117
      2          8           0        3.353688   -4.760580    1.263185
      3          8           0        7.079324   -1.368203    1.687301
      4          8           0        3.890736   -2.912168    0.051104
      5          8           0        7.577336   -0.468352   -0.247644
      6          8           0       -3.057742    2.392395   -0.434210
      7          7           0       -0.293857   -0.582966   -0.599333
      8          7           0        1.473093    1.821032   -0.421597
      9          7           0       -3.367074   -3.113000    0.644650
     10          7           0       -0.844151    2.879224   -0.198699
     11          6           0        0.649980   -2.436300   -1.307802
     12          6           0        0.960328   -1.040950   -1.030567
     13          6           0       -0.781239   -2.682800   -1.204492
     14          6           0       -1.304891   -1.456211   -0.768236
     15          6           0        3.734658    1.429527   -0.307789
     16          6           0        2.516398    0.901233   -0.640287
     17          6           0        2.203247   -0.393866   -0.926438
     18          6           0        3.495315    2.843005    0.064894
     19          6           0        1.697626   -3.454759   -1.825396
     20          6           0       -5.496076   -2.670028    1.476433
     21          6           0       -3.652547   -1.843577    0.187943
     22          6           0        2.017900    2.982350   -0.044404
     23          6           0       -5.063231   -1.620396    0.448372
     24          6           0        5.085754    0.776821   -0.451943
     25          6           0       -2.691154   -0.964272   -0.454369
     26          6           0       -1.458364   -3.996025   -1.684719
     27          6           0       -4.293405   -3.706705    1.337177
     28          6           0        2.290484   -4.466094   -0.705637
     29          6           0        5.520497    0.030199    0.814309
     30          6           0        4.523256    3.855962    0.541301
     31          6           0        1.230133    4.134338    0.212797
     32          6           0       -6.821661   -3.215872    1.156218
     33          6           0       -5.958507   -0.785869   -0.260552
     34          6           0       -0.159694    4.041658    0.237995
     35          6           0       -1.134807    5.036343    0.633557
     36          6           0       -2.382117    4.524252    0.332857
     37          6           0        3.258744   -3.896258    0.178271
     38          6           0       -5.670444    0.264041   -1.352627
     39          6           0        6.816746   -0.604622    0.610859
     40          6           0       -3.774027    5.124134    0.500396
     41          6           0       -2.173000    3.158568   -0.049202
     42          6           0       -0.776701    6.492974    1.016381
     43          6           0       -4.203589    5.581014   -0.942087
     44          1           0       -0.413885    0.624837   -0.389897
     45          1           0        3.104520   -1.111895   -0.879863
     46          1           0        2.532725   -2.772196   -1.934989
     47          1           0        1.293592   -4.091154   -2.657510
     48          1           0       -5.545647   -2.202983    2.633178
     49          1           0        4.978066    0.203778   -1.364588
     50          1           0        6.167577    1.429165   -0.538983
     51          1           0       -3.200897    0.039552   -0.966053
     52          1           0        0.465422    1.683172   -0.456671
     53          1           0       -1.297176   -4.827923   -1.044424
     54          1           0       -2.537352   -3.819989   -1.762309
     55          1           0       -1.091872   -4.330412   -2.732954
     56          1           0       -2.567490   -3.683988    0.734418
     57          1           0        1.471280   -4.896826   -0.048968
     58          1           0        2.814157   -5.359629   -1.112136
     59          1           0        4.744625   -0.843936    0.969362
     60          1           0        5.570752    0.755932    1.613403
     61          1           0        4.050042    4.923486    0.229291
     62          1           0        5.644541    3.749295    0.131428
     63          1           0        4.630418    3.846336    1.751349
     64          1           0        1.573486    5.144287    0.310762
     65          1           0       -7.587285   -2.763202    1.641199
     66          1           0       -6.908790   -4.271212    1.691837
     67          1           0       -7.100577   -3.352934   -0.013973
     68          1           0       -6.934846   -0.960399    0.078603
     69          1           0       -4.701763    1.020695   -1.262273
     70          1           0       -6.735376    0.678459   -1.471725
     71          1           0       -5.259220   -0.349816   -2.207656
     72          1           0       -3.951332    6.051162    1.221354
     73          1           0       -4.279303    4.291796    1.013190
     74          1           0        0.017515    6.537662    1.779223
     75          1           0       -1.627264    7.094692    1.318360
     76          1           0       -0.473219    7.126888    0.217525
     77          1           0       -3.376181    6.222843   -1.433241
     78          1           0       -5.211169    6.425787   -0.762593
     79          1           0       -4.555127    4.767102   -1.560905
     80          1           0        3.881853   -4.363549    1.911512
     81          1           0        7.964086   -1.794147    1.566472
 ---------------------------------------------------------------------

 SCF Done:  E(RB3LYP) =  -1949.07635101     A.U. after   24 cycles

 Excitation energies and oscillator strengths:

 Excited State   1:      Singlet-A      1.8703 eV  662.89 nm  f=0.2947  <S**2>=0.000
     154 ->157         0.11174
     156 ->157         0.70007
     156 <-157        -0.10297
 This state for optimization and/or second-order correction.
 Total Energy, E(TD-HF/TD-DFT) =  -1949.00761703
 Copying the excited state density for this state as the 1-particle RhoCI density.

 The electronic state is 1-A.
 Alpha  occ. eigenvalues --  -19.18428 -19.17499 -19.15787 -19.13108 -19.10776
 Alpha  occ. eigenvalues --  -19.08724 -14.38516 -14.37733 -14.36414 -14.27953
 Alpha  occ. eigenvalues --  -10.33624 -10.31252 -10.28453 -10.25409 -10.24966
 Alpha  occ. eigenvalues --  -10.24627 -10.24622 -10.23611 -10.23197 -10.23102
 Alpha  occ. eigenvalues --  -10.22272 -10.22187 -10.21939 -10.21854 -10.21585
 Alpha  occ. eigenvalues --  -10.21427 -10.21237 -10.21215 -10.21129 -10.21028
 Alpha  occ. eigenvalues --  -10.20844 -10.20622 -10.20514 -10.20512 -10.20462
 Alpha  occ. eigenvalues --  -10.20166 -10.20141 -10.19735 -10.19677 -10.18887
 Alpha  occ. eigenvalues --  -10.18796 -10.18663 -10.18403  -1.11921  -1.11409
 Alpha  occ. eigenvalues --   -1.04900  -1.04003  -1.02163  -1.00012  -0.98917
 Alpha  occ. eigenvalues --   -0.97503  -0.97087  -0.90224  -0.83077  -0.81774
 Alpha  occ. eigenvalues --   -0.81466  -0.81010  -0.78671  -0.78024  -0.77911
 Alpha  occ. eigenvalues --   -0.77500  -0.76136  -0.74600  -0.73709  -0.72725
 Alpha  occ. eigenvalues --   -0.71261  -0.69987  -0.68925  -0.68212  -0.67867
 Alpha  occ. eigenvalues --   -0.67474  -0.65414  -0.64284  -0.62631  -0.61028
 Alpha  occ. eigenvalues --   -0.59967  -0.59556  -0.58540  -0.57382  -0.56923
 Alpha  occ. eigenvalues --   -0.56151  -0.55514  -0.54692  -0.54062  -0.52948
 Alpha  occ. eigenvalues --   -0.52379  -0.52036  -0.51388  -0.50716  -0.50306
 Alpha  occ. eigenvalues --   -0.49933  -0.49433  -0.48607  -0.48408  -0.47866
 Alpha  occ. eigenvalues --   -0.47342  -0.46245  -0.45572  -0.45405  -0.44969
 Alpha  occ. eigenvalues --   -0.44796  -0.44310  -0.43961  -0.43713  -0.43340
 Alpha  occ. eigenvalues --   -0.42989  -0.42751  -0.42619  -0.42204  -0.41903
 Alpha  occ. eigenvalues --   -0.41688  -0.41398  -0.41295  -0.41109  -0.40479
 Alpha  occ. eigenvalues --   -0.40358  -0.39969  -0.39890  -0.39719  -0.39474
 Alpha  occ. eigenvalues --   -0.39124  -0.39040  -0.38768  -0.38637  -0.38252
 Alpha  occ. eigenvalues --   -0.37891  -0.37512  -0.37277  -0.36992  -0.36930
 Alpha  occ. eigenvalues --   -0.36678  -0.35728  -0.35320  -0.35179  -0.34824
 Alpha  occ. eigenvalues --   -0.34529  -0.33826  -0.33540  -0.33072  -0.32646
 Alpha  occ. eigenvalues --   -0.32333  -0.32007  -0.31565  -0.30992  -0.29984
 Alpha  occ. eigenvalues --   -0.29077  -0.27103  -0.26688  -0.25729  -0.24868
 Alpha  occ. eigenvalues --   -0.24734  -0.24388  -0.23437  -0.22532  -0.21156
 Alpha  occ. eigenvalues --   -0.18491
 Alpha virt. eigenvalues --   -0.10851  -0.06457  -0.05047  -0.01526  -0.00289
 Alpha virt. eigenvalues --    0.01246   0.01780   0.02695   0.03179   0.03342
 Alpha virt. eigenvalues --    0.03877   0.04246   0.04714   0.04911   0.05951

 Mulliken charges:
               1
     1  O   -0.219591
     2  O   -0.196189
     3  O   -0.203733
     4  O   -0.178903
     5  O   -0.166893
     6  O   -0.244001
     7  N   -0.177941
     8  N   -0.059515
     9  N   -0.009690
    10  N   -0.360148
    11  C   -0.152470
    12  C    0.092264
    13  C   -0.153771
    14  C    0.055771
    15  C   -0.046382
    16  C    0.116441
    17  C   -0.116644
    18  C   -0.109787
    19  C    0.136645
    20  C   -0.118217
    21  C    0.065161
    22  C    0.129908
    23  C   -0.077021
    24  C   -0.010306
    25  C   -0.103837
    26  C    0.077111
    27  C    0.061595
    28  C   -0.021801
    29  C   -0.014743
    30  C   -0.035531
    31  C   -0.110844
    32  C    0.032899
    33  C   -0.063075
    34  C    0.072867
    35  C   -0.090145
    36  C   -0.158315
    37  C    0.122068
    38  C   -0.034336
    39  C    0.104680
    40  C    0.049342
    41  C    0.144975
    42  C    0.107388
    43  C   -0.065059
    44  H    0.219626
    45  H    0.056476
    46  H    0.005558
    47  H    0.022606
    48  H    0.068896
    49  H    0.025390
    50  H    0.048786
    51  H    0.084452
    52  H    0.110324
    53  H    0.017973
    54  H    0.029033
    55  H    0.036415
    56  H    0.116329
    57  H    0.052018
    58  H    0.052869
    59  H    0.068456
    60  H    0.039978
    61  H    0.048728
    62  H    0.054825
    63  H    0.055253
    64  H   -0.034359
    65  H   -0.015058
    66  H    0.026841
    67  H    0.039102
    68  H   -0.021285
    69  H    0.133774
    70  H    0.042113
    71  H    0.038177
    72  H    0.020585
    73  H    0.029008
    74  H    0.018543
    75  H   -0.003381
    76  H    0.010507
    77  H    0.039757
    78  H    0.010923
    79  H    0.046503
    80  H    0.154592
    81  H    0.179435
 Sum of Mulliken charges =  -0.00000

 Dipole moment (field-independent basis, Debye):
    X=              3.4418    Y=             -0.2751    Z=              0.7406  Tot=              3.5313
 Quadrupole moment (field-independent basis, Debye-Ang):
   XX=           -247.5102   YY=           -244.3257   ZZ=           -256.1271
   XY=            -14.2864   XZ=             16.2445   YZ=             14.5302

 Normal termination of Gaussian 16 at Wed Jul  3 21:52:35 2019.
