 Gaussian 16, Revision A.03,
 Gaussian 16:  ES64L-G16RevA.03 25-Dec-2016

 --------------------------
 # td=(NStates=1) B3LYP/SVP
 --------------------------

 --
 TD
 --
 Symbolic Z-matrix:
 Charge =  0 Multiplicity = 1

                         Standard orientation:
 ---------------------------------------------------------------------
 Center     Atomic      Atomic             Coordinates (Angstroms)
 Number     Number       Type             X           Y           Z
 ---------------------------------------------------------------------
      1          8           0       -4.248984   -4.938573    1.881399
      2          8           0        3.154531   -4.686006    1.310570
      3          8           0        7.072503   -1.418937    1.833066
      4          8           0        4.047543   -3.113767   -0.045044
      5          8           0        7.563742   -0.338595   -0.012194
      6          8           0       -3.094307    2.385910   -0.008036
      7          7           0       -0.268288   -0.565110   -0.620299
      8          7           0        1.399041    1.796199   -0.531544
      9          7           0       -3.290954   -3.249229    0.667046
     10          7           0       -0.833272    3.038719   -0.243084
     11          6           0        0.742618   -2.401506   -1.425599
     12          6           0        0.979811   -1.042586   -1.052175
     13          6           0       -0.683945   -2.778465   -1.271595
     14          6           0       -1.237386   -1.521906   -0.704507
     15          6           0        3.746657    1.587147   -0.285242
     16          6           0        2.474844    0.880433   -0.625205
     17          6           0        2.246932   -0.382261   -0.887740
     18          6           0        3.454270    2.842864    0.030218
     19          6           0        1.770754   -3.453502   -1.975242
     20          6           0       -5.457958   -2.773492    1.388382
     21          6           0       -3.613125   -1.980628   -0.005197
     22          6           0        2.035548    3.048996   -0.097497
     23          6           0       -4.966095   -1.691608    0.291819
     24          6           0        4.967229    0.960568   -0.380471
     25          6           0       -2.629819   -1.209579   -0.583013
     26          6           0       -1.323169   -4.020320   -1.557835
     27          6           0       -4.287607   -3.813757    1.404624
     28          6           0        2.234947   -4.517558   -0.884293
     29          6           0        5.338115    0.084430    0.913999
     30          6           0        4.381153    3.947971    0.475736
     31          6           0        1.216305    4.082755    0.249101
     32          6           0       -6.797603   -3.569746    1.111852
     33          6           0       -5.738128   -0.694811   -0.183431
     34          6           0       -0.143667    4.087222    0.076011
     35          6           0       -1.211408    5.160688    0.428189
     36          6           0       -2.437594    4.676959    0.399980
     37          6           0        3.164323   -3.928990    0.161871
     38          6           0       -5.403499    0.334484   -1.223321
     39          6           0        6.768295   -0.516511    0.852072
     40          6           0       -3.870890    5.213019    0.496803
     41          6           0       -2.148848    3.194226   -0.013069
     42          6           0       -0.778785    6.721432    0.766779
     43          6           0       -4.531593    5.602989   -0.767930
     44          1           0       -0.491884    0.359344   -0.251742
     45          1           0        3.081638   -1.144141   -1.046532
     46          1           0        2.633451   -2.887577   -2.460383
     47          1           0        1.393953   -3.957777   -2.872863
     48          1           0       -5.598093   -2.297213    2.424621
     49          1           0        4.903880    0.223560   -1.219865
     50          1           0        5.807259    1.746634   -0.630829
     51          1           0       -2.794561   -0.057074   -0.478135
     52          1           0        0.350375    1.860559   -0.810284
     53          1           0       -1.333909   -4.696073   -0.612619
     54          1           0       -2.444719   -3.838888   -1.865587
     55          1           0       -0.795175   -4.693499   -2.327951
     56          1           0       -2.257333   -3.716584    0.330224
     57          1           0        1.480600   -5.035270   -0.419843
     58          1           0        2.693833   -5.339677   -1.608393
     59          1           0        4.804634   -0.812517    1.110003
     60          1           0        5.046696    0.707466    1.788523
     61          1           0        4.082671    4.867145    0.046923
     62          1           0        5.610392    3.587323    0.384704
     63          1           0        4.174519    4.091400    1.650383
     64          1           0        1.450707    5.258182    0.591489
     65          1           0       -7.672337   -2.967597    1.160288
     66          1           0       -6.906467   -4.402568    1.765080
     67          1           0       -6.999836   -3.863479    0.169589
     68          1           0       -6.799850   -0.700135    0.285628
     69          1           0       -4.672650    1.254224   -0.878886
     70          1           0       -6.261116    0.893899   -1.508942
     71          1           0       -4.759853   -0.194011   -2.225356
     72          1           0       -3.743721    5.911662    1.371207
     73          1           0       -4.509721    4.358546    0.935466
     74          1           0       -0.337489    6.805837    1.791713
     75          1           0       -1.601484    7.488380    0.682130
     76          1           0       -0.114303    7.024573   -0.162036
     77          1           0       -3.808003    6.359689   -1.028365
     78          1           0       -5.407490    6.192857   -0.586463
     79          1           0       -4.706960    4.961601   -1.738771
     80          1           0        4.127154   -4.354718    1.553361
     81          1           0        7.805185   -2.032153    1.365123
 ---------------------------------------------------------------------

 SCF Done:  E(RB3LYP) =  -1949.06812752     A.U. after   16 cycles

 Excitation energies and oscillator strengths:

 Excited State   1:      Singlet-A      1.8707 eV  662.78 nm  f=0.3517  <S**2>=0.000
     156 ->157         0.70779
 This state for optimization and/or second-order correction.
 Total Energy, E(TD-HF/TD-DFT) =  -1948.99938144
 Copying the excited state density for this state as the 1-particle RhoCI density.

 The electronic state is 1-A.
 Alpha  occ. eigenvalues --  -19.20259 -19.17993 -19.15662 -19.12928 -19.10999
 Alpha  occ. eigenvalues --  -19.09782 -14.38160 -14.36575 -14.36291 -14.29874
 Alpha  occ. eigenvalues --  -10.34443 -10.32235 -10.28365 -10.27098 -10.25340
 Alpha  occ. eigenvalues --  -10.24212 -10.23962 -10.23714 -10.23683 -10.23330
 Alpha  occ. eigenvalues --  -10.22879 -10.22585 -10.22349 -10.22174 -10.21777
 Alpha  occ. eigenvalues --  -10.21636 -10.21298 -10.21239 -10.20996 -10.20903
 Alpha  occ. eigenvalues --  -10.20764 -10.20665 -10.20600 -10.20551 -10.20320
 Alpha  occ. eigenvalues --  -10.20272 -10.19933 -10.19924 -10.19813 -10.19297
 Alpha  occ. eigenvalues --  -10.18458 -10.18255 -10.16807  -1.11103  -1.09565
 Alpha  occ. eigenvalues --   -1.01718  -1.01688  -1.01115  -0.99864  -0.97765
 Alpha  occ. eigenvalues --   -0.95925  -0.93829  -0.92491  -0.83975  -0.82167
 Alpha  occ. eigenvalues --   -0.81467  -0.80044  -0.79581  -0.79141  -0.77622
 Alpha  occ. eigenvalues --   -0.77263  -0.76262  -0.74598  -0.74081  -0.72902
 Alpha  occ. eigenvalues --   -0.71908  -0.69548  -0.68763  -0.68028  -0.67739
 Alpha  occ. eigenvalues --   -0.67569  -0.65465  -0.63565  -0.61956  -0.61836
 Alpha  occ. eigenvalues --   -0.58954  -0.58501  -0.58466  -0.57229  -0.57101
 Alpha  occ. eigenvalues --   -0.56285  -0.55375  -0.54909  -0.52926  -0.52238
 Alpha  occ. eigenvalues --   -0.51632  -0.51212  -0.50947  -0.50520  -0.50353
 Alpha  occ. eigenvalues --   -0.49813  -0.48429  -0.48113  -0.48043  -0.47740
 Alpha  occ. eigenvalues --   -0.47340  -0.46329  -0.45680  -0.45168  -0.44939
 Alpha  occ. eigenvalues --   -0.44747  -0.44536  -0.44200  -0.43862  -0.43553
 Alpha  occ. eigenvalues --   -0.43133  -0.42899  -0.42795  -0.42676  -0.42343
 Alpha  occ. eigenvalues --   -0.42252  -0.42047  -0.41465  -0.41295  -0.41170
 Alpha  occ. eigenvalues --   -0.40969  -0.40805  -0.40452  -0.40082  -0.39956
 Alpha  occ. eigenvalues --   -0.39491  -0.39222  -0.38895  -0.38482  -0.37946
 Alpha  occ. eigenvalues --   -0.37883  -0.37652  -0.36908  -0.36724  -0.36263
 Alpha  occ. eigenvalues --   -0.36181  -0.35889  -0.35507  -0.35158  -0.34692
 Alpha  occ. eigenvalues --   -0.34175  -0.34036  -0.33985  -0.33768  -0.33241
 Alpha  occ. eigenvalues --   -0.32385  -0.31877  -0.31081  -0.30935  -0.30390
 Alpha  occ. eigenvalues --   -0.28425  -0.27610  -0.26504  -0.26318  -0.25397
 Alpha  occ. eigenvalues --   -0.25031  -0.24730  -0.24598  -0.23887  -0.22112
 Alpha  occ. eigenvalues --   -0.18022
 Alpha virt. eigenvalues --   -0.10521  -0.06109  -0.04469  -0.03769  -0.00382
 Alpha virt. eigenvalues --    0.01051   0.01460   0.02287   0.02601   0.03016
 Alpha virt. eigenvalues --    0.03831   0.04033   0.04300   0.04893   0.05792

 Mulliken charges:
               1
     1  O   -0.228056
     2  O   -0.220169
     3  O   -0.255236
     4  O   -0.246652
     5  O   -0.205069
     6  O   -0.236856
     7  N   -0.082889
     8  N   -0.237259
     9  N   -0.223211
    10  N   -0.241457
    11  C   -0.121976
    12  C    0.067205
    13  C   -0.131505
    14  C    0.025864
    15  C   -0.013339
    16  C    0.189203
    17  C   -0.135773
    18  C   -0.110167
    19  C    0.038289
    20  C   -0.123223
    21  C    0.112854
    22  C    0.174630
    23  C    0.013225
    24  C    0.024243
    25  C   -0.129342
    26  C   -0.004248
    27  C    0.167770
    28  C    0.038934
    29  C   -0.004770
    30  C    0.051368
    31  C   -0.146831
    32  C    0.112231
    33  C   -0.122213
    34  C    0.013140
    35  C   -0.101240
    36  C   -0.178583
    37  C    0.186640
    38  C   -0.041464
    39  C    0.147906
    40  C    0.063349
    41  C    0.135666
    42  C   -0.004620
    43  C    0.040129
    44  H    0.135939
    45  H    0.029388
    46  H    0.023183
    47  H    0.007937
    48  H    0.058702
    49  H    0.025016
    50  H    0.048203
    51  H    0.054357
    52  H    0.183475
    53  H    0.047347
    54  H    0.064508
    55  H    0.031964
    56  H    0.183427
    57  H    0.001117
    58  H    0.069612
    59  H    0.028546
    60  H    0.039824
    61  H    0.022413
    62  H    0.055816
    63  H    0.043743
    64  H    0.024233
    65  H   -0.017823
    66  H    0.027411
    67  H   -0.030767
    68  H    0.012286
    69  H    0.106427
    70  H    0.002539
    71  H    0.051186
    72  H    0.017523
    73  H    0.014471
    74  H    0.048255
    75  H    0.024024
    76  H    0.040102
    77  H   -0.012392
    78  H    0.001812
    79  H    0.051588
    80  H    0.207603
    81  H    0.220512
 Sum of Mulliken charges =  -0.00000

 Dipole moment (field-independent basis, Debye):
    X=              2.9085    Y=              1.5543    Z=             -1.3918  Tot=              3.5794
 Quadrupole moment (field-independent basis, Debye-Ang):
   XX=           -257.0302   YY=           -238.6842   ZZ=           -259.1357
   XY=            -23.3392   XZ=             11.0111   YZ=             18.8828

 Normal termination of Gaussian 16 at Wed Jul  3 12:34:44 2019.
