 Gaussian 16, Revision A.03,
 Gaussian 16:  ES64L-G16RevA.03 25-Dec-2016

 --------------------------
 # td=(NStates=1) B3LYP/SVP
 --------------------------

 --
 TD
 --
 Symbolic Z-matrix:
 Charge =  0 Multiplicity = 1

                         Standard orientation:
 ---------------------------------------------------------------------
 Center     Atomic      Atomic             Coordinates (Angstroms)
 Number     Number       Type             X           Y           Z
 ---------------------------------------------------------------------
      1          8           0        4.477001   -5.064463   -1.696362
      2          8           0       -3.204326   -4.863887   -1.122359
      3          8           0       -7.168105   -1.325518   -1.839610
      4          8           0       -3.907944   -2.986083   -0.077226
      5          8           0       -7.712085   -0.402746    0.156216
      6          8           0        3.081020    2.429534    0.110977
      7          7           0        0.277864   -0.544964    0.487872
      8          7           0       -1.490690    1.866952    0.277815
      9          7           0        3.306071   -3.288889   -0.653728
     10          7           0        0.848170    2.896021    0.040293
     11          6           0       -0.884311   -2.408560    1.422898
     12          6           0       -1.003355   -1.049472    0.875511
     13          6           0        0.573995   -2.684686    1.262280
     14          6           0        1.201061   -1.523471    0.691299
     15          6           0       -3.749893    1.529360    0.280568
     16          6           0       -2.456222    0.919143    0.504519
     17          6           0       -2.224335   -0.386876    0.768903
     18          6           0       -3.554115    2.824735    0.017586
     19          6           0       -1.762567   -3.374163    1.944139
     20          6           0        5.519557   -2.756754   -1.414896
     21          6           0        3.555186   -2.059074   -0.102011
     22          6           0       -2.014108    3.040771   -0.030663
     23          6           0        4.954759   -1.737097   -0.390199
     24          6           0       -5.060557    0.847964    0.400596
     25          6           0        2.585897   -1.207144    0.415158
     26          6           0        1.342492   -3.873097    1.848847
     27          6           0        4.476220   -3.933699   -1.294486
     28          6           0       -2.136960   -4.404169    0.877021
     29          6           0       -5.467964   -0.081421   -0.899946
     30          6           0       -4.414896    3.952585   -0.325618
     31          6           0       -1.130326    4.166884   -0.258005
     32          6           0        6.890170   -3.388801   -1.162202
     33          6           0        5.809063   -0.745688    0.082359
     34          6           0        0.272123    4.112581   -0.140916
     35          6           0        1.266638    5.249872   -0.399068
     36          6           0        2.442800    4.679129   -0.185950
     37          6           0       -3.096386   -3.961887   -0.120850
     38          6           0        5.481354    0.274558    1.134944
     39          6           0       -6.857349   -0.718335   -0.751820
     40          6           0        3.849316    5.311837   -0.365346
     41          6           0        2.199727    3.268646    0.054092
     42          6           0        0.706740    6.581892   -0.917684
     43          6           0        4.488733    5.672408    0.959070
     44          1           0        0.371203    0.213498   -0.126411
     45          1           0       -3.116321   -1.063741    0.691734
     46          1           0       -2.748392   -3.015239    2.407634
     47          1           0       -1.431348   -3.978113    2.944926
     48          1           0        5.266683   -2.471927   -2.578701
     49          1           0       -5.092288    0.129810    1.128167
     50          1           0       -5.859737    1.642130    0.568341
     51          1           0        2.699920   -0.059349    0.567373
     52          1           0       -0.441640    1.681707    0.282909
     53          1           0        1.435376   -4.745272    1.248924
     54          1           0        2.401529   -3.474345    2.201048
     55          1           0        0.857726   -3.889478    2.883457
     56          1           0        2.331513   -3.769319   -0.420282
     57          1           0       -1.324252   -4.861811    0.566213
     58          1           0       -2.614794   -5.388054    1.461009
     59          1           0       -4.709662   -0.840764   -0.902431
     60          1           0       -5.492507    0.594251   -1.725789
     61          1           0       -4.188829    4.839088    0.121200
     62          1           0       -5.532848    3.697277   -0.106650
     63          1           0       -4.344602    4.298041   -1.423729
     64          1           0       -1.387657    5.122327   -0.788576
     65          1           0        7.672082   -2.555399   -1.037548
     66          1           0        7.077710   -4.244296   -1.821418
     67          1           0        7.018053   -3.738476   -0.054954
     68          1           0        6.665872   -0.667704   -0.415634
     69          1           0        4.876445    1.253786    0.689040
     70          1           0        6.385303    0.850288    1.517657
     71          1           0        4.744720   -0.130650    2.143589
     72          1           0        3.807266    6.141082   -1.017230
     73          1           0        4.710996    4.607844   -0.911968
     74          1           0        0.295269    6.722909   -2.033680
     75          1           0        1.689197    7.306195   -0.576210
     76          1           0       -0.055423    6.748842   -0.254774
     77          1           0        3.928755    6.461860    1.504264
     78          1           0        5.410647    6.020117    1.080472
     79          1           0        4.710571    4.936296    1.621675
     80          1           0       -3.829797   -4.352559   -1.783895
     81          1           0       -8.116037   -1.647202   -1.649385
 ---------------------------------------------------------------------

 SCF Done:  E(RB3LYP) =  -1949.06024255     A.U. after   16 cycles

 Excitation energies and oscillator strengths:

 Excited State   1:      Singlet-A      1.9312 eV  641.99 nm  f=0.3671  <S**2>=0.000
     156 ->157         0.70496
 This state for optimization and/or second-order correction.
 Total Energy, E(TD-HF/TD-DFT) =  -1948.98927061
 Copying the excited state density for this state as the 1-particle RhoCI density.

 The electronic state is 1-A.
 Alpha  occ. eigenvalues --  -19.20630 -19.20588 -19.14914 -19.12908 -19.11923
 Alpha  occ. eigenvalues --  -19.09301 -14.37776 -14.37008 -14.36468 -14.28476
 Alpha  occ. eigenvalues --  -10.34622 -10.32401 -10.30462 -10.25453 -10.24770
 Alpha  occ. eigenvalues --  -10.24373 -10.23524 -10.23245 -10.22685 -10.22504
 Alpha  occ. eigenvalues --  -10.22246 -10.22240 -10.22116 -10.21736 -10.20826
 Alpha  occ. eigenvalues --  -10.20805 -10.20618 -10.20525 -10.20314 -10.20293
 Alpha  occ. eigenvalues --  -10.20256 -10.20187 -10.20172 -10.20040 -10.20009
 Alpha  occ. eigenvalues --  -10.19726 -10.19711 -10.19629 -10.19504 -10.19011
 Alpha  occ. eigenvalues --  -10.18928 -10.18595 -10.15769  -1.12050  -1.10509
 Alpha  occ. eigenvalues --   -1.04637  -1.01094  -0.99967  -0.99027  -0.97292
 Alpha  occ. eigenvalues --   -0.97266  -0.94113  -0.91208  -0.83926  -0.82414
 Alpha  occ. eigenvalues --   -0.80875  -0.80496  -0.79792  -0.78448  -0.77396
 Alpha  occ. eigenvalues --   -0.76586  -0.75747  -0.75203  -0.73614  -0.72373
 Alpha  occ. eigenvalues --   -0.71738  -0.70064  -0.69122  -0.68795  -0.67844
 Alpha  occ. eigenvalues --   -0.67223  -0.64746  -0.63443  -0.62825  -0.61280
 Alpha  occ. eigenvalues --   -0.60611  -0.60255  -0.57748  -0.57550  -0.56745
 Alpha  occ. eigenvalues --   -0.56340  -0.55124  -0.54799  -0.53673  -0.53394
 Alpha  occ. eigenvalues --   -0.52445  -0.51791  -0.51089  -0.50874  -0.49676
 Alpha  occ. eigenvalues --   -0.49387  -0.49165  -0.48982  -0.48266  -0.47646
 Alpha  occ. eigenvalues --   -0.47202  -0.46521  -0.46269  -0.45655  -0.44998
 Alpha  occ. eigenvalues --   -0.44934  -0.44618  -0.44348  -0.43893  -0.43744
 Alpha  occ. eigenvalues --   -0.43276  -0.43093  -0.42960  -0.42507  -0.42255
 Alpha  occ. eigenvalues --   -0.42091  -0.41787  -0.41689  -0.41215  -0.41014
 Alpha  occ. eigenvalues --   -0.40817  -0.40425  -0.40245  -0.39544  -0.39401
 Alpha  occ. eigenvalues --   -0.39020  -0.38776  -0.38443  -0.38208  -0.37798
 Alpha  occ. eigenvalues --   -0.37463  -0.37405  -0.37018  -0.36388  -0.36106
 Alpha  occ. eigenvalues --   -0.35976  -0.35673  -0.35305  -0.34889  -0.34403
 Alpha  occ. eigenvalues --   -0.34126  -0.33435  -0.33337  -0.32921  -0.32564
 Alpha  occ. eigenvalues --   -0.32374  -0.32047  -0.31180  -0.30290  -0.29635
 Alpha  occ. eigenvalues --   -0.28161  -0.27241  -0.27059  -0.26075  -0.25189
 Alpha  occ. eigenvalues --   -0.25123  -0.24822  -0.23906  -0.23694  -0.20757
 Alpha  occ. eigenvalues --   -0.17309
 Alpha virt. eigenvalues --   -0.09478  -0.05615  -0.04655  -0.03714  -0.01062
 Alpha virt. eigenvalues --   -0.00640   0.01305   0.02532   0.02725   0.03190
 Alpha virt. eigenvalues --    0.03702   0.03982   0.04090   0.05289   0.06187

 Mulliken charges:
               1
     1  O   -0.176568
     2  O   -0.204216
     3  O   -0.130730
     4  O   -0.284149
     5  O   -0.313629
     6  O   -0.204670
     7  N   -0.070084
     8  N   -0.049806
     9  N   -0.213015
    10  N   -0.306431
    11  C   -0.025622
    12  C    0.075369
    13  C   -0.217484
    14  C    0.063745
    15  C   -0.074807
    16  C    0.090090
    17  C   -0.129380
    18  C   -0.102906
    19  C    0.007072
    20  C   -0.120866
    21  C    0.148954
    22  C    0.086223
    23  C   -0.055170
    24  C    0.107864
    25  C   -0.164173
    26  C    0.029734
    27  C    0.160851
    28  C    0.058656
    29  C   -0.003721
    30  C    0.102046
    31  C   -0.140177
    32  C    0.032898
    33  C   -0.004665
    34  C    0.016704
    35  C   -0.063679
    36  C   -0.150329
    37  C    0.182231
    38  C   -0.080735
    39  C    0.152792
    40  C    0.070642
    41  C    0.139333
    42  C    0.040373
    43  C    0.081456
    44  H    0.124122
    45  H    0.030422
    46  H    0.021942
    47  H    0.027428
    48  H    0.077718
    49  H   -0.012412
    50  H    0.026288
    51  H    0.064701
    52  H    0.147384
    53  H    0.039887
    54  H    0.045558
    55  H    0.036993
    56  H    0.161509
    57  H   -0.027040
    58  H    0.069101
    59  H    0.041068
    60  H    0.034129
    61  H   -0.009160
    62  H    0.023119
    63  H    0.025588
    64  H   -0.020867
    65  H    0.021463
    66  H    0.050111
    67  H    0.018125
    68  H   -0.053718
    69  H    0.105461
    70  H    0.013658
    71  H    0.056127
    72  H   -0.011722
    73  H    0.031007
    74  H    0.076389
    75  H    0.045401
    76  H    0.015831
    77  H   -0.007518
    78  H   -0.046074
    79  H   -0.019305
    80  H    0.217973
    81  H    0.199292
 Sum of Mulliken charges =  -0.00000

 Dipole moment (field-independent basis, Debye):
    X=             -1.8079    Y=             -0.2331    Z=             -1.6008  Tot=              2.4260
 Quadrupole moment (field-independent basis, Debye-Ang):
   XX=           -254.6302   YY=           -237.7964   ZZ=           -252.3965
   XY=             19.3986   XZ=             18.6044   YZ=            -12.6020

 Normal termination of Gaussian 16 at Thu Jun 27 01:29:03 2019.
