 Gaussian 16, Revision A.03,
 Gaussian 16:  ES64L-G16RevA.03 25-Dec-2016

 --------------------------
 # td=(NStates=1) B3LYP/SVP
 --------------------------

 --
 TD
 --
 Symbolic Z-matrix:
 Charge =  0 Multiplicity = 1

                         Standard orientation:
 ---------------------------------------------------------------------
 Center     Atomic      Atomic             Coordinates (Angstroms)
 Number     Number       Type             X           Y           Z
 ---------------------------------------------------------------------
      1          8           0        4.433194   -4.760223   -1.656784
      2          8           0       -2.792080   -4.659083   -1.402409
      3          8           0       -7.063378   -1.491945   -1.840289
      4          8           0       -3.672759   -3.243575    0.187700
      5          8           0       -7.745764   -0.520882    0.110898
      6          8           0        2.999528    2.570356    0.245433
      7          7           0        0.313328   -0.600464    0.622912
      8          7           0       -1.621428    1.811304    0.353968
      9          7           0        3.485310   -3.010969   -0.728940
     10          7           0        0.679325    2.985165    0.138479
     11          6           0       -0.575075   -2.583068    1.353337
     12          6           0       -0.894354   -1.200880    0.872276
     13          6           0        0.828179   -2.659977    1.215988
     14          6           0        1.375920   -1.397787    0.719017
     15          6           0       -3.802719    1.305286    0.315937
     16          6           0       -2.576828    0.724125    0.544486
     17          6           0       -2.135512   -0.580337    0.886164
     18          6           0       -3.595063    2.669139   -0.029025
     19          6           0       -1.497515   -3.639063    1.910075
     20          6           0        5.525163   -2.563479   -1.407551
     21          6           0        3.673666   -1.710014   -0.266587
     22          6           0       -2.143500    2.832238   -0.127658
     23          6           0        5.062694   -1.484131   -0.464646
     24          6           0       -5.190302    0.597785    0.407664
     25          6           0        2.702821   -0.983212    0.409429
     26          6           0        1.609656   -3.864285    1.675264
     27          6           0        4.493636   -3.589089   -1.286207
     28          6           0       -2.016964   -4.733858    0.861355
     29          6           0       -5.403351   -0.329413   -0.727859
     30          6           0       -4.600951    3.646987   -0.440027
     31          6           0       -1.441738    4.077027   -0.160446
     32          6           0        6.954198   -3.068471   -1.053709
     33          6           0        5.875968   -0.547497    0.043156
     34          6           0       -0.073533    4.102611   -0.150330
     35          6           0        0.829652    5.206863   -0.359680
     36          6           0        2.117837    4.834977   -0.360776
     37          6           0       -2.853874   -4.157653   -0.134630
     38          6           0        5.430304    0.550607    1.087487
     39          6           0       -6.795431   -0.747773   -0.729092
     40          6           0        3.520350    5.398595   -0.368758
     41          6           0        2.003246    3.326459    0.139162
     42          6           0        0.402876    6.504593   -0.842560
     43          6           0        4.204680    5.724010    0.959664
     44          1           0        0.323542    0.207546    0.011735
     45          1           0       -2.820311   -1.508245    1.186448
     46          1           0       -2.456484   -3.093034    2.277683
     47          1           0       -1.007246   -3.877923    2.812758
     48          1           0        5.639772   -2.220615   -2.404715
     49          1           0       -5.109164    0.371414    1.479993
     50          1           0       -6.159350    1.326172    0.574038
     51          1           0        3.148656    0.086284    0.533851
     52          1           0       -0.797515    1.906049    0.537722
     53          1           0        1.642584   -4.574602    0.959770
     54          1           0        2.639637   -3.517959    1.694022
     55          1           0        1.368274   -4.276030    2.686922
     56          1           0        2.613498   -3.415850   -0.715924
     57          1           0       -1.197007   -5.173627    0.463035
     58          1           0       -2.600826   -5.191196    1.586970
     59          1           0       -4.562299   -1.108308   -0.770462
     60          1           0       -5.258527    0.290654   -1.656962
     61          1           0       -4.596103    4.455549    0.423517
     62          1           0       -5.482066    3.149623   -0.584772
     63          1           0       -4.424135    4.176275   -1.339035
     64          1           0       -1.834024    5.102361   -0.640428
     65          1           0        7.719581   -2.310252   -1.255288
     66          1           0        7.125566   -4.081187   -1.687212
     67          1           0        7.029703   -3.374522    0.015524
     68          1           0        6.940164   -0.487344   -0.118696
     69          1           0        4.927504    1.434548    0.713609
     70          1           0        6.694294    0.733774    1.502998
     71          1           0        5.082705   -0.012167    1.938250
     72          1           0        3.377833    6.462252   -1.011022
     73          1           0        4.238693    4.945742   -1.049766
     74          1           0       -0.330145    6.539729   -1.784730
     75          1           0        1.315192    7.140905   -1.196651
     76          1           0       -0.074361    7.068572   -0.026594
     77          1           0        3.534630    6.246823    1.659864
     78          1           0        5.164248    6.321291    0.775592
     79          1           0        4.306736    4.818519    1.457633
     80          1           0       -3.372425   -4.314144   -1.994564
     81          1           0       -8.101310   -1.667405   -1.861946
 ---------------------------------------------------------------------

 SCF Done:  E(RB3LYP) =  -1949.03155153     A.U. after   23 cycles

 Excitation energies and oscillator strengths:

 Excited State   1:      Singlet-A      1.9191 eV  646.06 nm  f=0.3921  <S**2>=0.000
     156 ->157         0.70571
     156 <-157        -0.11936
 This state for optimization and/or second-order correction.
 Total Energy, E(TD-HF/TD-DFT) =  -1948.96102696
 Copying the excited state density for this state as the 1-particle RhoCI density.

 The electronic state is 1-A.
 Alpha  occ. eigenvalues --  -19.20766 -19.18840 -19.14703 -19.12755 -19.09976
 Alpha  occ. eigenvalues --  -19.08704 -14.38853 -14.37149 -14.35334 -14.26893
 Alpha  occ. eigenvalues --  -10.35238 -10.32805 -10.28190 -10.25369 -10.25073
 Alpha  occ. eigenvalues --  -10.24737 -10.24222 -10.24079 -10.23295 -10.23051
 Alpha  occ. eigenvalues --  -10.22919 -10.22314 -10.21760 -10.21675 -10.21211
 Alpha  occ. eigenvalues --  -10.21032 -10.21027 -10.20565 -10.20440 -10.20420
 Alpha  occ. eigenvalues --  -10.20163 -10.20086 -10.19967 -10.19931 -10.19576
 Alpha  occ. eigenvalues --  -10.19550 -10.19517 -10.19028 -10.18703 -10.18661
 Alpha  occ. eigenvalues --  -10.18179 -10.18009 -10.17192  -1.11767  -1.07589
 Alpha  occ. eigenvalues --   -1.04990  -1.01914  -1.01534  -1.00260  -0.97901
 Alpha  occ. eigenvalues --   -0.97068  -0.96765  -0.90081  -0.84108  -0.83781
 Alpha  occ. eigenvalues --   -0.83222  -0.81821  -0.80300  -0.79587  -0.79250
 Alpha  occ. eigenvalues --   -0.78356  -0.77030  -0.75078  -0.74421  -0.73467
 Alpha  occ. eigenvalues --   -0.72699  -0.70989  -0.70715  -0.69490  -0.68750
 Alpha  occ. eigenvalues --   -0.67172  -0.66273  -0.65575  -0.64842  -0.62495
 Alpha  occ. eigenvalues --   -0.61299  -0.60028  -0.59655  -0.58983  -0.57703
 Alpha  occ. eigenvalues --   -0.57111  -0.56600  -0.55565  -0.55338  -0.53847
 Alpha  occ. eigenvalues --   -0.53669  -0.52063  -0.51604  -0.51265  -0.50456
 Alpha  occ. eigenvalues --   -0.50197  -0.49845  -0.49471  -0.49040  -0.48002
 Alpha  occ. eigenvalues --   -0.47723  -0.47455  -0.46875  -0.45911  -0.45778
 Alpha  occ. eigenvalues --   -0.45551  -0.45233  -0.45104  -0.44285  -0.44044
 Alpha  occ. eigenvalues --   -0.43457  -0.43236  -0.42750  -0.42423  -0.42290
 Alpha  occ. eigenvalues --   -0.42177  -0.41975  -0.41842  -0.41632  -0.40977
 Alpha  occ. eigenvalues --   -0.40715  -0.40457  -0.40171  -0.39896  -0.39671
 Alpha  occ. eigenvalues --   -0.39221  -0.38802  -0.38538  -0.38284  -0.37809
 Alpha  occ. eigenvalues --   -0.37642  -0.37240  -0.37012  -0.36960  -0.36788
 Alpha  occ. eigenvalues --   -0.36539  -0.35822  -0.35596  -0.35419  -0.35139
 Alpha  occ. eigenvalues --   -0.34318  -0.34016  -0.33215  -0.32764  -0.31980
 Alpha  occ. eigenvalues --   -0.31707  -0.31097  -0.30640  -0.30145  -0.29992
 Alpha  occ. eigenvalues --   -0.27887  -0.27120  -0.26795  -0.26591  -0.25587
 Alpha  occ. eigenvalues --   -0.25503  -0.24307  -0.23203  -0.21760  -0.21401
 Alpha  occ. eigenvalues --   -0.18175
 Alpha virt. eigenvalues --   -0.10645  -0.05987  -0.04603  -0.04403  -0.02174
 Alpha virt. eigenvalues --    0.00044   0.01716   0.02654   0.03202   0.03766
 Alpha virt. eigenvalues --    0.04389   0.04590   0.04783   0.05092   0.05534

 Mulliken charges:
               1
     1  O   -0.238461
     2  O   -0.133700
     3  O   -0.236854
     4  O   -0.284937
     5  O   -0.296426
     6  O   -0.271773
     7  N    0.011726
     8  N    0.154468
     9  N    0.017293
    10  N   -0.310816
    11  C   -0.103987
    12  C   -0.079421
    13  C   -0.214113
    14  C    0.094119
    15  C   -0.087961
    16  C    0.109925
    17  C   -0.050532
    18  C   -0.180192
    19  C    0.023910
    20  C   -0.045197
    21  C    0.025325
    22  C    0.002727
    23  C    0.040680
    24  C    0.013539
    25  C   -0.122868
    26  C    0.146277
    27  C    0.067991
    28  C    0.228615
    29  C    0.044178
    30  C    0.147165
    31  C   -0.108389
    32  C   -0.009948
    33  C   -0.173940
    34  C    0.065294
    35  C   -0.054426
    36  C   -0.150281
    37  C    0.118883
    38  C   -0.018379
    39  C    0.180666
    40  C    0.026535
    41  C    0.138241
    42  C    0.013500
    43  C    0.045973
    44  H    0.143669
    45  H    0.063881
    46  H    0.031178
    47  H    0.009964
    48  H    0.039267
    49  H    0.028987
    50  H    0.043689
    51  H    0.063483
    52  H   -0.033815
    53  H   -0.005245
    54  H    0.007786
    55  H    0.034270
    56  H    0.089901
    57  H   -0.001242
    58  H    0.042359
    59  H    0.083051
    60  H    0.046244
    61  H    0.040297
    62  H   -0.019215
    63  H    0.005197
    64  H    0.010437
    65  H    0.028304
    66  H    0.050564
    67  H    0.015524
    68  H    0.002256
    69  H    0.112441
    70  H    0.000602
    71  H    0.037651
    72  H   -0.017998
    73  H    0.011353
    74  H    0.036986
    75  H    0.019828
    76  H    0.016841
    77  H    0.000518
    78  H    0.029414
    79  H    0.006654
    80  H    0.159525
    81  H    0.220968
 Sum of Mulliken charges =  -0.00000

 Dipole moment (field-independent basis, Debye):
    X=             -2.4748    Y=             -2.4878    Z=             -1.0929  Tot=              3.6753
 Quadrupole moment (field-independent basis, Debye-Ang):
   XX=           -258.1024   YY=           -252.9978   ZZ=           -249.0172
   XY=             15.0983   XZ=             18.4163   YZ=            -13.6634

 Normal termination of Gaussian 16 at Sat Jun 29 07:20:53 2019.
