 Gaussian 16, Revision A.03,
 Gaussian 16:  ES64L-G16RevA.03 25-Dec-2016

 --------------------------
 # td=(NStates=1) B3LYP/SVP
 --------------------------

 --
 TD
 --
 Symbolic Z-matrix:
 Charge =  0 Multiplicity = 1

                         Standard orientation:
 ---------------------------------------------------------------------
 Center     Atomic      Atomic             Coordinates (Angstroms)
 Number     Number       Type             X           Y           Z
 ---------------------------------------------------------------------
      1          8           0        4.529065   -4.692522   -1.816983
      2          8           0       -2.831779   -4.928380   -1.381491
      3          8           0       -7.098029   -1.445768   -1.939685
      4          8           0       -3.638489   -3.187591   -0.220625
      5          8           0       -7.589987   -0.524455    0.088484
      6          8           0        2.928886    2.408387    0.176752
      7          7           0        0.305011   -0.672168    0.594421
      8          7           0       -1.564104    1.787150    0.343801
      9          7           0        3.468500   -3.101600   -0.463194
     10          7           0        0.707113    2.981224    0.208171
     11          6           0       -0.657799   -2.528571    1.424716
     12          6           0       -0.915564   -1.231893    0.937290
     13          6           0        0.734333   -2.740197    1.287794
     14          6           0        1.360466   -1.509802    0.762685
     15          6           0       -3.744088    1.354198    0.360634
     16          6           0       -2.433455    0.710927    0.597770
     17          6           0       -2.158191   -0.581833    0.865805
     18          6           0       -3.551519    2.696974   -0.033262
     19          6           0       -1.589849   -3.611729    1.902230
     20          6           0        5.617279   -2.538996   -1.364738
     21          6           0        3.587330   -1.745889   -0.104102
     22          6           0       -2.144682    2.884946   -0.018477
     23          6           0        5.098336   -1.505798   -0.325760
     24          6           0       -5.054078    0.508464    0.461297
     25          6           0        2.726057   -1.023066    0.563750
     26          6           0        1.475572   -3.866529    1.913021
     27          6           0        4.453469   -3.630449   -1.259603
     28          6           0       -2.010438   -4.610792    0.841327
     29          6           0       -5.432103   -0.289181   -0.824851
     30          6           0       -4.578534    3.794577   -0.163049
     31          6           0       -1.414607    4.090417   -0.212316
     32          6           0        7.069280   -2.924859   -1.203032
     33          6           0        5.979525   -0.493960    0.159957
     34          6           0        0.037347    4.109481   -0.218546
     35          6           0        0.884589    5.222887   -0.486318
     36          6           0        2.150472    4.725295   -0.332406
     37          6           0       -2.960812   -4.087539   -0.280383
     38          6           0        5.511093    0.523490    1.074077
     39          6           0       -6.846321   -0.703369   -0.761197
     40          6           0        3.388282    5.440947   -0.542056
     41          6           0        2.006441    3.212068    0.014137
     42          6           0        0.374594    6.619001   -0.714727
     43          6           0        4.139383    5.771825    0.736077
     44          1           0        0.614087    0.224624    0.172263
     45          1           0       -3.013349   -1.136160    1.052796
     46          1           0       -2.467974   -3.220272    1.973347
     47          1           0       -1.359522   -4.204309    2.732444
     48          1           0        5.484906   -2.282950   -2.509675
     49          1           0       -5.059306    0.067211    1.438284
     50          1           0       -6.101813    1.306947    0.569697
     51          1           0        2.983426    0.031687    0.726115
     52          1           0       -0.578404    1.949135    0.492472
     53          1           0        1.625813   -4.875479    1.270206
     54          1           0        2.370637   -3.470939    2.090468
     55          1           0        1.107434   -4.245001    3.102121
     56          1           0        2.485308   -3.374852   -0.635969
     57          1           0       -1.214914   -4.961767    0.444349
     58          1           0       -2.640555   -5.346015    1.340426
     59          1           0       -4.769123   -1.163288   -0.933431
     60          1           0       -5.245354    0.417096   -1.738630
     61          1           0       -4.669242    4.501626    0.641474
     62          1           0       -5.674500    3.529211   -0.222815
     63          1           0       -4.276398    4.685834   -1.049875
     64          1           0       -1.982357    4.966549   -0.396125
     65          1           0        7.693197   -2.066125   -1.381428
     66          1           0        7.362478   -3.609180   -2.012642
     67          1           0        7.183398   -3.555766   -0.281431
     68          1           0        6.989759   -0.650044   -0.138851
     69          1           0        5.096770    1.395749    0.490533
     70          1           0        6.456912    0.937620    1.476563
     71          1           0        4.639813    0.170365    1.754300
     72          1           0        3.432558    6.426136   -1.038113
     73          1           0        4.140821    4.798692   -1.040629
     74          1           0       -0.632747    6.717308   -1.357842
     75          1           0        1.229493    7.312294   -1.174504
     76          1           0       -0.135884    6.936223    0.290500
     77          1           0        3.552745    6.403264    1.202232
     78          1           0        5.073378    6.331580    0.751896
     79          1           0        4.450407    4.820133    1.413111
     80          1           0       -3.495816   -4.478936   -2.047166
     81          1           0       -8.079893   -1.534089   -1.846942
 ---------------------------------------------------------------------

 SCF Done:  E(RB3LYP) =  -1949.08154791     A.U. after   16 cycles

 Excitation energies and oscillator strengths:

 Excited State   1:      Singlet-A      2.0451 eV  606.25 nm  f=0.3667  <S**2>=0.000
     156 ->157         0.70428
     156 <-157        -0.10250
 This state for optimization and/or second-order correction.
 Total Energy, E(TD-HF/TD-DFT) =  -1949.00639147
 Copying the excited state density for this state as the 1-particle RhoCI density.

 The electronic state is 1-A.
 Alpha  occ. eigenvalues --  -19.19026 -19.17449 -19.15993 -19.14778 -19.11043
 Alpha  occ. eigenvalues --  -19.09853 -14.38852 -14.37268 -14.35373 -14.28451
 Alpha  occ. eigenvalues --  -10.33106 -10.32046 -10.29068 -10.26297 -10.24576
 Alpha  occ. eigenvalues --  -10.24470 -10.23927 -10.23732 -10.23726 -10.23143
 Alpha  occ. eigenvalues --  -10.22184 -10.22040 -10.21796 -10.21641 -10.21528
 Alpha  occ. eigenvalues --  -10.21302 -10.20757 -10.20582 -10.20463 -10.20383
 Alpha  occ. eigenvalues --  -10.20062 -10.20049 -10.19868 -10.19679 -10.19453
 Alpha  occ. eigenvalues --  -10.19332 -10.19251 -10.19134 -10.18913 -10.18539
 Alpha  occ. eigenvalues --  -10.18404 -10.18128 -10.16941  -1.13441  -1.11485
 Alpha  occ. eigenvalues --   -1.03710  -1.03029  -1.02150  -1.00630  -0.99746
 Alpha  occ. eigenvalues --   -0.98946  -0.95523  -0.92041  -0.83973  -0.82663
 Alpha  occ. eigenvalues --   -0.81156  -0.80267  -0.80221  -0.79408  -0.78675
 Alpha  occ. eigenvalues --   -0.77713  -0.76766  -0.75676  -0.74961  -0.72799
 Alpha  occ. eigenvalues --   -0.70687  -0.69141  -0.68716  -0.68370  -0.67584
 Alpha  occ. eigenvalues --   -0.67344  -0.65823  -0.63780  -0.62621  -0.61263
 Alpha  occ. eigenvalues --   -0.60057  -0.59827  -0.58019  -0.57527  -0.57012
 Alpha  occ. eigenvalues --   -0.56323  -0.55898  -0.54941  -0.53645  -0.52814
 Alpha  occ. eigenvalues --   -0.52734  -0.52548  -0.51869  -0.51363  -0.50669
 Alpha  occ. eigenvalues --   -0.50504  -0.49583  -0.49287  -0.48936  -0.48038
 Alpha  occ. eigenvalues --   -0.47141  -0.47065  -0.46555  -0.46245  -0.45750
 Alpha  occ. eigenvalues --   -0.45049  -0.44929  -0.44771  -0.44371  -0.44232
 Alpha  occ. eigenvalues --   -0.43891  -0.43638  -0.43053  -0.43020  -0.42613
 Alpha  occ. eigenvalues --   -0.42430  -0.42172  -0.41589  -0.41468  -0.41144
 Alpha  occ. eigenvalues --   -0.40579  -0.40487  -0.39895  -0.39799  -0.39706
 Alpha  occ. eigenvalues --   -0.39547  -0.38875  -0.38749  -0.38653  -0.38292
 Alpha  occ. eigenvalues --   -0.38037  -0.38010  -0.37857  -0.37406  -0.36997
 Alpha  occ. eigenvalues --   -0.36684  -0.35618  -0.35509  -0.35298  -0.35058
 Alpha  occ. eigenvalues --   -0.34682  -0.33985  -0.33854  -0.33635  -0.32985
 Alpha  occ. eigenvalues --   -0.32897  -0.32563  -0.32346  -0.30757  -0.30511
 Alpha  occ. eigenvalues --   -0.30089  -0.27819  -0.26904  -0.25914  -0.25481
 Alpha  occ. eigenvalues --   -0.25181  -0.24169  -0.23536  -0.22779  -0.21953
 Alpha  occ. eigenvalues --   -0.18841
 Alpha virt. eigenvalues --   -0.10651  -0.06051  -0.03909  -0.00200   0.00165
 Alpha virt. eigenvalues --    0.00683   0.01766   0.02529   0.02707   0.03154
 Alpha virt. eigenvalues --    0.04029   0.04365   0.04661   0.05480   0.06157

 Mulliken charges:
               1
     1  O   -0.190668
     2  O   -0.247283
     3  O   -0.246760
     4  O   -0.120720
     5  O   -0.139177
     6  O   -0.230005
     7  N   -0.070145
     8  N   -0.007424
     9  N   -0.116510
    10  N   -0.292634
    11  C   -0.112778
    12  C    0.109625
    13  C   -0.158263
    14  C    0.009181
    15  C   -0.092030
    16  C    0.092100
    17  C   -0.012845
    18  C   -0.069487
    19  C    0.284580
    20  C   -0.146738
    21  C    0.121437
    22  C    0.022127
    23  C   -0.063870
    24  C   -0.010813
    25  C   -0.111193
    26  C    0.028942
    27  C    0.112880
    28  C    0.079628
    29  C    0.000272
    30  C    0.009445
    31  C   -0.083600
    32  C    0.078307
    33  C   -0.097689
    34  C    0.097452
    35  C   -0.063754
    36  C   -0.170236
    37  C    0.081049
    38  C    0.059403
    39  C    0.132167
    40  C    0.081070
    41  C    0.156879
    42  C    0.016749
    43  C   -0.014896
    44  H    0.155549
    45  H   -0.039866
    46  H   -0.081195
    47  H   -0.013921
    48  H    0.048824
    49  H    0.028221
    50  H    0.032261
    51  H    0.036128
    52  H    0.105558
    53  H    0.044847
    54  H   -0.005270
    55  H    0.037744
    56  H    0.143418
    57  H   -0.036373
    58  H    0.032889
    59  H    0.055195
    60  H    0.061999
    61  H    0.019800
    62  H    0.026187
    63  H    0.028866
    64  H   -0.058103
    65  H    0.022162
    66  H    0.006051
    67  H    0.026504
    68  H   -0.021152
    69  H    0.070174
    70  H    0.003327
    71  H    0.059429
    72  H   -0.000279
    73  H    0.009519
    74  H    0.031925
    75  H    0.053216
    76  H    0.041616
    77  H   -0.035262
    78  H   -0.001805
    79  H    0.036252
    80  H    0.201177
    81  H    0.170613
 Sum of Mulliken charges =  -0.00000

 Dipole moment (field-independent basis, Debye):
    X=             -3.7274    Y=              1.5620    Z=             -0.0577  Tot=              4.0418
 Quadrupole moment (field-independent basis, Debye-Ang):
   XX=           -244.8929   YY=           -246.6440   ZZ=           -256.2197
   XY=             16.1692   XZ=              9.4438   YZ=            -13.1138

 Normal termination of Gaussian 16 at Sat Jun 29 09:07:37 2019.
