 Gaussian 16, Revision A.03,
 Gaussian 16:  ES64L-G16RevA.03 25-Dec-2016

 --------------------------
 # td=(NStates=1) B3LYP/SVP
 --------------------------

 --
 TD
 --
 Symbolic Z-matrix:
 Charge =  0 Multiplicity = 1

                         Standard orientation:
 ---------------------------------------------------------------------
 Center     Atomic      Atomic             Coordinates (Angstroms)
 Number     Number       Type             X           Y           Z
 ---------------------------------------------------------------------
      1          8           0       -4.493025   -4.603815    2.081040
      2          8           0        2.686272   -5.065064    1.176890
      3          8           0        7.032540   -1.571748    1.998040
      4          8           0        3.528124   -3.250001    0.154313
      5          8           0        7.626221   -0.912174   -0.019769
      6          8           0       -2.954397    2.672412   -0.176462
      7          7           0       -0.236167   -0.589493   -0.549833
      8          7           0        1.621537    1.782645   -0.457389
      9          7           0       -3.588222   -3.113884    0.718115
     10          7           0       -0.684164    2.990100   -0.025086
     11          6           0        0.528332   -2.556870   -1.413425
     12          6           0        0.910219   -1.199331   -1.028952
     13          6           0       -0.864621   -2.651338   -1.382945
     14          6           0       -1.336801   -1.406922   -0.736929
     15          6           0        3.910249    1.288689   -0.457426
     16          6           0        2.531252    0.775334   -0.621110
     17          6           0        2.111469   -0.582222   -0.883307
     18          6           0        3.768627    2.640704   -0.016464
     19          6           0        1.480190   -3.626866   -1.995050
     20          6           0       -5.765019   -2.439444    1.416040
     21          6           0       -3.666674   -1.785041    0.169680
     22          6           0        2.316884    2.894198   -0.068481
     23          6           0       -5.035969   -1.461014    0.379904
     24          6           0        5.099565    0.561396   -0.437271
     25          6           0       -2.680616   -1.061051   -0.492038
     26          6           0       -1.738036   -3.750585   -1.914805
     27          6           0       -4.613338   -3.542236    1.355959
     28          6           0        1.904616   -4.744307   -0.971218
     29          6           0        5.420951   -0.246706    0.860431
     30          6           0        4.692680    3.633800    0.430652
     31          6           0        1.481952    4.076432    0.123803
     32          6           0       -7.128931   -2.999449    1.186870
     33          6           0       -5.841226   -0.492413   -0.172882
     34          6           0        0.112248    4.107440    0.132819
     35          6           0       -0.776162    5.236962    0.371393
     36          6           0       -2.036676    4.824497    0.361568
     37          6           0        2.746206   -4.134410    0.077535
     38          6           0       -5.367628    0.470043   -1.257453
     39          6           0        6.773538   -0.838434    0.904700
     40          6           0       -3.340143    5.631757    0.506805
     41          6           0       -2.021778    3.432105    0.003927
     42          6           0       -0.255161    6.594984    0.785878
     43          6           0       -4.051872    6.048882   -0.816784
     44          1           0       -0.296301    0.347306   -0.028341
     45          1           0        3.031225   -1.208842   -0.746970
     46          1           0        2.424403   -3.155050   -2.320567
     47          1           0        0.856405   -4.015549   -2.833145
     48          1           0       -5.860673   -1.858468    2.352963
     49          1           0        5.142518   -0.114193   -1.337678
     50          1           0        5.939014    1.289911   -0.638825
     51          1           0       -2.971295   -0.123460   -0.678314
     52          1           0        0.702770    1.883956   -0.660846
     53          1           0       -1.569201   -4.630652   -1.418512
     54          1           0       -2.770394   -3.473428   -2.092128
     55          1           0       -1.394682   -4.094078   -2.808456
     56          1           0       -2.777922   -3.587492    0.729936
     57          1           0        1.089863   -5.490836   -0.605759
     58          1           0        2.653278   -5.369416   -1.656184
     59          1           0        4.618000   -1.110875    1.128416
     60          1           0        5.448176    0.438093    1.653464
     61          1           0        4.926185    4.474094   -0.180420
     62          1           0        5.794261    2.965386    0.558373
     63          1           0        4.329447    3.950623    1.568223
     64          1           0        2.145835    4.903048    0.124985
     65          1           0       -8.016951   -2.566968    1.556456
     66          1           0       -7.223547   -3.827303    1.857973
     67          1           0       -7.283878   -3.432842    0.080778
     68          1           0       -6.975155   -0.591751   -0.056793
     69          1           0       -4.670368    1.226739   -0.849371
     70          1           0       -6.148578    1.050162   -1.811644
     71          1           0       -4.864470   -0.088567   -2.038026
     72          1           0       -3.183890    6.498026    1.155199
     73          1           0       -4.264480    5.038530    1.164485
     74          1           0        0.331259    6.546255    1.685966
     75          1           0       -1.016087    7.295283    1.121834
     76          1           0        0.281766    7.072023   -0.165648
     77          1           0       -3.287239    6.745266   -1.432328
     78          1           0       -4.799925    6.799319   -0.672152
     79          1           0       -4.415856    5.097714   -1.398793
     80          1           0        3.336462   -4.821480    1.884551
     81          1           0        7.933288   -1.894456    1.885711
 ---------------------------------------------------------------------

 SCF Done:  E(RB3LYP) =  -1949.11649550     A.U. after   23 cycles

 Excitation energies and oscillator strengths:

 Excited State   1:      Singlet-A      1.8107 eV  684.73 nm  f=0.3750  <S**2>=0.000
     156 ->157         0.70983
     156 <-157        -0.13639
 This state for optimization and/or second-order correction.
 Total Energy, E(TD-HF/TD-DFT) =  -1949.04995372
 Copying the excited state density for this state as the 1-particle RhoCI density.

 The electronic state is 1-A.
 Alpha  occ. eigenvalues --  -19.18385 -19.17042 -19.16178 -19.12149 -19.09175
 Alpha  occ. eigenvalues --  -19.08982 -14.39222 -14.37723 -14.36129 -14.27015
 Alpha  occ. eigenvalues --  -10.34352 -10.32451 -10.28626 -10.25834 -10.24915
 Alpha  occ. eigenvalues --  -10.24573 -10.24424 -10.24296 -10.24061 -10.23932
 Alpha  occ. eigenvalues --  -10.22615 -10.22567 -10.22256 -10.21870 -10.21583
 Alpha  occ. eigenvalues --  -10.21520 -10.21467 -10.21334 -10.21092 -10.21065
 Alpha  occ. eigenvalues --  -10.21005 -10.20929 -10.20438 -10.20097 -10.19490
 Alpha  occ. eigenvalues --  -10.19282 -10.19256 -10.18990 -10.18913 -10.18889
 Alpha  occ. eigenvalues --  -10.18256 -10.17846 -10.17531  -1.10489  -1.10058
 Alpha  occ. eigenvalues --   -1.02735  -1.00561  -1.00338  -0.99070  -0.98058
 Alpha  occ. eigenvalues --   -0.98029  -0.93559  -0.90333  -0.84032  -0.82887
 Alpha  occ. eigenvalues --   -0.82434  -0.81538  -0.79677  -0.78909  -0.78672
 Alpha  occ. eigenvalues --   -0.77822  -0.76453  -0.74896  -0.74041  -0.73222
 Alpha  occ. eigenvalues --   -0.72755  -0.71379  -0.69836  -0.69129  -0.68736
 Alpha  occ. eigenvalues --   -0.67903  -0.66181  -0.64639  -0.62863  -0.61273
 Alpha  occ. eigenvalues --   -0.60520  -0.59781  -0.59503  -0.58919  -0.57952
 Alpha  occ. eigenvalues --   -0.56493  -0.56410  -0.54666  -0.54518  -0.53608
 Alpha  occ. eigenvalues --   -0.52746  -0.52133  -0.50690  -0.50654  -0.50006
 Alpha  occ. eigenvalues --   -0.49621  -0.48982  -0.48685  -0.48426  -0.48161
 Alpha  occ. eigenvalues --   -0.47724  -0.47079  -0.46298  -0.46053  -0.46002
 Alpha  occ. eigenvalues --   -0.45321  -0.44913  -0.44416  -0.44162  -0.43892
 Alpha  occ. eigenvalues --   -0.43603  -0.43402  -0.42944  -0.42638  -0.42554
 Alpha  occ. eigenvalues --   -0.42221  -0.41666  -0.41568  -0.41487  -0.41174
 Alpha  occ. eigenvalues --   -0.41003  -0.40795  -0.40522  -0.40030  -0.39807
 Alpha  occ. eigenvalues --   -0.39507  -0.39381  -0.39195  -0.38981  -0.38451
 Alpha  occ. eigenvalues --   -0.38291  -0.38247  -0.37938  -0.36956  -0.36357
 Alpha  occ. eigenvalues --   -0.36036  -0.35884  -0.35410  -0.35212  -0.34570
 Alpha  occ. eigenvalues --   -0.34496  -0.33870  -0.33738  -0.33156  -0.32597
 Alpha  occ. eigenvalues --   -0.32064  -0.31429  -0.30703  -0.30692  -0.29373
 Alpha  occ. eigenvalues --   -0.27609  -0.26323  -0.26213  -0.25912  -0.25425
 Alpha  occ. eigenvalues --   -0.25339  -0.23996  -0.23343  -0.23124  -0.21310
 Alpha  occ. eigenvalues --   -0.17822
 Alpha virt. eigenvalues --   -0.10818  -0.06250  -0.04796  -0.03124  -0.01358
 Alpha virt. eigenvalues --   -0.01057   0.00922   0.02311   0.02529   0.03733
 Alpha virt. eigenvalues --    0.04075   0.04891   0.05303   0.06034   0.06460

 Mulliken charges:
               1
     1  O   -0.311942
     2  O   -0.279266
     3  O   -0.167882
     4  O   -0.168742
     5  O   -0.284903
     6  O   -0.202035
     7  N   -0.106412
     8  N    0.001418
     9  N    0.037760
    10  N   -0.350992
    11  C   -0.099736
    12  C    0.116177
    13  C   -0.182767
    14  C    0.095743
    15  C   -0.041389
    16  C    0.003188
    17  C   -0.074233
    18  C   -0.076180
    19  C    0.085209
    20  C   -0.069038
    21  C    0.099886
    22  C    0.000021
    23  C   -0.046400
    24  C    0.040627
    25  C   -0.046675
    26  C    0.223861
    27  C    0.103802
    28  C   -0.039307
    29  C    0.030613
    30  C   -0.022682
    31  C   -0.110029
    32  C    0.056297
    33  C   -0.127442
    34  C    0.155445
    35  C   -0.086985
    36  C   -0.123970
    37  C    0.170964
    38  C    0.010030
    39  C    0.126284
    40  C    0.010079
    41  C    0.124560
    42  C    0.091623
    43  C   -0.022704
    44  H    0.172406
    45  H    0.022723
    46  H    0.021537
    47  H    0.018415
    48  H    0.054107
    49  H    0.027343
    50  H    0.024299
    51  H   -0.056226
    52  H    0.075254
    53  H   -0.016650
    54  H    0.033750
    55  H   -0.036534
    56  H    0.084381
    57  H    0.075785
    58  H    0.081258
    59  H    0.095149
    60  H    0.010951
    61  H    0.045881
    62  H    0.027878
    63  H    0.062151
    64  H   -0.050325
    65  H   -0.004038
    66  H    0.011915
    67  H    0.028296
    68  H    0.026729
    69  H    0.090513
    70  H    0.008171
    71  H    0.019415
    72  H   -0.007652
    73  H    0.023119
    74  H    0.020118
    75  H   -0.004889
    76  H    0.038697
    77  H    0.006985
    78  H    0.005211
    79  H    0.058351
    80  H    0.186202
    81  H    0.177451
 Sum of Mulliken charges =  -0.00000

 Dipole moment (field-independent basis, Debye):
    X=              2.5916    Y=             -0.1676    Z=             -1.0175  Tot=              2.7892
 Quadrupole moment (field-independent basis, Debye-Ang):
   XX=           -251.8966   YY=           -244.6029   ZZ=           -254.3068
   XY=             -8.9767   XZ=             18.7961   YZ=             19.7221

 Normal termination of Gaussian 16 at Mon Jul  1 08:05:24 2019.
