 Gaussian 16, Revision A.03,
 Gaussian 16:  ES64L-G16RevA.03 25-Dec-2016

 --------------------------
 # td=(NStates=1) B3LYP/SVP
 --------------------------

 --
 TD
 --
 Symbolic Z-matrix:
 Charge =  0 Multiplicity = 1

                         Standard orientation:
 ---------------------------------------------------------------------
 Center     Atomic      Atomic             Coordinates (Angstroms)
 Number     Number       Type             X           Y           Z
 ---------------------------------------------------------------------
      1          8           0       -4.341150   -4.730732    1.912139
      2          8           0        2.947598   -4.686344    1.366740
      3          8           0        7.041301   -1.572015    1.829235
      4          8           0        3.722728   -3.055625   -0.005316
      5          8           0        7.618289   -0.573055   -0.132779
      6          8           0       -3.097420    2.485908   -0.406704
      7          7           0       -0.271197   -0.520098   -0.800610
      8          7           0        1.576761    1.791103   -0.427699
      9          7           0       -3.375066   -3.064586    0.572048
     10          7           0       -0.748256    2.796222   -0.233807
     11          6           0        0.619395   -2.443614   -1.399460
     12          6           0        0.988839   -1.118864   -0.916845
     13          6           0       -0.682529   -2.504640   -1.323755
     14          6           0       -1.316206   -1.330794   -0.828064
     15          6           0        3.815605    1.410330   -0.407651
     16          6           0        2.614016    0.822657   -0.683238
     17          6           0        2.180855   -0.454185   -0.958028
     18          6           0        3.556618    2.729818    0.150352
     19          6           0        1.479165   -3.502800   -1.886800
     20          6           0       -5.521926   -2.617972    1.391376
     21          6           0       -3.601202   -1.731963    0.165370
     22          6           0        2.120848    2.893062   -0.066001
     23          6           0       -5.034268   -1.523429    0.419434
     24          6           0        5.106009    0.734519   -0.451093
     25          6           0       -2.623887   -0.875124   -0.518878
     26          6           0       -1.538206   -3.739198   -1.706626
     27          6           0       -4.325550   -3.579204    1.385146
     28          6           0        1.876102   -4.590920   -0.820562
     29          6           0        5.353380   -0.192642    0.710539
     30          6           0        4.600634    3.734376    0.430352
     31          6           0        1.308365    4.016231    0.337273
     32          6           0       -6.905535   -3.200454    1.285783
     33          6           0       -5.890700   -0.635084   -0.196620
     34          6           0       -0.075347    3.918648    0.159838
     35          6           0       -0.955661    5.080904    0.630885
     36          6           0       -2.267401    4.620792    0.396157
     37          6           0        2.985580   -3.984912    0.140857
     38          6           0       -5.567700    0.387641   -1.232380
     39          6           0        6.858159   -0.772972    0.812179
     40          6           0       -3.659444    5.186785    0.487233
     41          6           0       -2.076534    3.157700   -0.097853
     42          6           0       -0.548463    6.387900    1.178105
     43          6           0       -4.018526    5.899515   -0.935375
     44          1           0       -0.347274    0.434463   -0.341729
     45          1           0        2.991512   -1.246360   -1.403611
     46          1           0        2.211598   -2.977185   -2.376991
     47          1           0        1.013475   -4.048693   -2.737269
     48          1           0       -5.498458   -2.204727    2.486285
     49          1           0        5.026223    0.156804   -1.305770
     50          1           0        6.025014    1.541797   -0.481499
     51          1           0       -2.879990    0.220642   -0.601379
     52          1           0        0.400363    1.645043   -0.644105
     53          1           0       -1.421048   -4.633498   -1.145693
     54          1           0       -2.385122   -3.383521   -1.955068
     55          1           0       -1.273422   -4.132924   -2.599066
     56          1           0       -2.519474   -3.539538    0.560268
     57          1           0        1.092216   -4.933699   -0.230862
     58          1           0        2.363873   -5.483055   -1.295042
     59          1           0        4.725490   -1.133746    0.779611
     60          1           0        4.923855    0.416407    1.700450
     61          1           0        4.524207    4.520718   -0.446683
     62          1           0        5.514995    3.103785    0.386017
     63          1           0        4.512944    4.165748    1.490969
     64          1           0        1.718332    4.898227    0.731417
     65          1           0       -7.716084   -2.665228    1.685329
     66          1           0       -7.078256   -4.162149    1.826784
     67          1           0       -7.022673   -3.472980    0.208122
     68          1           0       -7.062054   -0.595181    0.128985
     69          1           0       -4.837503    1.106579   -1.015679
     70          1           0       -6.678491    0.901639   -1.384125
     71          1           0       -5.103576   -0.088720   -2.113003
     72          1           0       -3.619806    6.154914    1.170301
     73          1           0       -4.258956    4.353807    0.720877
     74          1           0        0.229483    6.116572    2.160388
     75          1           0       -1.325369    7.214349    1.578294
     76          1           0        0.073534    6.963359    0.454315
     77          1           0       -3.238342    6.497418   -1.459201
     78          1           0       -5.126093    6.296903   -1.163017
     79          1           0       -4.099610    4.926011   -1.563373
     80          1           0        3.658499   -4.320514    1.952178
     81          1           0        7.952618   -1.669693    2.056650
 ---------------------------------------------------------------------

 SCF Done:  E(RB3LYP) =  -1949.07012367     A.U. after   17 cycles

 Excitation energies and oscillator strengths:

 Excited State   1:      Singlet-A      1.9376 eV  639.90 nm  f=0.4182  <S**2>=0.000
     156 ->157         0.70824
     156 <-157        -0.11103
 This state for optimization and/or second-order correction.
 Total Energy, E(TD-HF/TD-DFT) =  -1948.99891985
 Copying the excited state density for this state as the 1-particle RhoCI density.

 The electronic state is 1-A.
 Alpha  occ. eigenvalues --  -19.19785 -19.18757 -19.15958 -19.12540 -19.10840
 Alpha  occ. eigenvalues --  -19.09313 -14.38656 -14.38520 -14.35288 -14.29955
 Alpha  occ. eigenvalues --  -10.34493 -10.32763 -10.29553 -10.26980 -10.26169
 Alpha  occ. eigenvalues --  -10.24528 -10.23588 -10.23468 -10.22910 -10.22647
 Alpha  occ. eigenvalues --  -10.22349 -10.22242 -10.21880 -10.21631 -10.21530
 Alpha  occ. eigenvalues --  -10.21310 -10.21214 -10.21181 -10.21103 -10.20501
 Alpha  occ. eigenvalues --  -10.20002 -10.19897 -10.19695 -10.19641 -10.19547
 Alpha  occ. eigenvalues --  -10.19517 -10.19450 -10.18921 -10.18780 -10.18710
 Alpha  occ. eigenvalues --  -10.18681 -10.17650 -10.17643  -1.11576  -1.10279
 Alpha  occ. eigenvalues --   -1.02290  -1.01826  -1.00704  -1.00694  -0.98839
 Alpha  occ. eigenvalues --   -0.97790  -0.95479  -0.90581  -0.84451  -0.82696
 Alpha  occ. eigenvalues --   -0.81843  -0.81651  -0.78696  -0.78380  -0.78214
 Alpha  occ. eigenvalues --   -0.76568  -0.75936  -0.74949  -0.73956  -0.73128
 Alpha  occ. eigenvalues --   -0.71579  -0.70810  -0.70146  -0.68691  -0.67827
 Alpha  occ. eigenvalues --   -0.66721  -0.65992  -0.64599  -0.62540  -0.61666
 Alpha  occ. eigenvalues --   -0.61012  -0.60275  -0.59378  -0.58535  -0.57627
 Alpha  occ. eigenvalues --   -0.56477  -0.55133  -0.54262  -0.53632  -0.52917
 Alpha  occ. eigenvalues --   -0.52099  -0.51590  -0.50966  -0.50463  -0.49557
 Alpha  occ. eigenvalues --   -0.49182  -0.48934  -0.48598  -0.48314  -0.48033
 Alpha  occ. eigenvalues --   -0.47368  -0.46847  -0.46252  -0.46055  -0.45352
 Alpha  occ. eigenvalues --   -0.45256  -0.44634  -0.44567  -0.44284  -0.43761
 Alpha  occ. eigenvalues --   -0.43515  -0.43280  -0.42893  -0.42552  -0.42404
 Alpha  occ. eigenvalues --   -0.42199  -0.41792  -0.41713  -0.40935  -0.40874
 Alpha  occ. eigenvalues --   -0.40584  -0.40423  -0.40239  -0.40004  -0.39429
 Alpha  occ. eigenvalues --   -0.39269  -0.38924  -0.38257  -0.38160  -0.38043
 Alpha  occ. eigenvalues --   -0.37242  -0.37178  -0.37027  -0.36918  -0.36477
 Alpha  occ. eigenvalues --   -0.36205  -0.35642  -0.35323  -0.34866  -0.34737
 Alpha  occ. eigenvalues --   -0.34581  -0.34167  -0.33343  -0.33097  -0.32948
 Alpha  occ. eigenvalues --   -0.32544  -0.32348  -0.30857  -0.30470  -0.29955
 Alpha  occ. eigenvalues --   -0.28310  -0.27698  -0.27340  -0.26621  -0.25933
 Alpha  occ. eigenvalues --   -0.24981  -0.23666  -0.23521  -0.22421  -0.21841
 Alpha  occ. eigenvalues --   -0.18033
 Alpha virt. eigenvalues --   -0.10352  -0.06143  -0.04499  -0.02054  -0.00962
 Alpha virt. eigenvalues --   -0.00139   0.01706   0.02880   0.03455   0.03875
 Alpha virt. eigenvalues --    0.04165   0.04457   0.04759   0.05005   0.05183

 Mulliken charges:
               1
     1  O   -0.265673
     2  O   -0.243426
     3  O   -0.126763
     4  O   -0.181386
     5  O   -0.239950
     6  O   -0.282842
     7  N   -0.078196
     8  N   -0.170513
     9  N   -0.066003
    10  N   -0.318558
    11  C   -0.062897
    12  C    0.010501
    13  C   -0.231463
    14  C    0.095429
    15  C   -0.090162
    16  C    0.131344
    17  C   -0.115386
    18  C   -0.188178
    19  C    0.135043
    20  C   -0.063283
    21  C    0.071475
    22  C    0.109152
    23  C   -0.011561
    24  C    0.159318
    25  C   -0.113396
    26  C    0.276549
    27  C    0.105036
    28  C    0.067887
    29  C   -0.124609
    30  C    0.066403
    31  C   -0.117802
    32  C    0.073370
    33  C   -0.170849
    34  C    0.114828
    35  C   -0.070339
    36  C   -0.178850
    37  C    0.136987
    38  C    0.034695
    39  C    0.149007
    40  C    0.104166
    41  C    0.178504
    42  C   -0.024473
    43  C   -0.088692
    44  H    0.142627
    45  H    0.053624
    46  H   -0.016383
    47  H   -0.000282
    48  H    0.053360
    49  H   -0.017358
    50  H    0.046852
    51  H    0.050303
    52  H    0.229426
    53  H    0.009731
    54  H   -0.044815
    55  H   -0.053427
    56  H    0.118947
    57  H    0.020308
    58  H    0.054670
    59  H    0.058471
    60  H    0.036430
    61  H    0.057345
    62  H    0.008783
    63  H    0.035256
    64  H   -0.056669
    65  H    0.002842
    66  H    0.024862
    67  H    0.015262
    68  H    0.039584
    69  H    0.061130
    70  H    0.032477
    71  H    0.027501
    72  H    0.018398
    73  H    0.018584
    74  H    0.041530
    75  H    0.049966
    76  H    0.035060
    77  H    0.030549
    78  H    0.031090
    79  H    0.021607
    80  H    0.192293
    81  H    0.175619
 Sum of Mulliken charges =  -0.00000

 Dipole moment (field-independent basis, Debye):
    X=              2.9686    Y=             -1.7072    Z=              0.6292  Tot=              3.4818
 Quadrupole moment (field-independent basis, Debye-Ang):
   XX=           -248.0508   YY=           -249.0719   ZZ=           -252.2356
   XY=            -13.3409   XZ=             21.1022   YZ=             15.3233

 Normal termination of Gaussian 16 at Thu Jul  4 15:11:30 2019.
