 Gaussian 16, Revision A.03,
 Gaussian 16:  ES64L-G16RevA.03 25-Dec-2016

 --------------------------
 # td=(NStates=1) B3LYP/SVP
 --------------------------

 --
 TD
 --
 Symbolic Z-matrix:
 Charge =  0 Multiplicity = 1

                         Standard orientation:
 ---------------------------------------------------------------------
 Center     Atomic      Atomic             Coordinates (Angstroms)
 Number     Number       Type             X           Y           Z
 ---------------------------------------------------------------------
      1          8           0       -4.640227   -4.769712    1.789524
      2          8           0        3.229209   -4.893338    1.264595
      3          8           0        7.196955   -1.473930    1.805410
      4          8           0        3.781553   -2.982128    0.165605
      5          8           0        7.564945   -0.583721   -0.233965
      6          8           0       -3.021939    2.401405   -0.401614
      7          7           0       -0.342121   -0.657202   -0.441842
      8          7           0        1.545427    1.855223   -0.236492
      9          7           0       -3.583329   -3.206553    0.476199
     10          7           0       -0.769577    2.941375   -0.251414
     11          6           0        0.727370   -2.433866   -1.291244
     12          6           0        0.950587   -1.138789   -0.854542
     13          6           0       -0.672547   -2.746694   -1.139600
     14          6           0       -1.268082   -1.584493   -0.708933
     15          6           0        3.746853    1.448007   -0.386339
     16          6           0        2.399901    0.846494   -0.480379
     17          6           0        2.170710   -0.416287   -0.847113
     18          6           0        3.591602    2.736828   -0.031375
     19          6           0        1.634677   -3.422819   -1.832068
     20          6           0       -5.659479   -2.614119    1.306476
     21          6           0       -3.690837   -1.911848    0.047905
     22          6           0        2.175060    2.980456   -0.046834
     23          6           0       -5.118795   -1.534831    0.293597
     24          6           0        5.092491    0.768821   -0.515698
     25          6           0       -2.653251   -1.134584   -0.480661
     26          6           0       -1.308217   -3.990731   -1.684036
     27          6           0       -4.660356   -3.649730    1.295353
     28          6           0        2.160696   -4.559232   -0.760046
     29          6           0        5.413831   -0.081278    0.779235
     30          6           0        4.531435    3.816303    0.404223
     31          6           0        1.409683    4.184911    0.262440
     32          6           0       -7.079138   -3.059923    1.236947
     33          6           0       -5.866170   -0.587805   -0.292666
     34          6           0       -0.055859    4.070027    0.159211
     35          6           0       -1.043157    5.182223    0.420279
     36          6           0       -2.283326    4.642408    0.347498
     37          6           0        3.172634   -4.004139    0.278642
     38          6           0       -5.457110    0.266271   -1.386592
     39          6           0        6.803306   -0.751907    0.703985
     40          6           0       -3.613865    5.396079    0.596917
     41          6           0       -2.114598    3.185431   -0.192146
     42          6           0       -0.556865    6.546563    0.864900
     43          6           0       -4.341746    5.776632   -0.641931
     44          1           0       -0.599798    0.253671   -0.330911
     45          1           0        3.014681   -1.124484   -1.044043
     46          1           0        2.543149   -3.105210   -2.163084
     47          1           0        0.949437   -4.054582   -2.516554
     48          1           0       -5.738808   -1.976656    2.267793
     49          1           0        5.102402    0.092177   -1.246058
     50          1           0        5.873468    1.485615   -0.574404
     51          1           0       -2.790531   -0.117112   -0.524730
     52          1           0        0.581731    2.017242   -0.630167
     53          1           0       -1.298408   -4.787151   -0.810854
     54          1           0       -2.294382   -3.959634   -2.135123
     55          1           0       -0.677536   -4.233323   -2.636776
     56          1           0       -2.688929   -3.741082    0.497522
     57          1           0        1.117526   -5.043321   -0.573764
     58          1           0        2.806291   -5.453535   -1.276914
     59          1           0        4.601080   -0.728372    0.941867
     60          1           0        5.449384    0.661287    1.754026
     61          1           0        4.536031    4.689276   -0.307763
     62          1           0        5.603626    3.321319    0.246536
     63          1           0        4.685404    4.139922    1.346045
     64          1           0        1.811693    5.179366    0.413788
     65          1           0       -7.694835   -2.216776    1.307484
     66          1           0       -7.350259   -3.863235    2.132490
     67          1           0       -7.252080   -3.365092    0.255310
     68          1           0       -6.686939   -0.274881    0.265258
     69          1           0       -4.941834    1.113447   -0.927904
     70          1           0       -6.281110    0.755566   -2.020345
     71          1           0       -4.735071   -0.251254   -1.921632
     72          1           0       -3.190277    6.260101    1.112333
     73          1           0       -4.184554    4.858457    1.372662
     74          1           0        0.258265    6.616073    1.563986
     75          1           0       -1.386061    7.201517    1.079956
     76          1           0        0.070739    6.959613    0.064676
     77          1           0       -3.563974    6.335979   -1.192733
     78          1           0       -5.187430    6.441993   -0.452655
     79          1           0       -4.553704    5.108453   -1.448725
     80          1           0        3.920327   -4.599672    1.970640
     81          1           0        8.109877   -2.060484    1.648726
 ---------------------------------------------------------------------

 SCF Done:  E(RB3LYP) =  -1949.14575833     A.U. after   16 cycles

 Excitation energies and oscillator strengths:

 Excited State   1:      Singlet-A      2.0371 eV  608.63 nm  f=0.3753  <S**2>=0.000
     156 ->157         0.70471
 This state for optimization and/or second-order correction.
 Total Energy, E(TD-HF/TD-DFT) =  -1949.07089654
 Copying the excited state density for this state as the 1-particle RhoCI density.

 The electronic state is 1-A.
 Alpha  occ. eigenvalues --  -19.20673 -19.18376 -19.15260 -19.12447 -19.11193
 Alpha  occ. eigenvalues --  -19.10014 -14.36797 -14.36256 -14.35435 -14.28715
 Alpha  occ. eigenvalues --  -10.34311 -10.32381 -10.29288 -10.26306 -10.24406
 Alpha  occ. eigenvalues --  -10.23798 -10.23645 -10.23156 -10.22836 -10.22706
 Alpha  occ. eigenvalues --  -10.22514 -10.21614 -10.21282 -10.21140 -10.20864
 Alpha  occ. eigenvalues --  -10.20580 -10.20285 -10.20128 -10.19987 -10.19731
 Alpha  occ. eigenvalues --  -10.19652 -10.19533 -10.19512 -10.19207 -10.19020
 Alpha  occ. eigenvalues --  -10.18858 -10.18855 -10.18732 -10.18719 -10.18521
 Alpha  occ. eigenvalues --  -10.18168 -10.17105 -10.16787  -1.11696  -1.07323
 Alpha  occ. eigenvalues --   -1.03580  -1.03224  -1.01051  -1.00575  -0.98734
 Alpha  occ. eigenvalues --   -0.98143  -0.94878  -0.90240  -0.82979  -0.82529
 Alpha  occ. eigenvalues --   -0.82083  -0.81359  -0.79181  -0.78661  -0.77518
 Alpha  occ. eigenvalues --   -0.76848  -0.76213  -0.75374  -0.74128  -0.72132
 Alpha  occ. eigenvalues --   -0.71071  -0.69771  -0.69359  -0.68958  -0.68129
 Alpha  occ. eigenvalues --   -0.67591  -0.65968  -0.64655  -0.62521  -0.61590
 Alpha  occ. eigenvalues --   -0.60953  -0.59500  -0.58477  -0.57208  -0.57075
 Alpha  occ. eigenvalues --   -0.56567  -0.55876  -0.54894  -0.54059  -0.53670
 Alpha  occ. eigenvalues --   -0.52355  -0.51994  -0.50972  -0.50882  -0.50029
 Alpha  occ. eigenvalues --   -0.49765  -0.49293  -0.48777  -0.48207  -0.47478
 Alpha  occ. eigenvalues --   -0.46874  -0.46374  -0.46102  -0.45755  -0.45453
 Alpha  occ. eigenvalues --   -0.44960  -0.44824  -0.44355  -0.44269  -0.43914
 Alpha  occ. eigenvalues --   -0.43420  -0.43225  -0.43093  -0.42601  -0.42090
 Alpha  occ. eigenvalues --   -0.41868  -0.41692  -0.41337  -0.41045  -0.40910
 Alpha  occ. eigenvalues --   -0.40777  -0.40411  -0.40151  -0.39968  -0.39661
 Alpha  occ. eigenvalues --   -0.39479  -0.39017  -0.38835  -0.38702  -0.38631
 Alpha  occ. eigenvalues --   -0.38493  -0.38164  -0.37882  -0.37096  -0.36540
 Alpha  occ. eigenvalues --   -0.36289  -0.35714  -0.35544  -0.35000  -0.34870
 Alpha  occ. eigenvalues --   -0.34639  -0.34585  -0.33446  -0.33126  -0.33110
 Alpha  occ. eigenvalues --   -0.32656  -0.32024  -0.31810  -0.30678  -0.30127
 Alpha  occ. eigenvalues --   -0.27808  -0.26865  -0.26617  -0.26330  -0.25502
 Alpha  occ. eigenvalues --   -0.24708  -0.24361  -0.23508  -0.23036  -0.21214
 Alpha  occ. eigenvalues --   -0.18037
 Alpha virt. eigenvalues --   -0.09779  -0.05337  -0.03645  -0.01376  -0.01215
 Alpha virt. eigenvalues --   -0.00334   0.01096   0.01735   0.02667   0.03083
 Alpha virt. eigenvalues --    0.04387   0.04978   0.05331   0.05664   0.06427

 Mulliken charges:
               1
     1  O   -0.209734
     2  O   -0.188410
     3  O   -0.277053
     4  O   -0.202003
     5  O   -0.236887
     6  O   -0.205859
     7  N   -0.038726
     8  N    0.001324
     9  N   -0.140178
    10  N   -0.336112
    11  C   -0.072668
    12  C    0.044926
    13  C   -0.170973
    14  C    0.054482
    15  C   -0.127969
    16  C    0.112025
    17  C   -0.106094
    18  C   -0.105987
    19  C    0.133754
    20  C   -0.103330
    21  C    0.092949
    22  C    0.028946
    23  C   -0.045549
    24  C    0.239394
    25  C   -0.038869
    26  C    0.001988
    27  C    0.163323
    28  C   -0.123815
    29  C   -0.068433
    30  C    0.104136
    31  C   -0.080634
    32  C    0.092160
    33  C   -0.133974
    34  C    0.057462
    35  C   -0.081192
    36  C   -0.268047
    37  C    0.174627
    38  C    0.100879
    39  C    0.188259
    40  C    0.122446
    41  C    0.166972
    42  C    0.147759
    43  C    0.044202
    44  H    0.091717
    45  H    0.021782
    46  H   -0.022722
    47  H    0.008827
    48  H    0.062480
    49  H   -0.028595
    50  H    0.000303
    51  H   -0.044582
    52  H    0.166501
    53  H    0.055602
    54  H    0.030457
    55  H    0.038642
    56  H    0.137583
    57  H    0.055263
    58  H    0.062313
    59  H    0.032813
    60  H    0.050141
    61  H    0.031242
    62  H   -0.004241
    63  H    0.007990
    64  H   -0.027242
    65  H   -0.012041
    66  H    0.063564
    67  H   -0.011586
    68  H   -0.023162
    69  H    0.058694
    70  H    0.019566
    71  H    0.002233
    72  H   -0.021463
    73  H    0.007201
    74  H    0.005677
    75  H    0.011944
    76  H   -0.002405
    77  H   -0.011283
    78  H    0.012355
    79  H    0.013910
    80  H    0.209330
    81  H    0.241674
 Sum of Mulliken charges =  -0.00000

 Dipole moment (field-independent basis, Debye):
    X=              3.1636    Y=              0.1124    Z=              0.9629  Tot=              3.3088
 Quadrupole moment (field-independent basis, Debye-Ang):
   XX=           -244.9255   YY=           -237.9575   ZZ=           -253.9192
   XY=            -21.5398   XZ=             15.7370   YZ=              9.6979

 Normal termination of Gaussian 16 at Thu Jun 27 16:09:24 2019.
