 Gaussian 16, Revision A.03,
 Gaussian 16:  ES64L-G16RevA.03 25-Dec-2016

 --------------------------
 # td=(NStates=1) B3LYP/SVP
 --------------------------

 --
 TD
 --
 Symbolic Z-matrix:
 Charge =  0 Multiplicity = 1

                         Standard orientation:
 ---------------------------------------------------------------------
 Center     Atomic      Atomic             Coordinates (Angstroms)
 Number     Number       Type             X           Y           Z
 ---------------------------------------------------------------------
      1          8           0       -4.721618   -4.671659    1.842785
      2          8           0        2.777594   -5.057765    1.248633
      3          8           0        7.148087   -1.549594    1.886803
      4          8           0        3.612840   -3.335805    0.073581
      5          8           0        7.762286   -0.567940   -0.107322
      6          8           0       -2.965526    2.629758   -0.430281
      7          7           0       -0.272512   -0.672890   -0.555088
      8          7           0        1.549368    1.785831   -0.369939
      9          7           0       -3.607052   -3.091977    0.527201
     10          7           0       -0.694284    2.899482   -0.083841
     11          6           0        0.592760   -2.585322   -1.332479
     12          6           0        0.866357   -1.198970   -0.954174
     13          6           0       -0.813463   -2.696125   -1.099171
     14          6           0       -1.284756   -1.550042   -0.629299
     15          6           0        3.812535    1.329592   -0.201758
     16          6           0        2.480917    0.783478   -0.541570
     17          6           0        2.184079   -0.492016   -0.914759
     18          6           0        3.629664    2.639480    0.168675
     19          6           0        1.560875   -3.633721   -1.855617
     20          6           0       -5.607707   -2.445278    1.354376
     21          6           0       -3.698131   -1.747374    0.122052
     22          6           0        2.225878    2.935836    0.103131
     23          6           0       -5.113905   -1.412889    0.359355
     24          6           0        5.107982    0.653328   -0.496217
     25          6           0       -2.645359   -1.070025   -0.547362
     26          6           0       -1.665264   -3.742060   -1.752206
     27          6           0       -4.652147   -3.527314    1.336601
     28          6           0        1.897105   -4.650299   -0.932882
     29          6           0        5.372466   -0.363809    0.606522
     30          6           0        4.614783    3.643800    0.482983
     31          6           0        1.447164    4.101988    0.269404
     32          6           0       -7.156483   -2.927455    1.295068
     33          6           0       -5.839236   -0.379197   -0.202574
     34          6           0        0.119436    4.065677    0.201958
     35          6           0       -0.857554    5.276899    0.522814
     36          6           0       -2.024786    4.742292    0.391404
     37          6           0        2.910744   -4.286619    0.150673
     38          6           0       -5.497471    0.546266   -1.324891
     39          6           0        6.837376   -0.810078    0.651189
     40          6           0       -3.378338    5.605221    0.478546
     41          6           0       -1.976050    3.303350   -0.115785
     42          6           0       -0.303891    6.580480    0.830655
     43          6           0       -3.936521    5.835270   -0.956918
     44          1           0       -0.613830    0.230818   -0.368570
     45          1           0        2.795425   -1.285193   -1.093395
     46          1           0        2.507701   -3.140517   -2.401987
     47          1           0        1.129533   -4.188202   -2.643493
     48          1           0       -5.519168   -1.860196    2.239094
     49          1           0        5.064064   -0.031291   -1.432570
     50          1           0        5.884679    1.288082   -0.496260
     51          1           0       -3.025858   -0.075721   -0.865034
     52          1           0        0.546936    1.927429   -0.294778
     53          1           0       -1.775032   -4.808839   -1.094631
     54          1           0       -2.556975   -3.131949   -1.876259
     55          1           0       -1.240821   -4.079089   -2.581224
     56          1           0       -2.757912   -3.783367    0.598091
     57          1           0        1.153906   -5.324966   -0.441349
     58          1           0        2.459540   -5.522114   -1.400869
     59          1           0        4.962273   -1.283708    0.798540
     60          1           0        5.272964    0.285049    1.553893
     61          1           0        4.509552    4.374408   -0.550164
     62          1           0        5.695167    3.314311    0.495181
     63          1           0        4.531788    4.282489    1.362158
     64          1           0        1.743875    5.022718    0.790676
     65          1           0       -8.004322   -2.366302    1.734376
     66          1           0       -7.393551   -3.851781    2.074062
     67          1           0       -7.269406   -3.303092    0.441954
     68          1           0       -6.757065   -0.298106    0.321521
     69          1           0       -5.065878    1.563716   -1.050976
     70          1           0       -6.363396    0.706794   -1.837471
     71          1           0       -4.654403    0.196114   -2.028302
     72          1           0       -3.245780    6.433272    0.983370
     73          1           0       -4.046084    5.017027    0.976861
     74          1           0        0.574603    6.578891    1.528461
     75          1           0       -1.200930    7.332446    1.185347
     76          1           0        0.132375    7.164346    0.015291
     77          1           0       -3.112898    6.548418   -1.491397
     78          1           0       -4.881736    6.395360   -0.986070
     79          1           0       -4.082263    5.046322   -1.268181
     80          1           0        3.544592   -4.807415    1.844092
     81          1           0        8.066034   -1.731413    1.711617
 ---------------------------------------------------------------------

 SCF Done:  E(RB3LYP) =  -1949.00604649     A.U. after   16 cycles

 Excitation energies and oscillator strengths:

 Excited State   1:      Singlet-A      1.9499 eV  635.86 nm  f=0.3729  <S**2>=0.000
     156 ->157         0.70480
 This state for optimization and/or second-order correction.
 Total Energy, E(TD-HF/TD-DFT) =  -1948.93439063
 Copying the excited state density for this state as the 1-particle RhoCI density.

 The electronic state is 1-A.
 Alpha  occ. eigenvalues --  -19.19793 -19.16565 -19.14402 -19.14370 -19.10564
 Alpha  occ. eigenvalues --  -19.09187 -14.37278 -14.37227 -14.35822 -14.29014
 Alpha  occ. eigenvalues --  -10.32954 -10.32849 -10.28777 -10.25918 -10.25231
 Alpha  occ. eigenvalues --  -10.24870 -10.24458 -10.23760 -10.23066 -10.22001
 Alpha  occ. eigenvalues --  -10.21985 -10.21761 -10.21662 -10.21645 -10.21598
 Alpha  occ. eigenvalues --  -10.21422 -10.21244 -10.21135 -10.20788 -10.20758
 Alpha  occ. eigenvalues --  -10.20569 -10.20397 -10.19918 -10.19434 -10.19371
 Alpha  occ. eigenvalues --  -10.19171 -10.19072 -10.18974 -10.18400 -10.18102
 Alpha  occ. eigenvalues --  -10.18012 -10.16679 -10.16047  -1.11510  -1.07477
 Alpha  occ. eigenvalues --   -1.03000  -1.01666  -1.01031  -0.99664  -0.99318
 Alpha  occ. eigenvalues --   -0.97801  -0.94293  -0.90006  -0.83986  -0.83594
 Alpha  occ. eigenvalues --   -0.82164  -0.81195  -0.80358  -0.79807  -0.79032
 Alpha  occ. eigenvalues --   -0.78591  -0.76985  -0.75553  -0.74604  -0.72916
 Alpha  occ. eigenvalues --   -0.71795  -0.69967  -0.69668  -0.69405  -0.68724
 Alpha  occ. eigenvalues --   -0.68559  -0.66349  -0.65119  -0.62706  -0.62178
 Alpha  occ. eigenvalues --   -0.61544  -0.60385  -0.57737  -0.57571  -0.56930
 Alpha  occ. eigenvalues --   -0.56437  -0.56338  -0.55559  -0.54127  -0.53693
 Alpha  occ. eigenvalues --   -0.52950  -0.52265  -0.51038  -0.50771  -0.50134
 Alpha  occ. eigenvalues --   -0.49715  -0.49380  -0.48957  -0.48612  -0.48247
 Alpha  occ. eigenvalues --   -0.47516  -0.46985  -0.46466  -0.46158  -0.46024
 Alpha  occ. eigenvalues --   -0.45798  -0.45112  -0.44567  -0.44107  -0.43821
 Alpha  occ. eigenvalues --   -0.43610  -0.43278  -0.42970  -0.42796  -0.42685
 Alpha  occ. eigenvalues --   -0.42157  -0.42073  -0.41957  -0.41648  -0.41593
 Alpha  occ. eigenvalues --   -0.41072  -0.40914  -0.40562  -0.40342  -0.40290
 Alpha  occ. eigenvalues --   -0.39704  -0.39286  -0.39099  -0.39045  -0.38527
 Alpha  occ. eigenvalues --   -0.38278  -0.37796  -0.37508  -0.37287  -0.37061
 Alpha  occ. eigenvalues --   -0.36711  -0.36030  -0.35507  -0.35333  -0.34806
 Alpha  occ. eigenvalues --   -0.34292  -0.34096  -0.33975  -0.33924  -0.33119
 Alpha  occ. eigenvalues --   -0.32561  -0.31998  -0.31213  -0.29759  -0.29327
 Alpha  occ. eigenvalues --   -0.28915  -0.27416  -0.26275  -0.26032  -0.25848
 Alpha  occ. eigenvalues --   -0.25117  -0.24842  -0.23901  -0.23544  -0.21894
 Alpha  occ. eigenvalues --   -0.18834
 Alpha virt. eigenvalues --   -0.10946  -0.05233  -0.03987  -0.01345  -0.00424
 Alpha virt. eigenvalues --   -0.00178   0.01603   0.02495   0.02928   0.03592
 Alpha virt. eigenvalues --    0.03999   0.04632   0.05096   0.05354   0.06594

 Mulliken charges:
               1
     1  O   -0.249107
     2  O   -0.190515
     3  O   -0.259766
     4  O   -0.191513
     5  O   -0.223969
     6  O   -0.246718
     7  N    0.046480
     8  N   -0.094444
     9  N   -0.178642
    10  N   -0.334472
    11  C   -0.095758
    12  C   -0.096482
    13  C   -0.154764
    14  C    0.039733
    15  C   -0.098351
    16  C    0.193667
    17  C    0.039051
    18  C   -0.071549
    19  C    0.173845
    20  C   -0.013762
    21  C    0.075385
    22  C    0.101448
    23  C   -0.073773
    24  C    0.226231
    25  C   -0.131749
    26  C    0.109556
    27  C    0.134110
    28  C   -0.010840
    29  C   -0.011337
    30  C    0.007769
    31  C   -0.089966
    32  C    0.079660
    33  C   -0.082595
    34  C    0.043317
    35  C    0.010686
    36  C   -0.265724
    37  C    0.088427
    38  C    0.076015
    39  C    0.137013
    40  C    0.192132
    41  C    0.172692
    42  C    0.040343
    43  C    0.117404
    44  H    0.123630
    45  H   -0.069420
    46  H    0.038091
    47  H   -0.021447
    48  H    0.043907
    49  H    0.042914
    50  H   -0.035182
    51  H    0.022011
    52  H    0.114146
    53  H    0.021967
    54  H    0.043975
    55  H   -0.032249
    56  H    0.172448
    57  H    0.031434
    58  H    0.029021
    59  H    0.030603
    60  H    0.049718
    61  H    0.050853
    62  H    0.024798
    63  H    0.036991
    64  H   -0.028461
    65  H    0.023325
    66  H    0.031144
    67  H   -0.031723
    68  H   -0.026705
    69  H    0.076096
    70  H   -0.007608
    71  H    0.030257
    72  H   -0.061996
    73  H   -0.030948
    74  H    0.028383
    75  H    0.034766
    76  H    0.022408
    77  H    0.015855
    78  H    0.001604
    79  H   -0.091412
    80  H    0.196307
    81  H    0.161332
 Sum of Mulliken charges =  -0.00000

 Dipole moment (field-independent basis, Debye):
    X=              3.3766    Y=              0.8786    Z=              0.0032  Tot=              3.4890
 Quadrupole moment (field-independent basis, Debye-Ang):
   XX=           -254.7963   YY=           -238.7198   ZZ=           -255.2752
   XY=            -13.0859   XZ=              9.1910   YZ=             16.4633

 Normal termination of Gaussian 16 at Fri Jun 28 08:10:47 2019.
