 Gaussian 16, Revision A.03,
 Gaussian 16:  ES64L-G16RevA.03 25-Dec-2016

 --------------------------
 # td=(NStates=1) B3LYP/SVP
 --------------------------

 --
 TD
 --
 Symbolic Z-matrix:
 Charge =  0 Multiplicity = 1

                         Standard orientation:
 ---------------------------------------------------------------------
 Center     Atomic      Atomic             Coordinates (Angstroms)
 Number     Number       Type             X           Y           Z
 ---------------------------------------------------------------------
      1          8           0        4.571095   -4.842108   -1.826498
      2          8           0       -3.060099   -4.767563   -1.234550
      3          8           0       -7.131170   -1.460047   -1.761295
      4          8           0       -3.929612   -3.162774    0.071119
      5          8           0       -7.625011   -0.481565    0.235065
      6          8           0        3.081832    2.442874    0.302575
      7          7           0        0.144792   -0.605091    0.513690
      8          7           0       -1.531477    1.840976    0.389418
      9          7           0        3.381802   -3.228866   -0.619502
     10          7           0        0.774289    2.899348    0.041139
     11          6           0       -0.774574   -2.476811    1.346182
     12          6           0       -0.995387   -1.165141    0.821347
     13          6           0        0.626084   -2.664396    1.245705
     14          6           0        1.209274   -1.469686    0.573686
     15          6           0       -3.779656    1.541986    0.299928
     16          6           0       -2.487264    0.933225    0.522440
     17          6           0       -2.218848   -0.488274    0.716753
     18          6           0       -3.493998    2.851168   -0.001424
     19          6           0       -1.709161   -3.524319    1.875344
     20          6           0        5.416287   -2.601378   -1.397599
     21          6           0        3.622633   -1.953546   -0.222920
     22          6           0       -1.996594    2.971054   -0.071048
     23          6           0        4.965304   -1.552049   -0.416288
     24          6           0       -5.102468    0.919360    0.381962
     25          6           0        2.663513   -1.101548    0.357137
     26          6           0        1.412904   -3.829633    1.817157
     27          6           0        4.468993   -3.783728   -1.338875
     28          6           0       -2.100082   -4.555816    0.856013
     29          6           0       -5.475625   -0.085743   -0.744021
     30          6           0       -4.317399    3.944074   -0.428848
     31          6           0       -1.223082    4.224467   -0.258699
     32          6           0        7.011231   -3.113575   -1.226153
     33          6           0        5.782110   -0.749712    0.314014
     34          6           0        0.140544    4.105275   -0.290597
     35          6           0        1.174318    5.179900   -0.570146
     36          6           0        2.476395    4.659910   -0.332777
     37          6           0       -3.102614   -4.057159   -0.192820
     38          6           0        5.403944    0.319637    1.303424
     39          6           0       -6.816364   -0.641198   -0.665358
     40          6           0        3.698571    5.419389   -0.235680
     41          6           0        2.178502    3.238908    0.121189
     42          6           0        0.658557    6.454205   -1.066533
     43          6           0        4.254386    5.436324    1.170222
     44          1           0        0.266247    0.342899    0.166132
     45          1           0       -3.098618   -1.335975    0.690972
     46          1           0       -2.563465   -3.076111    2.105475
     47          1           0       -1.111969   -4.103810    2.731797
     48          1           0        5.240204   -2.149376   -2.339833
     49          1           0       -5.203245    0.420535    1.377063
     50          1           0       -5.792394    1.809530    0.571917
     51          1           0        3.094153    0.048429    0.180272
     52          1           0       -0.388733    1.783145    0.457726
     53          1           0        1.371089   -4.734042    1.155327
     54          1           0        2.404432   -3.445012    2.232419
     55          1           0        0.949757   -4.211220    2.723098
     56          1           0        2.510614   -3.781311   -0.477958
     57          1           0       -1.115422   -4.943630    0.370415
     58          1           0       -2.561982   -5.489967    1.254648
     59          1           0       -4.724710   -0.955335   -0.812930
     60          1           0       -5.354145    0.372919   -1.728002
     61          1           0       -4.485554    4.755509    0.445929
     62          1           0       -5.318473    3.418115   -0.771800
     63          1           0       -3.800111    4.686976   -1.396322
     64          1           0       -1.784029    5.134999   -0.652599
     65          1           0        7.648548   -2.176452   -1.331198
     66          1           0        7.176143   -3.953619   -1.829361
     67          1           0        7.116594   -3.416654   -0.309325
     68          1           0        6.857277   -0.894779    0.022865
     69          1           0        4.871495    1.055739    0.992513
     70          1           0        6.325544    0.598956    1.858602
     71          1           0        4.898922   -0.309689    1.989681
     72          1           0        3.502508    6.403421   -0.578146
     73          1           0        4.538657    4.922127   -0.822179
     74          1           0        0.470521    6.289826   -2.157218
     75          1           0        1.302380    7.260511   -1.139377
     76          1           0       -0.251720    7.043759   -0.429968
     77          1           0        3.390675    5.907704    1.873230
     78          1           0        5.097996    6.146616    1.215571
     79          1           0        4.335175    4.278147    1.588697
     80          1           0       -3.761634   -4.470658   -1.766472
     81          1           0       -8.117450   -1.718356   -1.602502
 ---------------------------------------------------------------------

 SCF Done:  E(RB3LYP) =  -1949.08902584     A.U. after   16 cycles

 Excitation energies and oscillator strengths:

 Excited State   1:      Singlet-A      1.9232 eV  644.69 nm  f=0.4192  <S**2>=0.000
     156 ->157         0.70590
     156 <-157        -0.11542
 This state for optimization and/or second-order correction.
 Total Energy, E(TD-HF/TD-DFT) =  -1949.01835128
 Copying the excited state density for this state as the 1-particle RhoCI density.

 The electronic state is 1-A.
 Alpha  occ. eigenvalues --  -19.22619 -19.17562 -19.14783 -19.12674 -19.12577
 Alpha  occ. eigenvalues --  -19.09439 -14.38410 -14.37401 -14.36167 -14.28670
 Alpha  occ. eigenvalues --  -10.34611 -10.31856 -10.29666 -10.26128 -10.24744
 Alpha  occ. eigenvalues --  -10.24252 -10.23398 -10.23074 -10.22835 -10.22387
 Alpha  occ. eigenvalues --  -10.22148 -10.22120 -10.21849 -10.21108 -10.20842
 Alpha  occ. eigenvalues --  -10.20723 -10.20501 -10.20339 -10.20325 -10.20215
 Alpha  occ. eigenvalues --  -10.20169 -10.20081 -10.20009 -10.19689 -10.19588
 Alpha  occ. eigenvalues --  -10.19495 -10.19159 -10.19101 -10.18848 -10.18819
 Alpha  occ. eigenvalues --  -10.18321 -10.18251 -10.16510  -1.16713  -1.07362
 Alpha  occ. eigenvalues --   -1.06564  -1.02588  -1.00648  -1.00479  -0.99476
 Alpha  occ. eigenvalues --   -0.98831  -0.96934  -0.88716  -0.83166  -0.82226
 Alpha  occ. eigenvalues --   -0.81934  -0.80291  -0.79604  -0.78396  -0.77847
 Alpha  occ. eigenvalues --   -0.76955  -0.76004  -0.75284  -0.74159  -0.72384
 Alpha  occ. eigenvalues --   -0.71410  -0.70701  -0.70145  -0.68387  -0.67822
 Alpha  occ. eigenvalues --   -0.66881  -0.65888  -0.64563  -0.63563  -0.61261
 Alpha  occ. eigenvalues --   -0.60060  -0.58663  -0.58357  -0.58008  -0.57294
 Alpha  occ. eigenvalues --   -0.55517  -0.55414  -0.54812  -0.54407  -0.52778
 Alpha  occ. eigenvalues --   -0.52626  -0.52272  -0.51319  -0.51075  -0.50378
 Alpha  occ. eigenvalues --   -0.49751  -0.49385  -0.48496  -0.48240  -0.47290
 Alpha  occ. eigenvalues --   -0.46745  -0.46292  -0.46048  -0.45899  -0.45722
 Alpha  occ. eigenvalues --   -0.45178  -0.44823  -0.44665  -0.44210  -0.43912
 Alpha  occ. eigenvalues --   -0.43581  -0.43129  -0.42768  -0.42636  -0.42071
 Alpha  occ. eigenvalues --   -0.41956  -0.41699  -0.41448  -0.41264  -0.40581
 Alpha  occ. eigenvalues --   -0.40500  -0.40459  -0.40166  -0.39749  -0.39428
 Alpha  occ. eigenvalues --   -0.39220  -0.38859  -0.38682  -0.38479  -0.38211
 Alpha  occ. eigenvalues --   -0.38022  -0.37792  -0.37209  -0.37038  -0.36662
 Alpha  occ. eigenvalues --   -0.36175  -0.36020  -0.35778  -0.35390  -0.34672
 Alpha  occ. eigenvalues --   -0.34454  -0.34351  -0.33847  -0.33580  -0.32474
 Alpha  occ. eigenvalues --   -0.32299  -0.31715  -0.31409  -0.30286  -0.28883
 Alpha  occ. eigenvalues --   -0.28053  -0.27964  -0.27426  -0.25905  -0.25537
 Alpha  occ. eigenvalues --   -0.25095  -0.24294  -0.23295  -0.22200  -0.20737
 Alpha  occ. eigenvalues --   -0.17419
 Alpha virt. eigenvalues --   -0.09836  -0.05487  -0.03880  -0.02107  -0.00174
 Alpha virt. eigenvalues --    0.00883   0.02057   0.02213   0.02703   0.03715
 Alpha virt. eigenvalues --    0.03797   0.04668   0.05106   0.05282   0.06149

 Mulliken charges:
               1
     1  O   -0.148009
     2  O   -0.035819
     3  O   -0.264944
     4  O   -0.276767
     5  O   -0.232528
     6  O   -0.224278
     7  N    0.011385
     8  N   -0.044526
     9  N   -0.135387
    10  N   -0.405854
    11  C   -0.125481
    12  C   -0.014622
    13  C   -0.195924
    14  C    0.043084
    15  C   -0.081898
    16  C    0.059776
    17  C   -0.134086
    18  C   -0.087603
    19  C    0.211021
    20  C   -0.111257
    21  C    0.024016
    22  C    0.006445
    23  C   -0.020601
    24  C    0.086689
    25  C   -0.145972
    26  C    0.061887
    27  C    0.130652
    28  C   -0.029742
    29  C    0.017140
    30  C   -0.074956
    31  C   -0.109510
    32  C    0.116164
    33  C   -0.169588
    34  C    0.124077
    35  C   -0.071045
    36  C   -0.155823
    37  C    0.107314
    38  C    0.192977
    39  C    0.158532
    40  C    0.127722
    41  C    0.178107
    42  C    0.054112
    43  C   -0.093910
    44  H    0.120251
    45  H    0.082100
    46  H   -0.037319
    47  H    0.025663
    48  H    0.035550
    49  H    0.021152
    50  H    0.018757
    51  H    0.094159
    52  H    0.200550
    53  H    0.031478
    54  H    0.052537
    55  H   -0.000710
    56  H    0.140699
    57  H    0.030122
    58  H    0.049653
    59  H    0.063923
    60  H    0.027076
    61  H    0.053104
    62  H    0.042838
    63  H    0.054147
    64  H   -0.000189
    65  H    0.037370
    66  H    0.022803
    67  H   -0.035682
    68  H   -0.002281
    69  H    0.016424
    70  H   -0.000801
    71  H    0.010260
    72  H   -0.016893
    73  H    0.012238
    74  H    0.034763
    75  H   -0.028169
    76  H    0.050709
    77  H    0.010603
    78  H    0.022182
    79  H    0.073025
    80  H    0.161683
    81  H    0.205252
 Sum of Mulliken charges =  -0.00000

 Dipole moment (field-independent basis, Debye):
    X=             -1.5754    Y=             -1.9034    Z=             -1.3849  Tot=              2.8324
 Quadrupole moment (field-independent basis, Debye-Ang):
   XX=           -258.8771   YY=           -231.6809   ZZ=           -255.5783
   XY=             16.9475   XZ=             18.1624   YZ=            -12.0538

 Normal termination of Gaussian 16 at Wed Jul  3 00:35:14 2019.
