 Gaussian 16, Revision A.03,
 Gaussian 16:  ES64L-G16RevA.03 25-Dec-2016

 --------------------------
 # td=(NStates=1) B3LYP/SVP
 --------------------------

 --
 TD
 --
 Symbolic Z-matrix:
 Charge =  0 Multiplicity = 1

                         Standard orientation:
 ---------------------------------------------------------------------
 Center     Atomic      Atomic             Coordinates (Angstroms)
 Number     Number       Type             X           Y           Z
 ---------------------------------------------------------------------
      1          8           0       -4.508144   -4.800364    1.987282
      2          8           0        2.939248   -4.852325    1.176580
      3          8           0        6.971987   -1.295981    1.946267
      4          8           0        3.869002   -3.084162    0.168013
      5          8           0        7.515790   -0.820756   -0.217830
      6          8           0       -3.133678    2.526610   -0.373001
      7          7           0       -0.206507   -0.550836   -0.670670
      8          7           0        1.590722    1.846840   -0.335169
      9          7           0       -3.369345   -3.242958    0.614074
     10          7           0       -0.808357    2.871934   -0.136142
     11          6           0        0.733178   -2.439318   -1.383310
     12          6           0        0.952513   -1.147218   -1.025502
     13          6           0       -0.669180   -2.662947   -1.170311
     14          6           0       -1.254248   -1.481153   -0.801609
     15          6           0        3.819133    1.550167   -0.368609
     16          6           0        2.544588    0.840852   -0.580643
     17          6           0        2.227437   -0.473697   -0.917134
     18          6           0        3.523057    2.827961    0.002960
     19          6           0        1.707204   -3.403007   -1.871794
     20          6           0       -5.570799   -2.579097    1.387012
     21          6           0       -3.606632   -2.045325   -0.021261
     22          6           0        2.139743    3.046011    0.035850
     23          6           0       -5.027155   -1.580043    0.288376
     24          6           0        5.199350    0.894223   -0.398374
     25          6           0       -2.610172   -1.184457   -0.566748
     26          6           0       -1.431075   -3.985014   -1.523000
     27          6           0       -4.481203   -3.668808    1.438182
     28          6           0        2.212861   -4.474672   -0.842689
     29          6           0        5.518713    0.130834    0.793523
     30          6           0        4.500563    3.889803    0.481334
     31          6           0        1.285282    4.153679    0.161363
     32          6           0       -6.961635   -3.086872    1.211406
     33          6           0       -5.697112   -0.660544   -0.265300
     34          6           0       -0.184494    3.979759    0.241314
     35          6           0       -1.111338    5.150355    0.464614
     36          6           0       -2.317416    4.633725    0.301134
     37          6           0        3.106544   -3.957740    0.156186
     38          6           0       -5.307553    0.215862   -1.466818
     39          6           0        6.782956   -0.649986    0.710173
     40          6           0       -3.652154    5.211711    0.479020
     41          6           0       -2.239501    3.173503   -0.147693
     42          6           0       -0.725501    6.577105    0.842586
     43          6           0       -4.477720    5.648401   -0.709367
     44          1           0       -0.303297    0.347863   -0.033443
     45          1           0        3.005233   -1.284344   -0.987191
     46          1           0        2.553398   -2.792657   -2.104335
     47          1           0        1.509163   -3.890175   -2.895265
     48          1           0       -5.464077   -2.155092    2.407798
     49          1           0        5.103826   -0.003273   -1.203182
     50          1           0        6.054695    1.587611   -0.721363
     51          1           0       -2.796906   -0.085504   -0.587732
     52          1           0        0.510011    1.893128   -0.453973
     53          1           0       -1.533939   -4.737293   -0.669910
     54          1           0       -2.283763   -3.577882   -2.091845
     55          1           0       -0.807389   -4.673612   -2.395138
     56          1           0       -2.670678   -3.989990    0.695610
     57          1           0        1.315682   -4.847509   -0.421635
     58          1           0        2.747447   -5.142565   -1.509481
     59          1           0        4.656189   -0.676312    1.034769
     60          1           0        5.344884    0.811530    1.753951
     61          1           0        4.334888    4.896034    0.106479
     62          1           0        5.673084    3.641527    0.366578
     63          1           0        4.328353    3.991407    1.575568
     64          1           0        1.906845    4.984040    0.387065
     65          1           0       -7.756712   -2.342639    1.457507
     66          1           0       -6.918339   -3.979579    2.015980
     67          1           0       -6.917010   -3.560831    0.132126
     68          1           0       -6.783897   -0.471815    0.047498
     69          1           0       -4.639816    1.173435   -1.186113
     70          1           0       -5.953845    0.426230   -2.245072
     71          1           0       -4.654479   -0.541824   -2.047673
     72          1           0       -3.758670    5.949518    1.234079
     73          1           0       -4.350684    4.266245    0.804145
     74          1           0       -0.250081    6.618241    2.009031
     75          1           0       -1.596569    7.280484    0.884702
     76          1           0        0.036256    7.001833    0.381353
     77          1           0       -4.041855    6.764252   -1.205457
     78          1           0       -5.525992    6.010706   -0.236992
     79          1           0       -4.626325    4.945907   -1.592534
     80          1           0        3.548961   -4.656286    1.913510
     81          1           0        7.756755   -1.704161    1.968222
 ---------------------------------------------------------------------

 SCF Done:  E(RB3LYP) =  -1949.09941779     A.U. after   16 cycles

 Excitation energies and oscillator strengths:

 Excited State   1:      Singlet-A      1.8896 eV  656.12 nm  f=0.3951  <S**2>=0.000
     156 ->157         0.70827
     156 <-157        -0.10924
 This state for optimization and/or second-order correction.
 Total Energy, E(TD-HF/TD-DFT) =  -1949.02997455
 Copying the excited state density for this state as the 1-particle RhoCI density.

 The electronic state is 1-A.
 Alpha  occ. eigenvalues --  -19.18068 -19.16049 -19.14976 -19.13638 -19.13356
 Alpha  occ. eigenvalues --  -19.12458 -14.37967 -14.37100 -14.34680 -14.30140
 Alpha  occ. eigenvalues --  -10.32671 -10.32334 -10.30342 -10.27921 -10.25823
 Alpha  occ. eigenvalues --  -10.24414 -10.23829 -10.23101 -10.22261 -10.22247
 Alpha  occ. eigenvalues --  -10.21961 -10.21523 -10.21515 -10.21370 -10.21130
 Alpha  occ. eigenvalues --  -10.20929 -10.20851 -10.20734 -10.20622 -10.20514
 Alpha  occ. eigenvalues --  -10.20341 -10.20175 -10.20168 -10.20164 -10.19867
 Alpha  occ. eigenvalues --  -10.19692 -10.19397 -10.19363 -10.18974 -10.18906
 Alpha  occ. eigenvalues --  -10.18648 -10.18267 -10.18234  -1.11851  -1.09084
 Alpha  occ. eigenvalues --   -1.08879  -1.03274  -1.02255  -1.01472  -0.97990
 Alpha  occ. eigenvalues --   -0.96814  -0.94486  -0.92259  -0.82721  -0.82204
 Alpha  occ. eigenvalues --   -0.82132  -0.80868  -0.80259  -0.78806  -0.77940
 Alpha  occ. eigenvalues --   -0.77528  -0.76660  -0.75164  -0.73907  -0.71910
 Alpha  occ. eigenvalues --   -0.70626  -0.69409  -0.69193  -0.68278  -0.67492
 Alpha  occ. eigenvalues --   -0.67230  -0.65227  -0.65107  -0.62922  -0.61145
 Alpha  occ. eigenvalues --   -0.60443  -0.59126  -0.58817  -0.56298  -0.55823
 Alpha  occ. eigenvalues --   -0.55458  -0.55058  -0.54544  -0.54060  -0.53420
 Alpha  occ. eigenvalues --   -0.52550  -0.52212  -0.51325  -0.50808  -0.50582
 Alpha  occ. eigenvalues --   -0.50068  -0.49281  -0.48497  -0.48221  -0.48032
 Alpha  occ. eigenvalues --   -0.47576  -0.46655  -0.46511  -0.45995  -0.45333
 Alpha  occ. eigenvalues --   -0.45120  -0.44762  -0.44576  -0.44108  -0.43802
 Alpha  occ. eigenvalues --   -0.43588  -0.42814  -0.42475  -0.42363  -0.42190
 Alpha  occ. eigenvalues --   -0.42007  -0.41339  -0.41164  -0.40709  -0.40549
 Alpha  occ. eigenvalues --   -0.40374  -0.40166  -0.39919  -0.39858  -0.39532
 Alpha  occ. eigenvalues --   -0.39461  -0.39147  -0.39063  -0.39029  -0.38871
 Alpha  occ. eigenvalues --   -0.38164  -0.37684  -0.37593  -0.37190  -0.37092
 Alpha  occ. eigenvalues --   -0.36158  -0.35979  -0.35457  -0.34886  -0.34812
 Alpha  occ. eigenvalues --   -0.34594  -0.34277  -0.33840  -0.33412  -0.32768
 Alpha  occ. eigenvalues --   -0.31923  -0.30832  -0.30748  -0.30449  -0.30151
 Alpha  occ. eigenvalues --   -0.29787  -0.28996  -0.27517  -0.26727  -0.26410
 Alpha  occ. eigenvalues --   -0.25348  -0.25050  -0.24803  -0.24018  -0.21441
 Alpha  occ. eigenvalues --   -0.17700
 Alpha virt. eigenvalues --   -0.10212  -0.05788  -0.03870  -0.01104  -0.00923
 Alpha virt. eigenvalues --   -0.00293   0.02495   0.03171   0.03836   0.04321
 Alpha virt. eigenvalues --    0.04414   0.04838   0.05388   0.05522   0.06033

 Mulliken charges:
               1
     1  O   -0.250561
     2  O   -0.209535
     3  O   -0.186406
     4  O   -0.153363
     5  O   -0.188292
     6  O   -0.080200
     7  N   -0.119160
     8  N   -0.176992
     9  N   -0.147798
    10  N   -0.353227
    11  C   -0.076625
    12  C    0.020322
    13  C   -0.164897
    14  C    0.096552
    15  C   -0.051543
    16  C    0.127907
    17  C   -0.089260
    18  C   -0.101732
    19  C    0.035862
    20  C   -0.020635
    21  C    0.122291
    22  C    0.042690
    23  C    0.042398
    24  C    0.055502
    25  C   -0.115225
    26  C   -0.010740
    27  C    0.109894
    28  C    0.099929
    29  C   -0.097001
    30  C    0.044879
    31  C   -0.052830
    32  C   -0.004601
    33  C   -0.194465
    34  C    0.088376
    35  C   -0.069073
    36  C   -0.161882
    37  C    0.096519
    38  C   -0.008916
    39  C    0.174577
    40  C    0.048182
    41  C    0.167777
    42  C    0.109154
    43  C   -0.088715
    44  H    0.177551
    45  H    0.024842
    46  H   -0.021455
    47  H    0.019881
    48  H    0.041553
    49  H    0.033588
    50  H    0.038716
    51  H    0.019974
    52  H    0.163356
    53  H    0.048806
    54  H    0.050877
    55  H    0.024750
    56  H    0.144198
    57  H    0.022047
    58  H    0.044556
    59  H    0.080773
    60  H    0.046839
    61  H    0.022987
    62  H    0.034387
    63  H    0.025297
    64  H   -0.051245
    65  H    0.043044
    66  H    0.054604
    67  H    0.038902
    68  H    0.005523
    69  H    0.102032
    70  H   -0.005551
    71  H    0.016938
    72  H   -0.004018
    73  H    0.024346
    74  H    0.023572
    75  H    0.027479
    76  H   -0.015996
    77  H    0.008226
    78  H    0.030342
    79  H    0.048610
    80  H    0.174701
    81  H    0.125834
 Sum of Mulliken charges =  -0.00000

 Dipole moment (field-independent basis, Debye):
    X=              1.5714    Y=              1.0669    Z=              1.4969  Tot=              2.4183
 Quadrupole moment (field-independent basis, Debye-Ang):
   XX=           -255.0153   YY=           -242.1153   ZZ=           -255.6968
   XY=            -12.9351   XZ=             15.0606   YZ=             14.0060

 Normal termination of Gaussian 16 at Fri Jul  5 16:01:17 2019.
