 Gaussian 16, Revision A.03,
 Gaussian 16:  ES64L-G16RevA.03 25-Dec-2016

 --------------------------
 # td=(NStates=1) B3LYP/SVP
 --------------------------

 --
 TD
 --
 Symbolic Z-matrix:
 Charge =  0 Multiplicity = 1

                         Standard orientation:
 ---------------------------------------------------------------------
 Center     Atomic      Atomic             Coordinates (Angstroms)
 Number     Number       Type             X           Y           Z
 ---------------------------------------------------------------------
      1          8           0        4.419321   -4.743662   -1.922846
      2          8           0       -3.083092   -4.762445   -1.227520
      3          8           0       -7.108263   -1.611937   -1.823073
      4          8           0       -3.774261   -3.093960    0.206421
      5          8           0       -7.651890   -0.411755    0.011481
      6          8           0        2.967943    2.484138    0.381207
      7          7           0        0.269879   -0.512072    0.711559
      8          7           0       -1.543037    1.662019    0.397669
      9          7           0        3.391223   -3.134253   -0.667714
     10          7           0        0.733634    2.885412    0.110424
     11          6           0       -0.483989   -2.444835    1.514934
     12          6           0       -0.905550   -1.142761    1.050329
     13          6           0        0.909527   -2.596411    1.362140
     14          6           0        1.349702   -1.433460    0.730441
     15          6           0       -3.816542    1.471182    0.430086
     16          6           0       -2.544517    0.770393    0.594077
     17          6           0       -2.218505   -0.552342    0.974253
     18          6           0       -3.556252    2.736707   -0.129435
     19          6           0       -1.518187   -3.513615    1.838321
     20          6           0        5.547212   -2.601837   -1.410240
     21          6           0        3.692649   -1.837740   -0.119748
     22          6           0       -2.161771    2.926972    0.025694
     23          6           0        5.136577   -1.492051   -0.502377
     24          6           0       -5.119844    0.675925    0.390414
     25          6           0        2.675655   -0.982674    0.384332
     26          6           0        1.701703   -3.794456    1.819003
     27          6           0        4.444830   -3.720737   -1.380965
     28          6           0       -1.952651   -4.635910    0.842586
     29          6           0       -5.507262   -0.158346   -0.798179
     30          6           0       -4.534298    3.702740   -0.563433
     31          6           0       -1.279778    4.048289   -0.255112
     32          6           0        6.841351   -3.171669   -1.260645
     33          6           0        5.838323   -0.495907    0.023161
     34          6           0        0.114317    4.033155   -0.174782
     35          6           0        0.977043    5.125773   -0.540815
     36          6           0        2.230280    4.701001   -0.386117
     37          6           0       -2.980813   -4.030209   -0.031752
     38          6           0        5.546423    0.477579    1.093718
     39          6           0       -6.770760   -0.732611   -0.840529
     40          6           0        3.544938    5.373223   -0.380679
     41          6           0        2.052834    3.222166    0.019924
     42          6           0        0.412018    6.443924   -0.868701
     43          6           0        4.206049    5.870190    0.968258
     44          1           0        0.155192    0.431701    0.105286
     45          1           0       -3.073535   -1.150355    1.070414
     46          1           0       -2.386929   -3.164456    2.209976
     47          1           0       -1.190241   -3.979586    2.843279
     48          1           0        5.464715   -2.298941   -2.405840
     49          1           0       -5.046727   -0.061331    1.220286
     50          1           0       -6.189587    1.288286    0.563988
     51          1           0        2.820370    0.106434    0.505980
     52          1           0       -0.459990    1.745954    0.698437
     53          1           0        1.800651   -4.664179    1.238105
     54          1           0        2.807906   -3.636503    1.982265
     55          1           0        1.089223   -4.372251    2.675210
     56          1           0        2.441725   -3.603301   -0.742346
     57          1           0       -1.224346   -5.048213    0.335032
     58          1           0       -2.309832   -5.347725    1.280510
     59          1           0       -4.923465   -1.019482   -1.083722
     60          1           0       -5.475791    0.567167   -1.743096
     61          1           0       -4.820619    4.477995    0.308175
     62          1           0       -5.564054    3.205350   -0.507294
     63          1           0       -4.243722    4.373050   -1.632589
     64          1           0       -1.894421    4.826247   -0.813606
     65          1           0        7.755521   -2.563247   -1.193247
     66          1           0        7.092681   -4.002311   -2.018518
     67          1           0        6.853998   -3.571773   -0.141554
     68          1           0        6.955941   -0.613649   -0.329675
     69          1           0        5.247008    1.465456    0.692641
     70          1           0        6.429265    0.834961    1.470009
     71          1           0        4.928758    0.143312    1.812974
     72          1           0        3.550368    6.262208   -0.973890
     73          1           0        4.195678    4.643503   -0.672351
     74          1           0       -0.342416    6.494389   -1.770672
     75          1           0        1.282192    7.102891   -1.066159
     76          1           0       -0.060082    6.762747    0.085703
     77          1           0        3.511632    6.600694    1.466051
     78          1           0        5.118750    6.232201    0.655637
     79          1           0        4.427318    5.043304    1.851824
     80          1           0       -4.069561   -4.409126   -1.514447
     81          1           0       -7.997797   -1.742092   -1.840678
 ---------------------------------------------------------------------

 SCF Done:  E(RB3LYP) =  -1949.05580588     A.U. after   17 cycles

 Excitation energies and oscillator strengths:

 Excited State   1:      Singlet-A      1.7541 eV  706.82 nm  f=0.3884  <S**2>=0.000
     156 ->157         0.71229
     156 <-157        -0.13915
 This state for optimization and/or second-order correction.
 Total Energy, E(TD-HF/TD-DFT) =  -1948.99134344
 Copying the excited state density for this state as the 1-particle RhoCI density.

 The electronic state is 1-A.
 Alpha  occ. eigenvalues --  -19.20015 -19.18289 -19.15630 -19.12185 -19.11508
 Alpha  occ. eigenvalues --  -19.09470 -14.37648 -14.37101 -14.35620 -14.28723
 Alpha  occ. eigenvalues --  -10.34435 -10.32040 -10.29226 -10.25702 -10.25289
 Alpha  occ. eigenvalues --  -10.24035 -10.23740 -10.23366 -10.23348 -10.22546
 Alpha  occ. eigenvalues --  -10.21873 -10.21578 -10.21464 -10.21110 -10.21107
 Alpha  occ. eigenvalues --  -10.20649 -10.20625 -10.20449 -10.20400 -10.20200
 Alpha  occ. eigenvalues --  -10.20191 -10.20117 -10.19991 -10.19838 -10.19478
 Alpha  occ. eigenvalues --  -10.19313 -10.19086 -10.18912 -10.18905 -10.18650
 Alpha  occ. eigenvalues --  -10.18438 -10.18064 -10.16446  -1.10019  -1.08750
 Alpha  occ. eigenvalues --   -1.06926  -1.00605  -1.00188  -0.98450  -0.97267
 Alpha  occ. eigenvalues --   -0.95888  -0.93954  -0.92487  -0.83047  -0.82462
 Alpha  occ. eigenvalues --   -0.82384  -0.81125  -0.80426  -0.79579  -0.78618
 Alpha  occ. eigenvalues --   -0.77885  -0.76769  -0.75840  -0.73949  -0.72448
 Alpha  occ. eigenvalues --   -0.71656  -0.70239  -0.69128  -0.68715  -0.68036
 Alpha  occ. eigenvalues --   -0.67070  -0.65127  -0.65055  -0.62709  -0.61378
 Alpha  occ. eigenvalues --   -0.60668  -0.59757  -0.58127  -0.57322  -0.57058
 Alpha  occ. eigenvalues --   -0.55905  -0.54978  -0.54003  -0.53138  -0.52395
 Alpha  occ. eigenvalues --   -0.52211  -0.51903  -0.51498  -0.50933  -0.50312
 Alpha  occ. eigenvalues --   -0.49953  -0.49515  -0.49103  -0.48512  -0.47846
 Alpha  occ. eigenvalues --   -0.47362  -0.46889  -0.46133  -0.45204  -0.45029
 Alpha  occ. eigenvalues --   -0.44525  -0.44512  -0.44314  -0.44173  -0.43904
 Alpha  occ. eigenvalues --   -0.43832  -0.43565  -0.43334  -0.42888  -0.42421
 Alpha  occ. eigenvalues --   -0.42227  -0.41837  -0.41691  -0.41145  -0.40924
 Alpha  occ. eigenvalues --   -0.40597  -0.40408  -0.40041  -0.39980  -0.39664
 Alpha  occ. eigenvalues --   -0.39450  -0.39177  -0.39107  -0.38636  -0.38262
 Alpha  occ. eigenvalues --   -0.37777  -0.37554  -0.36905  -0.36805  -0.36543
 Alpha  occ. eigenvalues --   -0.36318  -0.36150  -0.35105  -0.34844  -0.34745
 Alpha  occ. eigenvalues --   -0.34418  -0.34013  -0.33705  -0.33578  -0.33506
 Alpha  occ. eigenvalues --   -0.32574  -0.32529  -0.31355  -0.30690  -0.29362
 Alpha  occ. eigenvalues --   -0.28368  -0.27476  -0.26948  -0.26114  -0.25479
 Alpha  occ. eigenvalues --   -0.25310  -0.24884  -0.24056  -0.23100  -0.21272
 Alpha  occ. eigenvalues --   -0.17506
 Alpha virt. eigenvalues --   -0.10763  -0.05564  -0.03979  -0.03282  -0.01320
 Alpha virt. eigenvalues --    0.01452   0.01630   0.02004   0.02741   0.03534
 Alpha virt. eigenvalues --    0.03628   0.04204   0.05111   0.05919   0.06280

 Mulliken charges:
               1
     1  O   -0.135878
     2  O   -0.263341
     3  O   -0.147606
     4  O   -0.257301
     5  O   -0.292057
     6  O   -0.221280
     7  N   -0.163429
     8  N   -0.210873
     9  N   -0.201519
    10  N   -0.268592
    11  C   -0.090070
    12  C    0.072101
    13  C   -0.098692
    14  C    0.067323
    15  C   -0.016764
    16  C    0.044829
    17  C    0.008048
    18  C   -0.084569
    19  C    0.055542
    20  C    0.027192
    21  C    0.082844
    22  C    0.069279
    23  C   -0.003165
    24  C   -0.011488
    25  C   -0.094375
    26  C    0.065295
    27  C    0.095457
    28  C    0.315557
    29  C    0.058899
    30  C   -0.015756
    31  C   -0.135142
    32  C   -0.015513
    33  C   -0.210112
    34  C    0.113412
    35  C   -0.110926
    36  C   -0.172763
    37  C    0.143760
    38  C    0.218082
    39  C    0.105237
    40  C    0.129781
    41  C    0.126430
    42  C    0.097695
    43  C   -0.033590
    44  H    0.188954
    45  H   -0.027342
    46  H   -0.030083
    47  H   -0.003806
    48  H    0.014344
    49  H    0.027927
    50  H    0.062162
    51  H    0.039540
    52  H    0.202501
    53  H   -0.006145
    54  H    0.035819
    55  H    0.019129
    56  H    0.154633
    57  H   -0.032950
    58  H   -0.060148
    59  H    0.022331
    60  H    0.056314
    61  H    0.044908
    62  H    0.017540
    63  H    0.067873
    64  H   -0.015806
    65  H    0.016094
    66  H    0.041397
    67  H    0.006259
    68  H    0.005281
    69  H    0.041253
    70  H   -0.034825
    71  H    0.003653
    72  H   -0.009254
    73  H   -0.016085
    74  H    0.045219
    75  H    0.006651
    76  H    0.031870
    77  H    0.019004
    78  H    0.007926
    79  H    0.037393
    80  H    0.228809
    81  H    0.149698
 Sum of Mulliken charges =  -0.00000

 Dipole moment (field-independent basis, Debye):
    X=             -1.7715    Y=             -0.1676    Z=             -1.2329  Tot=              2.1648
 Quadrupole moment (field-independent basis, Debye-Ang):
   XX=           -250.3161   YY=           -234.6729   ZZ=           -256.2687
   XY=             17.0612   XZ=             16.5054   YZ=            -14.6172

 Normal termination of Gaussian 16 at Thu Jun 27 18:20:44 2019.
