 Gaussian 16, Revision A.03,
 Gaussian 16:  ES64L-G16RevA.03 25-Dec-2016

 --------------------------
 # td=(NStates=1) B3LYP/SVP
 --------------------------

 --
 TD
 --
 Symbolic Z-matrix:
 Charge =  0 Multiplicity = 1

                         Standard orientation:
 ---------------------------------------------------------------------
 Center     Atomic      Atomic             Coordinates (Angstroms)
 Number     Number       Type             X           Y           Z
 ---------------------------------------------------------------------
      1          8           0        4.569142   -4.826549   -1.838684
      2          8           0       -3.174650   -4.697238   -1.203464
      3          8           0       -7.048110   -1.529221   -1.792238
      4          8           0       -3.833424   -3.045225    0.020993
      5          8           0       -7.409136   -0.819512    0.301875
      6          8           0        3.006794    2.449005    0.290993
      7          7           0        0.256829   -0.464401    0.505076
      8          7           0       -1.550251    1.818079    0.413446
      9          7           0        3.474948   -3.182465   -0.587258
     10          7           0        0.794620    2.917214    0.101456
     11          6           0       -0.661880   -2.484131    1.235289
     12          6           0       -0.907026   -1.074467    0.808128
     13          6           0        0.729600   -2.583376    1.234560
     14          6           0        1.334713   -1.381132    0.811325
     15          6           0       -3.832111    1.434774    0.294781
     16          6           0       -2.528733    0.833697    0.415397
     17          6           0       -2.225679   -0.515065    0.679916
     18          6           0       -3.550773    2.784560   -0.074941
     19          6           0       -1.708161   -3.360723    1.811408
     20          6           0        5.547242   -2.563915   -1.324235
     21          6           0        3.661899   -1.761756   -0.098356
     22          6           0       -2.138137    2.973132   -0.067512
     23          6           0        5.130514   -1.585490   -0.339715
     24          6           0       -5.099134    0.786059    0.448680
     25          6           0        2.691910   -1.037635    0.439943
     26          6           0        1.393812   -3.923496    1.744386
     27          6           0        4.483207   -3.739453   -1.328884
     28          6           0       -2.143282   -4.557506    0.935100
     29          6           0       -5.403295   -0.040008   -0.799618
     30          6           0       -4.567730    3.829924   -0.576598
     31          6           0       -1.224763    4.025465   -0.323577
     32          6           0        7.000975   -3.227904   -1.201735
     33          6           0        5.987902   -0.650125    0.180077
     34          6           0        0.094413    3.979626   -0.307769
     35          6           0        0.988541    5.123143   -0.463823
     36          6           0        2.226025    4.701480   -0.274054
     37          6           0       -3.134863   -3.974764   -0.149131
     38          6           0        5.526257    0.238247    1.221047
     39          6           0       -6.708360   -0.785977   -0.642871
     40          6           0        3.558896    5.348557   -0.389812
     41          6           0        2.095645    3.234355    0.061467
     42          6           0        0.610427    6.573171   -0.809826
     43          6           0        4.062068    5.760615    1.058154
     44          1           0        0.411527    0.448483   -0.073574
     45          1           0       -3.153091   -1.067401    0.718885
     46          1           0       -2.650978   -2.679817    1.891845
     47          1           0       -1.467912   -3.796948    2.930384
     48          1           0        5.450812   -2.054576   -2.277976
     49          1           0       -5.193448    0.253792    1.569108
     50          1           0       -5.971202    1.449761    0.794529
     51          1           0        2.887413    0.055431    0.524387
     52          1           0       -0.614250    1.687531    0.453639
     53          1           0        1.191203   -4.798603    1.101736
     54          1           0        2.568844   -3.869921    1.937416
     55          1           0        1.021363   -4.156972    2.661191
     56          1           0        2.308410   -3.444565   -0.460419
     57          1           0       -1.335389   -4.986805    0.414775
     58          1           0       -2.710431   -5.289118    1.640584
     59          1           0       -4.581558   -0.719870   -1.018968
     60          1           0       -5.253536    0.498418   -1.756047
     61          1           0       -4.445406    4.566599    0.051523
     62          1           0       -5.574348    3.515598   -0.576708
     63          1           0       -4.190927    4.158663   -1.704273
     64          1           0       -1.817577    4.774919   -0.637437
     65          1           0        7.638396   -2.474263   -1.296666
     66          1           0        7.179231   -4.232317   -1.841114
     67          1           0        7.155021   -3.346371   -0.241534
     68          1           0        7.053258   -0.708135   -0.121615
     69          1           0        4.782987    1.091399    0.788549
     70          1           0        6.523943    0.781305    1.722777
     71          1           0        4.936558   -0.416475    2.013604
     72          1           0        3.643793    6.085280   -1.071023
     73          1           0        4.502521    4.720999   -0.860553
     74          1           0       -0.304438    6.506716   -1.453630
     75          1           0        1.408816    7.139537   -1.371913
     76          1           0        0.275282    7.140420    0.099374
     77          1           0        3.313999    6.343357    1.719839
     78          1           0        4.996850    6.363655    0.909315
     79          1           0        4.314993    4.800242    1.619232
     80          1           0       -3.846415   -4.573151   -1.770359
     81          1           0       -7.912991   -1.915144   -1.536930
 ---------------------------------------------------------------------

 SCF Done:  E(RB3LYP) =  -1949.08127305     A.U. after   18 cycles

 Excitation energies and oscillator strengths:

 Excited State   1:      Singlet-A      1.8350 eV  675.66 nm  f=0.3806  <S**2>=0.000
     156 ->157         0.71022
     156 <-157        -0.12839
 This state for optimization and/or second-order correction.
 Total Energy, E(TD-HF/TD-DFT) =  -1949.01383724
 Copying the excited state density for this state as the 1-particle RhoCI density.

 The electronic state is 1-A.
 Alpha  occ. eigenvalues --  -19.20009 -19.17519 -19.14296 -19.14294 -19.10269
 Alpha  occ. eigenvalues --  -19.09075 -14.39355 -14.36696 -14.35767 -14.27492
 Alpha  occ. eigenvalues --  -10.33625 -10.32820 -10.28380 -10.24856 -10.24832
 Alpha  occ. eigenvalues --  -10.24591 -10.24480 -10.24315 -10.23608 -10.22402
 Alpha  occ. eigenvalues --  -10.22224 -10.22218 -10.21958 -10.21739 -10.21624
 Alpha  occ. eigenvalues --  -10.21522 -10.21380 -10.20974 -10.20827 -10.20429
 Alpha  occ. eigenvalues --  -10.20347 -10.19718 -10.19491 -10.19376 -10.19335
 Alpha  occ. eigenvalues --  -10.19250 -10.19193 -10.18744 -10.18643 -10.18589
 Alpha  occ. eigenvalues --  -10.17515 -10.17403 -10.16683  -1.15360  -1.10171
 Alpha  occ. eigenvalues --   -1.04899  -1.02404  -1.01098  -1.00554  -0.98941
 Alpha  occ. eigenvalues --   -0.97551  -0.92397  -0.92132  -0.83853  -0.82298
 Alpha  occ. eigenvalues --   -0.81568  -0.80761  -0.79589  -0.79233  -0.78212
 Alpha  occ. eigenvalues --   -0.77717  -0.76636  -0.74563  -0.73701  -0.72912
 Alpha  occ. eigenvalues --   -0.71963  -0.70358  -0.69617  -0.69424  -0.68134
 Alpha  occ. eigenvalues --   -0.67593  -0.65837  -0.64128  -0.62690  -0.61355
 Alpha  occ. eigenvalues --   -0.60754  -0.59295  -0.58704  -0.58039  -0.57275
 Alpha  occ. eigenvalues --   -0.56938  -0.55968  -0.54883  -0.53853  -0.53191
 Alpha  occ. eigenvalues --   -0.52078  -0.51974  -0.51327  -0.51081  -0.50593
 Alpha  occ. eigenvalues --   -0.50148  -0.49525  -0.48832  -0.48632  -0.47993
 Alpha  occ. eigenvalues --   -0.47252  -0.46915  -0.46059  -0.45950  -0.45490
 Alpha  occ. eigenvalues --   -0.44716  -0.44537  -0.44526  -0.43937  -0.43314
 Alpha  occ. eigenvalues --   -0.43122  -0.43017  -0.42534  -0.42416  -0.42086
 Alpha  occ. eigenvalues --   -0.41899  -0.41439  -0.41298  -0.40872  -0.40799
 Alpha  occ. eigenvalues --   -0.40549  -0.40327  -0.39950  -0.39821  -0.39639
 Alpha  occ. eigenvalues --   -0.39371  -0.38959  -0.38749  -0.38633  -0.38352
 Alpha  occ. eigenvalues --   -0.37932  -0.37265  -0.37183  -0.36893  -0.36722
 Alpha  occ. eigenvalues --   -0.36551  -0.35890  -0.35300  -0.35193  -0.34733
 Alpha  occ. eigenvalues --   -0.34650  -0.34244  -0.33619  -0.33517  -0.33188
 Alpha  occ. eigenvalues --   -0.32794  -0.32018  -0.31564  -0.30265  -0.30002
 Alpha  occ. eigenvalues --   -0.29638  -0.26833  -0.26731  -0.25899  -0.25715
 Alpha  occ. eigenvalues --   -0.25544  -0.23911  -0.23478  -0.23124  -0.21707
 Alpha  occ. eigenvalues --   -0.18378
 Alpha virt. eigenvalues --   -0.11232  -0.05340  -0.03869  -0.00889  -0.00410
 Alpha virt. eigenvalues --    0.00782   0.01434   0.03034   0.03273   0.04211
 Alpha virt. eigenvalues --    0.04548   0.05440   0.05593   0.05684   0.05918

 Mulliken charges:
               1
     1  O   -0.201960
     2  O   -0.059142
     3  O   -0.242951
     4  O   -0.192922
     5  O   -0.182844
     6  O   -0.218545
     7  N   -0.132804
     8  N   -0.018828
     9  N   -0.264728
    10  N   -0.260660
    11  C   -0.056049
    12  C    0.089739
    13  C   -0.186092
    14  C    0.088823
    15  C   -0.035446
    16  C   -0.001273
    17  C   -0.038335
    18  C   -0.144678
    19  C   -0.023776
    20  C   -0.142093
    21  C    0.143072
    22  C    0.030740
    23  C   -0.005036
    24  C   -0.022605
    25  C   -0.117948
    26  C    0.071353
    27  C    0.170495
    28  C    0.029868
    29  C    0.032429
    30  C    0.157371
    31  C   -0.087988
    32  C    0.157758
    33  C   -0.095515
    34  C    0.184866
    35  C   -0.115285
    36  C   -0.132789
    37  C    0.061426
    38  C   -0.078770
    39  C    0.169651
    40  C    0.074481
    41  C    0.109394
    42  C    0.085129
    43  C   -0.053943
    44  H    0.184984
    45  H    0.014063
    46  H    0.044181
    47  H    0.039675
    48  H    0.037824
    49  H    0.053110
    50  H    0.024591
    51  H    0.035763
    52  H    0.053262
    53  H    0.032813
    54  H    0.052138
    55  H   -0.007808
    56  H    0.183840
    57  H    0.016284
    58  H    0.061624
    59  H    0.028988
    60  H    0.031802
    61  H   -0.012043
    62  H    0.005705
    63  H    0.049469
    64  H   -0.097952
    65  H   -0.041261
    66  H    0.069631
    67  H   -0.051780
    68  H   -0.003406
    69  H    0.120657
    70  H    0.025205
    71  H    0.054569
    72  H   -0.042458
    73  H    0.019411
    74  H    0.009825
    75  H    0.031254
    76  H    0.029919
    77  H    0.026854
    78  H    0.014437
    79  H    0.043807
    80  H    0.141380
    81  H    0.176053
 Sum of Mulliken charges =  -0.00000

 Dipole moment (field-independent basis, Debye):
    X=             -5.8367    Y=              0.3962    Z=             -0.7332  Tot=              5.8959
 Quadrupole moment (field-independent basis, Debye-Ang):
   XX=           -250.3589   YY=           -244.3111   ZZ=           -255.7613
   XY=             19.0626   XZ=             14.6001   YZ=            -14.2702

 Normal termination of Gaussian 16 at Wed Jul  3 03:00:07 2019.
