 Gaussian 16, Revision A.03,
 Gaussian 16:  ES64L-G16RevA.03 25-Dec-2016

 --------------------------
 # td=(NStates=1) B3LYP/SVP
 --------------------------

 --
 TD
 --
 Symbolic Z-matrix:
 Charge =  0 Multiplicity = 1

                         Standard orientation:
 ---------------------------------------------------------------------
 Center     Atomic      Atomic             Coordinates (Angstroms)
 Number     Number       Type             X           Y           Z
 ---------------------------------------------------------------------
      1          8           0        4.486661   -4.786198   -1.814908
      2          8           0       -2.984059   -4.689825   -1.484655
      3          8           0       -7.269869   -1.343006   -1.757260
      4          8           0       -3.759427   -2.976407   -0.298071
      5          8           0       -7.582223   -0.407696    0.309727
      6          8           0        3.102779    2.317940    0.157068
      7          7           0        0.235028   -0.545485    0.588004
      8          7           0       -1.554266    1.821719    0.328396
      9          7           0        3.399229   -3.227623   -0.583508
     10          7           0        0.828762    2.856485    0.092602
     11          6           0       -0.730568   -2.465635    1.379229
     12          6           0       -0.985844   -1.065006    0.995660
     13          6           0        0.628656   -2.739843    1.166838
     14          6           0        1.220213   -1.544639    0.785413
     15          6           0       -3.802179    1.516267    0.355391
     16          6           0       -2.573341    0.917929    0.661685
     17          6           0       -2.300833   -0.424424    0.926092
     18          6           0       -3.476651    2.835600   -0.031893
     19          6           0       -1.805194   -3.511509    1.870081
     20          6           0        5.577497   -2.666479   -1.260015
     21          6           0        3.639566   -1.849947   -0.089958
     22          6           0       -2.066837    3.012104   -0.007842
     23          6           0        5.082486   -1.600156   -0.474373
     24          6           0       -5.193406    0.941167    0.377535
     25          6           0        2.585737   -1.201899    0.545588
     26          6           0        1.468978   -3.948283    1.712980
     27          6           0        4.477035   -3.709100   -1.270819
     28          6           0       -2.332009   -4.542488    0.823687
     29          6           0       -5.454769   -0.166937   -0.690431
     30          6           0       -4.544302    3.907819   -0.429319
     31          6           0       -1.173555    4.123575   -0.287207
     32          6           0        6.910563   -3.305694   -0.901793
     33          6           0        5.807118   -0.566051    0.158157
     34          6           0        0.134948    3.921364   -0.193742
     35          6           0        1.151611    5.101411   -0.483308
     36          6           0        2.397195    4.600879   -0.288844
     37          6           0       -3.130370   -3.997804   -0.287439
     38          6           0        5.460561    0.389978    1.115886
     39          6           0       -6.869741   -0.652592   -0.650601
     40          6           0        3.752495    5.234843   -0.466125
     41          6           0        2.209050    3.188186    0.008977
     42          6           0        0.733491    6.498563   -0.938730
     43          6           0        4.457764    5.713866    0.871855
     44          1           0        0.352022    0.421321    0.323481
     45          1           0       -3.015255   -0.991599    1.248628
     46          1           0       -2.730022   -2.975920    2.472018
     47          1           0       -1.347246   -4.080572    2.605265
     48          1           0        5.408670   -2.550958   -2.551781
     49          1           0       -5.415022    0.428935    1.256161
     50          1           0       -5.873456    1.688379    0.232512
     51          1           0        2.877449   -0.167154    0.749678
     52          1           0       -0.496993    1.902983    0.677442
     53          1           0        1.585191   -4.726247    0.963113
     54          1           0        2.365082   -3.394368    1.884819
     55          1           0        1.042607   -4.251554    2.570609
     56          1           0        2.464766   -3.666504   -0.807680
     57          1           0       -1.535516   -5.185958    0.283325
     58          1           0       -2.996714   -5.248609    1.302250
     59          1           0       -4.719949   -1.034513   -0.769829
     60          1           0       -5.229080    0.283388   -1.636751
     61          1           0       -4.470290    4.972098    0.298375
     62          1           0       -5.516128    3.790302   -0.095708
     63          1           0       -4.077741    4.195614   -1.600831
     64          1           0       -1.465962    5.030836   -0.497329
     65          1           0        7.830034   -2.726654   -0.787474
     66          1           0        6.951726   -4.171715   -1.604464
     67          1           0        6.790671   -3.947171    0.174308
     68          1           0        6.991937   -0.631349    0.132551
     69          1           0        5.088435    1.304859    0.659137
     70          1           0        6.263680    0.908884    1.641960
     71          1           0        4.815628    0.061541    1.998454
     72          1           0        3.848882    5.893449   -1.203535
     73          1           0        4.530956    4.598378   -0.815227
     74          1           0        0.317665    6.253899   -2.005993
     75          1           0        1.503443    7.198555   -1.096619
     76          1           0        0.049256    6.899869   -0.158202
     77          1           0        3.812612    6.463338    1.436441
     78          1           0        5.379817    6.071373    0.699869
     79          1           0        4.685615    4.858356    1.527637
     80          1           0       -3.725498   -4.459118   -1.953054
     81          1           0       -8.185617   -1.940921   -1.442940
 ---------------------------------------------------------------------

 SCF Done:  E(RB3LYP) =  -1949.07028460     A.U. after   16 cycles

 Excitation energies and oscillator strengths:

 Excited State   1:      Singlet-A      1.9593 eV  632.78 nm  f=0.4019  <S**2>=0.000
     156 ->157         0.70710
     156 <-157        -0.11059
 This state for optimization and/or second-order correction.
 Total Energy, E(TD-HF/TD-DFT) =  -1948.99827999
 Copying the excited state density for this state as the 1-particle RhoCI density.

 The electronic state is 1-A.
 Alpha  occ. eigenvalues --  -19.19125 -19.18120 -19.14663 -19.12410 -19.09844
 Alpha  occ. eigenvalues --  -19.09513 -14.37916 -14.36190 -14.35740 -14.28662
 Alpha  occ. eigenvalues --  -10.33480 -10.31828 -10.28072 -10.26128 -10.25360
 Alpha  occ. eigenvalues --  -10.24022 -10.23989 -10.23848 -10.23016 -10.22998
 Alpha  occ. eigenvalues --  -10.22918 -10.22483 -10.21858 -10.21610 -10.21296
 Alpha  occ. eigenvalues --  -10.21292 -10.21227 -10.21123 -10.20359 -10.20211
 Alpha  occ. eigenvalues --  -10.20155 -10.20152 -10.20031 -10.19871 -10.19777
 Alpha  occ. eigenvalues --  -10.19153 -10.18965 -10.18934 -10.18152 -10.17524
 Alpha  occ. eigenvalues --  -10.17442 -10.17261 -10.16997  -1.11381  -1.07550
 Alpha  occ. eigenvalues --   -1.03259  -1.02444  -0.99244  -0.99202  -0.98331
 Alpha  occ. eigenvalues --   -0.97101  -0.93290  -0.91410  -0.82237  -0.82168
 Alpha  occ. eigenvalues --   -0.81924  -0.80839  -0.79488  -0.79044  -0.78076
 Alpha  occ. eigenvalues --   -0.77008  -0.76711  -0.75690  -0.74400  -0.72763
 Alpha  occ. eigenvalues --   -0.70906  -0.69985  -0.69468  -0.69167  -0.67605
 Alpha  occ. eigenvalues --   -0.67247  -0.65341  -0.64149  -0.62714  -0.60985
 Alpha  occ. eigenvalues --   -0.60673  -0.58727  -0.57927  -0.57180  -0.56823
 Alpha  occ. eigenvalues --   -0.56274  -0.55451  -0.55143  -0.53672  -0.53010
 Alpha  occ. eigenvalues --   -0.52882  -0.52179  -0.51322  -0.50319  -0.50199
 Alpha  occ. eigenvalues --   -0.49523  -0.49056  -0.48201  -0.47651  -0.47483
 Alpha  occ. eigenvalues --   -0.46885  -0.46634  -0.46215  -0.45876  -0.45093
 Alpha  occ. eigenvalues --   -0.44899  -0.44395  -0.44297  -0.44169  -0.43935
 Alpha  occ. eigenvalues --   -0.43416  -0.42928  -0.42589  -0.42479  -0.42264
 Alpha  occ. eigenvalues --   -0.42183  -0.41874  -0.41377  -0.41196  -0.41024
 Alpha  occ. eigenvalues --   -0.40936  -0.40691  -0.40399  -0.40199  -0.39870
 Alpha  occ. eigenvalues --   -0.39661  -0.39177  -0.38896  -0.38126  -0.37947
 Alpha  occ. eigenvalues --   -0.37769  -0.37554  -0.37171  -0.36630  -0.36429
 Alpha  occ. eigenvalues --   -0.36140  -0.35889  -0.35465  -0.35204  -0.34661
 Alpha  occ. eigenvalues --   -0.34283  -0.33970  -0.33732  -0.33238  -0.32587
 Alpha  occ. eigenvalues --   -0.32341  -0.32033  -0.31329  -0.29995  -0.29500
 Alpha  occ. eigenvalues --   -0.27938  -0.26654  -0.26402  -0.25995  -0.25539
 Alpha  occ. eigenvalues --   -0.24680  -0.24317  -0.23904  -0.23723  -0.21428
 Alpha  occ. eigenvalues --   -0.18184
 Alpha virt. eigenvalues --   -0.10413  -0.05591  -0.04340  -0.02021  -0.00745
 Alpha virt. eigenvalues --   -0.00121   0.01110   0.02175   0.03477   0.03719
 Alpha virt. eigenvalues --    0.03817   0.04379   0.05142   0.05413   0.05856

 Mulliken charges:
               1
     1  O   -0.215176
     2  O   -0.173094
     3  O   -0.270640
     4  O   -0.195831
     5  O   -0.244722
     6  O   -0.243884
     7  N   -0.081140
     8  N   -0.149861
     9  N   -0.182774
    10  N   -0.298332
    11  C   -0.117000
    12  C    0.023872
    13  C   -0.201335
    14  C    0.124788
    15  C   -0.086024
    16  C    0.084366
    17  C    0.086805
    18  C   -0.130184
    19  C    0.109256
    20  C   -0.088698
    21  C    0.080096
    22  C    0.107379
    23  C    0.053029
    24  C    0.256154
    25  C   -0.121632
    26  C    0.188261
    27  C    0.065380
    28  C    0.018862
    29  C   -0.070086
    30  C    0.006246
    31  C   -0.076395
    32  C    0.011474
    33  C   -0.152287
    34  C    0.115295
    35  C   -0.162357
    36  C   -0.109515
    37  C    0.104732
    38  C    0.080776
    39  C    0.172003
    40  C    0.144106
    41  C    0.158808
    42  C    0.103238
    43  C    0.012725
    44  H    0.122499
    45  H   -0.099831
    46  H    0.044152
    47  H   -0.018618
    48  H    0.075764
    49  H   -0.005489
    50  H   -0.039596
    51  H    0.015035
    52  H    0.199052
    53  H    0.020501
    54  H    0.022759
    55  H   -0.014811
    56  H    0.155088
    57  H    0.056068
    58  H    0.039214
    59  H    0.073310
    60  H    0.009610
    61  H    0.023827
    62  H    0.012552
    63  H    0.072127
    64  H   -0.117743
    65  H    0.037342
    66  H    0.037999
    67  H    0.024709
    68  H    0.022510
    69  H    0.054629
    70  H   -0.015974
    71  H    0.037722
    72  H   -0.049062
    73  H   -0.022334
    74  H    0.047736
    75  H   -0.000304
    76  H    0.043036
    77  H    0.016398
    78  H   -0.022445
    79  H    0.014247
    80  H    0.144712
    81  H    0.246925
 Sum of Mulliken charges =  -0.00000

 Dipole moment (field-independent basis, Debye):
    X=             -2.7927    Y=             -0.1783    Z=              1.0444  Tot=              2.9869
 Quadrupole moment (field-independent basis, Debye-Ang):
   XX=           -246.2574   YY=           -236.8246   ZZ=           -255.1362
   XY=             29.8055   XZ=             13.1560   YZ=            -15.3758

 Normal termination of Gaussian 16 at Fri Jul  5 11:54:56 2019.
