 Gaussian 16, Revision A.03,
 Gaussian 16:  ES64L-G16RevA.03 25-Dec-2016

 --------------------------
 # td=(NStates=1) B3LYP/SVP
 --------------------------

 --
 TD
 --
 Symbolic Z-matrix:
 Charge =  0 Multiplicity = 1

                         Standard orientation:
 ---------------------------------------------------------------------
 Center     Atomic      Atomic             Coordinates (Angstroms)
 Number     Number       Type             X           Y           Z
 ---------------------------------------------------------------------
      1          8           0        4.619327   -4.854262   -1.885782
      2          8           0       -2.998402   -4.933042   -1.215475
      3          8           0       -7.231103   -1.729169   -1.569891
      4          8           0       -3.767482   -3.209847    0.059510
      5          8           0       -7.566740   -0.566138    0.381849
      6          8           0        2.988428    2.425423    0.171803
      7          7           0        0.304503   -0.562393    0.656306
      8          7           0       -1.532627    1.844506    0.243582
      9          7           0        3.404140   -3.254906   -0.635497
     10          7           0        0.739078    3.017285    0.095487
     11          6           0       -0.593907   -2.447197    1.348216
     12          6           0       -0.852660   -1.085266    0.981179
     13          6           0        0.785608   -2.590732    1.295778
     14          6           0        1.416949   -1.386615    0.770507
     15          6           0       -3.784335    1.439100    0.151827
     16          6           0       -2.540416    0.864970    0.442930
     17          6           0       -2.105901   -0.479415    0.826721
     18          6           0       -3.624027    2.755930   -0.184413
     19          6           0       -1.514205   -3.450891    1.862071
     20          6           0        5.522102   -2.683864   -1.270997
     21          6           0        3.574828   -1.912495   -0.172807
     22          6           0       -2.177420    3.023572   -0.113204
     23          6           0        5.029050   -1.555648   -0.350970
     24          6           0       -5.066957    0.694762    0.320029
     25          6           0        2.680522   -1.037583    0.482582
     26          6           0        1.557912   -3.775504    1.701890
     27          6           0        4.509537   -3.704544   -1.395005
     28          6           0       -1.921971   -4.484743    0.812551
     29          6           0       -5.509463   -0.268620   -0.792844
     30          6           0       -4.657169    3.741710   -0.628658
     31          6           0       -1.331186    4.158891   -0.356417
     32          6           0        7.069940   -3.113017   -1.155119
     33          6           0        5.753100   -0.521052    0.243177
     34          6           0        0.010192    4.136072   -0.258909
     35          6           0        0.975377    5.189453   -0.514108
     36          6           0        2.289486    4.689210   -0.337298
     37          6           0       -2.991796   -4.059476   -0.239397
     38          6           0        5.475833    0.488731    1.308153
     39          6           0       -6.795424   -0.845104   -0.508980
     40          6           0        3.563940    5.348478   -0.399068
     41          6           0        2.078060    3.226838    0.007051
     42          6           0        0.560635    6.570499   -0.879291
     43          6           0        4.020747    5.841803    1.069676
     44          1           0        0.588386    0.543570    0.493171
     45          1           0       -2.899940   -1.054460    0.928716
     46          1           0       -2.374264   -2.940589    2.383260
     47          1           0       -1.040975   -4.229732    2.646400
     48          1           0        5.525777   -2.280179   -2.337417
     49          1           0       -5.133491    0.184999    1.418889
     50          1           0       -5.827301    1.465600    0.418234
     51          1           0        2.842817    0.034145    0.679041
     52          1           0       -0.489124    2.088289    0.393269
     53          1           0        1.503649   -4.676378    0.990370
     54          1           0        2.623454   -3.636600    1.910520
     55          1           0        1.044573   -4.157307    2.515928
     56          1           0        2.462041   -3.639193   -0.789382
     57          1           0       -1.110116   -5.063045    0.450357
     58          1           0       -2.456457   -5.255986    1.405731
     59          1           0       -4.901829   -1.149791   -0.715273
     60          1           0       -5.352817    0.063955   -1.854918
     61          1           0       -4.603617    4.675410   -0.000619
     62          1           0       -5.636032    3.323125   -0.350814
     63          1           0       -4.470073    3.826140   -1.749386
     64          1           0       -1.721272    5.365001   -0.438122
     65          1           0        7.534615   -2.363150   -1.305409
     66          1           0        7.059407   -3.924968   -1.826615
     67          1           0        7.257617   -3.347613   -0.181812
     68          1           0        6.840464   -0.754545   -0.044321
     69          1           0        5.023374    1.490779    0.917108
     70          1           0        6.509326    0.981785    1.523423
     71          1           0        4.713815    0.150115    1.939399
     72          1           0        3.509534    6.089168   -1.225203
     73          1           0        4.082828    4.369164   -0.722401
     74          1           0        0.074199    6.725989   -1.898625
     75          1           0        1.321613    7.350895   -1.040524
     76          1           0       -0.074795    7.234107   -0.227604
     77          1           0        3.196763    6.790855    1.403890
     78          1           0        5.114240    6.107811    1.291517
     79          1           0        3.895226    5.173201    2.009003
     80          1           0       -3.653196   -4.482835   -1.971993
     81          1           0       -8.178208   -2.062398   -1.494156
 ---------------------------------------------------------------------

 SCF Done:  E(RB3LYP) =  -1949.06147951     A.U. after   17 cycles

 Excitation energies and oscillator strengths:

 Excited State   1:      Singlet-A      1.8517 eV  669.59 nm  f=0.4278  <S**2>=0.000
     156 ->157         0.70722
     156 <-157        -0.12948
 This state for optimization and/or second-order correction.
 Total Energy, E(TD-HF/TD-DFT) =  -1948.99343260
 Copying the excited state density for this state as the 1-particle RhoCI density.

 The electronic state is 1-A.
 Alpha  occ. eigenvalues --  -19.21818 -19.16041 -19.14809 -19.13033 -19.11888
 Alpha  occ. eigenvalues --  -19.09509 -14.38658 -14.38279 -14.34536 -14.27872
 Alpha  occ. eigenvalues --  -10.33682 -10.32108 -10.30383 -10.26081 -10.25437
 Alpha  occ. eigenvalues --  -10.23749 -10.23539 -10.23364 -10.23279 -10.21862
 Alpha  occ. eigenvalues --  -10.21528 -10.21431 -10.21351 -10.21335 -10.21139
 Alpha  occ. eigenvalues --  -10.21065 -10.21012 -10.20962 -10.20761 -10.20273
 Alpha  occ. eigenvalues --  -10.19996 -10.19871 -10.19838 -10.19787 -10.19636
 Alpha  occ. eigenvalues --  -10.19629 -10.19580 -10.19552 -10.19175 -10.19105
 Alpha  occ. eigenvalues --  -10.19016 -10.18197 -10.17003  -1.12214  -1.06499
 Alpha  occ. eigenvalues --   -1.03994  -1.02420  -1.00554  -0.99446  -0.98191
 Alpha  occ. eigenvalues --   -0.96000  -0.94867  -0.90763  -0.82923  -0.82484
 Alpha  occ. eigenvalues --   -0.82055  -0.81748  -0.79115  -0.78833  -0.78138
 Alpha  occ. eigenvalues --   -0.77687  -0.76823  -0.75538  -0.73951  -0.72261
 Alpha  occ. eigenvalues --   -0.71722  -0.71370  -0.69486  -0.68121  -0.67688
 Alpha  occ. eigenvalues --   -0.66724  -0.66566  -0.65163  -0.62751  -0.61612
 Alpha  occ. eigenvalues --   -0.60872  -0.59234  -0.58359  -0.58054  -0.56078
 Alpha  occ. eigenvalues --   -0.55793  -0.55076  -0.54775  -0.53680  -0.52709
 Alpha  occ. eigenvalues --   -0.52372  -0.51982  -0.51613  -0.51016  -0.50543
 Alpha  occ. eigenvalues --   -0.49763  -0.49573  -0.48801  -0.48413  -0.47457
 Alpha  occ. eigenvalues --   -0.46988  -0.46566  -0.46382  -0.45957  -0.45483
 Alpha  occ. eigenvalues --   -0.44905  -0.44851  -0.44556  -0.44153  -0.44075
 Alpha  occ. eigenvalues --   -0.43776  -0.43451  -0.42992  -0.42748  -0.42324
 Alpha  occ. eigenvalues --   -0.41726  -0.41450  -0.41273  -0.41118  -0.40718
 Alpha  occ. eigenvalues --   -0.40395  -0.40202  -0.39998  -0.39896  -0.39347
 Alpha  occ. eigenvalues --   -0.39229  -0.38952  -0.38597  -0.38442  -0.38219
 Alpha  occ. eigenvalues --   -0.37881  -0.37692  -0.37586  -0.36654  -0.36389
 Alpha  occ. eigenvalues --   -0.35976  -0.35809  -0.35428  -0.35336  -0.35129
 Alpha  occ. eigenvalues --   -0.34805  -0.33869  -0.33777  -0.33013  -0.32950
 Alpha  occ. eigenvalues --   -0.32729  -0.31553  -0.31292  -0.29924  -0.29570
 Alpha  occ. eigenvalues --   -0.28066  -0.27398  -0.26836  -0.26341  -0.25450
 Alpha  occ. eigenvalues --   -0.25176  -0.24788  -0.23671  -0.22137  -0.21267
 Alpha  occ. eigenvalues --   -0.17895
 Alpha virt. eigenvalues --   -0.10749  -0.06182  -0.04390  -0.01596  -0.01404
 Alpha virt. eigenvalues --   -0.00476  -0.00092   0.02130   0.02723   0.03934
 Alpha virt. eigenvalues --    0.04312   0.04838   0.05141   0.05291   0.05431

 Mulliken charges:
               1
     1  O   -0.242532
     2  O   -0.193734
     3  O   -0.306245
     4  O   -0.196274
     5  O   -0.209975
     6  O   -0.241127
     7  N   -0.089846
     8  N   -0.168693
     9  N   -0.158955
    10  N   -0.345499
    11  C   -0.034211
    12  C    0.087231
    13  C   -0.178404
    14  C    0.094030
    15  C   -0.033595
    16  C    0.053300
    17  C    0.036157
    18  C   -0.155306
    19  C    0.028676
    20  C   -0.120272
    21  C    0.099261
    22  C    0.060319
    23  C   -0.042687
    24  C    0.022484
    25  C   -0.143240
    26  C    0.116618
    27  C    0.146644
    28  C    0.012702
    29  C    0.069395
    30  C    0.110773
    31  C   -0.129059
    32  C    0.245158
    33  C   -0.140911
    34  C    0.068190
    35  C   -0.014171
    36  C   -0.191881
    37  C    0.133642
    38  C    0.083944
    39  C    0.156262
    40  C    0.064552
    41  C    0.156609
    42  C    0.015126
    43  C   -0.079722
    44  H    0.204900
    45  H   -0.098285
    46  H    0.028384
    47  H    0.026175
    48  H    0.060250
    49  H    0.048629
    50  H   -0.000816
    51  H    0.030920
    52  H    0.163288
    53  H    0.014060
    54  H    0.031218
    55  H   -0.020788
    56  H    0.149595
    57  H    0.002367
    58  H    0.033813
    59  H    0.024033
    60  H    0.053287
    61  H    0.033441
    62  H    0.002995
    63  H    0.054379
    64  H    0.027980
    65  H   -0.067103
    66  H    0.026852
    67  H   -0.010911
    68  H    0.001657
    69  H    0.072912
    70  H    0.030975
    71  H    0.023534
    72  H    0.022735
    73  H    0.037656
    74  H    0.015202
    75  H   -0.012864
    76  H    0.020529
    77  H    0.026304
    78  H    0.030946
    79  H    0.032896
    80  H    0.235260
    81  H    0.198858
 Sum of Mulliken charges =  -0.00000

 Dipole moment (field-independent basis, Debye):
    X=             -1.7290    Y=             -0.8530    Z=             -0.8214  Tot=              2.0956
 Quadrupole moment (field-independent basis, Debye-Ang):
   XX=           -252.0691   YY=           -248.5029   ZZ=           -252.6934
   XY=             15.4091   XZ=             18.2685   YZ=             -7.9943

 Normal termination of Gaussian 16 at Thu Jul  4 19:37:17 2019.
