 Gaussian 16, Revision A.03,
 Gaussian 16:  ES64L-G16RevA.03 25-Dec-2016

 --------------------------
 # td=(NStates=1) B3LYP/SVP
 --------------------------

 --
 TD
 --
 Symbolic Z-matrix:
 Charge =  0 Multiplicity = 1

                         Standard orientation:
 ---------------------------------------------------------------------
 Center     Atomic      Atomic             Coordinates (Angstroms)
 Number     Number       Type             X           Y           Z
 ---------------------------------------------------------------------
      1          8           0       -4.680926   -4.695666    1.720530
      2          8           0        2.960995   -4.858989    1.459469
      3          8           0        7.158318   -1.506710    1.755741
      4          8           0        3.759670   -3.249545    0.084688
      5          8           0        7.674533   -0.584116   -0.326915
      6          8           0       -3.051856    2.547039   -0.182842
      7          7           0       -0.298560   -0.565744   -0.625351
      8          7           0        1.564652    1.789612   -0.285831
      9          7           0       -3.529204   -3.014440    0.546708
     10          7           0       -0.791744    2.907858    0.045967
     11          6           0        0.583056   -2.539656   -1.290197
     12          6           0        0.879462   -1.156419   -0.976172
     13          6           0       -0.847914   -2.730882   -1.210942
     14          6           0       -1.376233   -1.420236   -0.646772
     15          6           0        3.855100    1.316645   -0.291898
     16          6           0        2.471863    0.776156   -0.449016
     17          6           0        2.141238   -0.468721   -0.827038
     18          6           0        3.559949    2.745652   -0.034796
     19          6           0        1.661833   -3.553597   -1.713899
     20          6           0       -5.609271   -2.436914    1.311674
     21          6           0       -3.659999   -1.710332    0.071390
     22          6           0        2.225289    2.914520    0.009910
     23          6           0       -5.048689   -1.459527    0.328540
     24          6           0        5.101643    0.606203   -0.528005
     25          6           0       -2.760350   -0.968963   -0.475839
     26          6           0       -1.602093   -3.873221   -1.696805
     27          6           0       -4.537313   -3.580776    1.246979
     28          6           0        2.055174   -4.667846   -0.727753
     29          6           0        5.465047   -0.218115    0.653539
     30          6           0        4.557203    3.795904    0.229766
     31          6           0        1.386995    4.038074    0.230702
     32          6           0       -7.034133   -3.101718    1.099730
     33          6           0       -5.906265   -0.577623   -0.284346
     34          6           0       -0.054969    3.986595    0.256255
     35          6           0       -0.900001    5.230155    0.581922
     36          6           0       -2.108117    4.736335    0.341572
     37          6           0        3.024190   -4.111481    0.334061
     38          6           0       -5.371427    0.348672   -1.347670
     39          6           0        6.904111   -0.740522    0.647777
     40          6           0       -3.472373    5.492110    0.471932
     41          6           0       -2.123297    3.219179    0.105515
     42          6           0       -0.431297    6.574427    0.826664
     43          6           0       -4.146479    5.693322   -0.909143
     44          1           0       -0.372495    0.313777   -0.233932
     45          1           0        2.827612   -1.256122   -1.028582
     46          1           0        2.483635   -2.979747   -2.058739
     47          1           0        1.262484   -4.223790   -2.456927
     48          1           0       -5.497463   -1.836680    2.260203
     49          1           0        5.216683   -0.011754   -1.421804
     50          1           0        6.092243    1.239212   -0.630757
     51          1           0       -2.603814    0.086035   -0.623591
     52          1           0        0.663247    1.926878   -0.465925
     53          1           0       -1.825888   -4.708749   -1.141751
     54          1           0       -2.620897   -3.716622   -2.079309
     55          1           0       -1.153715   -4.438392   -2.568915
     56          1           0       -2.672066   -3.487786    0.292385
     57          1           0        1.245709   -5.434878   -0.219434
     58          1           0        2.702893   -5.381543   -1.347644
     59          1           0        4.744755   -1.007821    0.979611
     60          1           0        5.341053    0.349075    1.711396
     61          1           0        4.505029    4.619556   -0.542658
     62          1           0        5.469846    3.602361    0.223954
     63          1           0        4.526442    4.270778    1.035055
     64          1           0        1.851451    5.008615    0.455361
     65          1           0       -7.749328   -2.288783    1.446148
     66          1           0       -7.279765   -4.110309    2.093705
     67          1           0       -7.421346   -3.634565    0.264741
     68          1           0       -6.964627   -0.550281    0.044907
     69          1           0       -4.726718    1.159108   -0.787457
     70          1           0       -6.194087    0.944305   -1.905008
     71          1           0       -4.919218   -0.275674   -2.126581
     72          1           0       -3.246991    6.450568    0.933290
     73          1           0       -4.311902    4.787097    0.858844
     74          1           0        0.200533    6.568407    1.834471
     75          1           0       -1.100654    7.274121    1.314485
     76          1           0        0.232692    7.292426    0.142531
     77          1           0       -3.491420    6.292177   -1.598832
     78          1           0       -5.044334    6.391505   -0.812419
     79          1           0       -4.408167    4.907352   -1.439515
     80          1           0        3.709611   -4.539651    2.048491
     81          1           0        8.055503   -1.581697    1.668538
 ---------------------------------------------------------------------

 SCF Done:  E(RB3LYP) =  -1949.03656585     A.U. after   16 cycles

 Excitation energies and oscillator strengths:

 Excited State   1:      Singlet-A      1.9277 eV  643.18 nm  f=0.4196  <S**2>=0.000
     156 ->157         0.71012
     156 <-157        -0.12015
 This state for optimization and/or second-order correction.
 Total Energy, E(TD-HF/TD-DFT) =  -1948.96572532
 Copying the excited state density for this state as the 1-particle RhoCI density.

 The electronic state is 1-A.
 Alpha  occ. eigenvalues --  -19.19902 -19.19542 -19.14928 -19.14247 -19.10859
 Alpha  occ. eigenvalues --  -19.10738 -14.38243 -14.37303 -14.35311 -14.28286
 Alpha  occ. eigenvalues --  -10.33612 -10.33064 -10.28935 -10.26278 -10.24750
 Alpha  occ. eigenvalues --  -10.24116 -10.24067 -10.23638 -10.23068 -10.22999
 Alpha  occ. eigenvalues --  -10.22885 -10.22658 -10.21833 -10.21228 -10.21205
 Alpha  occ. eigenvalues --  -10.21195 -10.21177 -10.21034 -10.20972 -10.20635
 Alpha  occ. eigenvalues --  -10.20578 -10.20506 -10.19881 -10.19673 -10.19179
 Alpha  occ. eigenvalues --  -10.19063 -10.18973 -10.18872 -10.18462 -10.18263
 Alpha  occ. eigenvalues --  -10.18100 -10.16757 -10.16495  -1.12138  -1.11155
 Alpha  occ. eigenvalues --   -1.04148  -1.03703  -1.02998  -1.00996  -1.00282
 Alpha  occ. eigenvalues --   -0.98801  -0.96572  -0.92297  -0.83421  -0.82404
 Alpha  occ. eigenvalues --   -0.81990  -0.81411  -0.80354  -0.79356  -0.78693
 Alpha  occ. eigenvalues --   -0.78000  -0.76079  -0.74587  -0.73714  -0.73506
 Alpha  occ. eigenvalues --   -0.72844  -0.70601  -0.69984  -0.68484  -0.68383
 Alpha  occ. eigenvalues --   -0.67741  -0.65938  -0.63851  -0.62403  -0.61578
 Alpha  occ. eigenvalues --   -0.60908  -0.60480  -0.59477  -0.59184  -0.58411
 Alpha  occ. eigenvalues --   -0.57192  -0.56911  -0.55740  -0.55091  -0.53415
 Alpha  occ. eigenvalues --   -0.52817  -0.51921  -0.51672  -0.51146  -0.50417
 Alpha  occ. eigenvalues --   -0.50057  -0.49727  -0.49191  -0.48690  -0.48271
 Alpha  occ. eigenvalues --   -0.47207  -0.46887  -0.46380  -0.45863  -0.45530
 Alpha  occ. eigenvalues --   -0.45327  -0.45121  -0.44700  -0.44260  -0.43907
 Alpha  occ. eigenvalues --   -0.43833  -0.43560  -0.43241  -0.43137  -0.42950
 Alpha  occ. eigenvalues --   -0.42403  -0.42193  -0.41960  -0.41810  -0.41359
 Alpha  occ. eigenvalues --   -0.41108  -0.40801  -0.40526  -0.40181  -0.40160
 Alpha  occ. eigenvalues --   -0.39664  -0.39496  -0.39181  -0.38795  -0.38729
 Alpha  occ. eigenvalues --   -0.38341  -0.37724  -0.37385  -0.36659  -0.36586
 Alpha  occ. eigenvalues --   -0.36275  -0.36042  -0.35564  -0.34985  -0.34924
 Alpha  occ. eigenvalues --   -0.34609  -0.33628  -0.33382  -0.32694  -0.32576
 Alpha  occ. eigenvalues --   -0.32537  -0.31185  -0.30716  -0.30488  -0.30092
 Alpha  occ. eigenvalues --   -0.29399  -0.28014  -0.26688  -0.25723  -0.25494
 Alpha  occ. eigenvalues --   -0.25158  -0.24448  -0.23815  -0.23443  -0.21742
 Alpha  occ. eigenvalues --   -0.18098
 Alpha virt. eigenvalues --   -0.10558  -0.05255  -0.04038  -0.02155  -0.00414
 Alpha virt. eigenvalues --    0.00779   0.01541   0.02683   0.03254   0.04090
 Alpha virt. eigenvalues --    0.04176   0.04438   0.04786   0.05245   0.06702

 Mulliken charges:
               1
     1  O   -0.211900
     2  O   -0.193511
     3  O   -0.136559
     4  O   -0.168585
     5  O   -0.262401
     6  O   -0.168192
     7  N   -0.024134
     8  N    0.025662
     9  N   -0.095218
    10  N   -0.276480
    11  C   -0.093306
    12  C   -0.047632
    13  C   -0.105740
    14  C   -0.032666
    15  C   -0.037590
    16  C    0.156047
    17  C   -0.017804
    18  C   -0.159669
    19  C    0.150099
    20  C   -0.077581
    21  C    0.220650
    22  C    0.088053
    23  C   -0.053607
    24  C    0.112648
    25  C   -0.109076
    26  C    0.057786
    27  C    0.147898
    28  C   -0.067932
    29  C   -0.102663
    30  C    0.313897
    31  C   -0.124166
    32  C   -0.027486
    33  C   -0.121946
    34  C    0.037316
    35  C   -0.027511
    36  C   -0.200576
    37  C    0.115997
    38  C    0.001601
    39  C    0.174610
    40  C    0.094250
    41  C    0.147049
    42  C    0.023598
    43  C    0.004087
    44  H    0.103450
    45  H   -0.031742
    46  H    0.011649
    47  H   -0.009807
    48  H    0.055611
    49  H    0.029160
    50  H    0.037380
    51  H    0.014839
    52  H    0.060778
    53  H   -0.000989
    54  H    0.016494
    55  H    0.012208
    56  H    0.114656
    57  H    0.062231
    58  H    0.050453
    59  H    0.047488
    60  H    0.040001
    61  H    0.004055
    62  H   -0.092782
    63  H   -0.058276
    64  H   -0.034885
    65  H    0.029933
    66  H    0.034764
    67  H    0.030099
    68  H   -0.003156
    69  H    0.107041
    70  H    0.008586
    71  H    0.033026
    72  H   -0.007309
    73  H    0.028302
    74  H    0.008884
    75  H   -0.005516
    76  H    0.056470
    77  H   -0.008655
    78  H    0.005531
    79  H   -0.007257
    80  H    0.192175
    81  H    0.137789
 Sum of Mulliken charges =  -0.00000

 Dipole moment (field-independent basis, Debye):
    X=              4.6093    Y=              0.0688    Z=              0.3646  Tot=              4.6242
 Quadrupole moment (field-independent basis, Debye-Ang):
   XX=           -252.6025   YY=           -242.7647   ZZ=           -254.7478
   XY=            -13.2366   XZ=             22.5605   YZ=             15.9582

 Normal termination of Gaussian 16 at Mon Jul  1 21:25:03 2019.
