 Gaussian 16, Revision A.03,
 Gaussian 16:  ES64L-G16RevA.03 25-Dec-2016

 --------------------------
 # td=(NStates=1) B3LYP/SVP
 --------------------------

 --
 TD
 --
 Symbolic Z-matrix:
 Charge =  0 Multiplicity = 1

                         Standard orientation:
 ---------------------------------------------------------------------
 Center     Atomic      Atomic             Coordinates (Angstroms)
 Number     Number       Type             X           Y           Z
 ---------------------------------------------------------------------
      1          8           0       -4.396461   -4.780013    1.913609
      2          8           0        3.213790   -4.800413    1.333864
      3          8           0        7.167792   -1.306545    1.898448
      4          8           0        3.865502   -3.066689   -0.016327
      5          8           0        7.582737   -0.446435   -0.191199
      6          8           0       -3.053570    2.334947   -0.225908
      7          7           0       -0.376443   -0.525273   -0.731349
      8          7           0        1.426525    1.813569   -0.348114
      9          7           0       -3.354958   -3.227436    0.557085
     10          7           0       -0.907854    2.877775   -0.159553
     11          6           0        0.721572   -2.465203   -1.408501
     12          6           0        0.892458   -1.072275   -1.028411
     13          6           0       -0.701890   -2.653023   -1.369949
     14          6           0       -1.303611   -1.465773   -0.885074
     15          6           0        3.725769    1.517684   -0.280761
     16          6           0        2.441431    0.847230   -0.456433
     17          6           0        2.228176   -0.446039   -0.763331
     18          6           0        3.393281    2.894047   -0.045890
     19          6           0        1.755675   -3.453017   -1.895127
     20          6           0       -5.483785   -2.604608    1.413498
     21          6           0       -3.548907   -1.931348    0.039447
     22          6           0        1.985548    2.981633   -0.080506
     23          6           0       -4.914212   -1.557019    0.415878
     24          6           0        5.098054    0.853677   -0.314027
     25          6           0       -2.680314   -1.113200   -0.640430
     26          6           0       -1.432152   -3.940821   -1.793153
     27          6           0       -4.376082   -3.668224    1.367680
     28          6           0        2.153961   -4.454165   -0.788437
     29          6           0        5.437661    0.047173    0.964554
     30          6           0        4.518722    3.966454    0.338109
     31          6           0        1.231555    4.076546    0.170312
     32          6           0       -6.813941   -3.191153    1.372088
     33          6           0       -5.668109   -0.608400   -0.173172
     34          6           0       -0.154288    4.046667    0.119179
     35          6           0       -1.140014    5.097176    0.500944
     36          6           0       -2.346946    4.527020    0.429665
     37          6           0        3.137183   -4.042086    0.159494
     38          6           0       -5.255098    0.174470   -1.396646
     39          6           0        6.825894   -0.481095    0.818300
     40          6           0       -3.741169    5.155642    0.499084
     41          6           0       -2.203271    3.206372   -0.003007
     42          6           0       -0.775389    6.542021    0.741632
     43          6           0       -4.502256    5.382959   -0.738039
     44          1           0       -0.623905    0.367807   -0.240473
     45          1           0        3.085809   -1.037534   -0.715947
     46          1           0        2.581268   -2.929579   -2.370209
     47          1           0        1.399574   -3.982885   -2.733450
     48          1           0       -5.487599   -2.143979    2.408566
     49          1           0        5.074707    0.140251   -1.030417
     50          1           0        5.804015    1.416393   -0.889978
     51          1           0       -3.003662   -0.060827   -0.802976
     52          1           0        0.407776    1.951674   -0.353506
     53          1           0       -1.369723   -4.773539   -1.174905
     54          1           0       -2.520314   -3.842021   -1.785602
     55          1           0       -0.993866   -4.161859   -2.834836
     56          1           0       -2.517485   -3.732057    0.390331
     57          1           0        1.378680   -4.923082   -0.354179
     58          1           0        2.649489   -5.296212   -1.330143
     59          1           0        4.787765   -0.880061    1.077708
     60          1           0        5.366253    0.451822    1.957299
     61          1           0        4.435801    4.670167   -0.516098
     62          1           0        5.603450    3.576574    0.409054
     63          1           0        4.098898    4.369763    1.375495
     64          1           0        1.765617    5.064486    0.326448
     65          1           0       -7.609388   -2.322024    1.652822
     66          1           0       -7.086312   -3.813117    2.189404
     67          1           0       -7.053342   -3.784838    0.453453
     68          1           0       -6.721730   -0.086129    0.395477
     69          1           0       -4.822789    0.969816   -0.997700
     70          1           0       -6.160624    0.394599   -2.078131
     71          1           0       -4.497173   -0.227984   -2.049032
     72          1           0       -3.394718    6.143683    1.095611
     73          1           0       -4.223563    4.435875    1.159422
     74          1           0        0.034786    6.527266    1.444521
     75          1           0       -1.523650    7.027422    1.323903
     76          1           0       -0.353585    6.963801   -0.237373
     77          1           0       -3.930612    6.118250   -1.443536
     78          1           0       -5.517702    5.957369   -0.529708
     79          1           0       -4.599880    4.449017   -1.335281
     80          1           0        3.965372   -4.477539    1.863889
     81          1           0        7.990114   -1.585975    1.619877
 ---------------------------------------------------------------------

 SCF Done:  E(RB3LYP) =  -1949.15751249     A.U. after   23 cycles

 Excitation energies and oscillator strengths:

 Excited State   1:      Singlet-A      1.9311 eV  642.03 nm  f=0.3306  <S**2>=0.000
     156 ->157         0.70581
     156 <-157        -0.10316
 This state for optimization and/or second-order correction.
 Total Energy, E(TD-HF/TD-DFT) =  -1949.08654529
 Copying the excited state density for this state as the 1-particle RhoCI density.

 The electronic state is 1-A.
 Alpha  occ. eigenvalues --  -19.19359 -19.18060 -19.14532 -19.13838 -19.10467
 Alpha  occ. eigenvalues --  -19.08749 -14.38205 -14.37300 -14.35064 -14.27962
 Alpha  occ. eigenvalues --  -10.33990 -10.33239 -10.29021 -10.24333 -10.24333
 Alpha  occ. eigenvalues --  -10.24026 -10.23224 -10.23127 -10.23048 -10.22637
 Alpha  occ. eigenvalues --  -10.22176 -10.22141 -10.21680 -10.21397 -10.21336
 Alpha  occ. eigenvalues --  -10.21253 -10.21219 -10.20664 -10.20633 -10.20350
 Alpha  occ. eigenvalues --  -10.20190 -10.20033 -10.19736 -10.19722 -10.19652
 Alpha  occ. eigenvalues --  -10.19536 -10.19020 -10.18922 -10.18901 -10.18850
 Alpha  occ. eigenvalues --  -10.18802 -10.17442 -10.16550  -1.09515  -1.09285
 Alpha  occ. eigenvalues --   -1.02231  -1.01280  -1.00263  -0.99460  -0.99006
 Alpha  occ. eigenvalues --   -0.98181  -0.94798  -0.90772  -0.83349  -0.82919
 Alpha  occ. eigenvalues --   -0.81685  -0.81027  -0.79722  -0.79064  -0.78806
 Alpha  occ. eigenvalues --   -0.78143  -0.76906  -0.75490  -0.74490  -0.72909
 Alpha  occ. eigenvalues --   -0.71424  -0.70328  -0.69857  -0.69518  -0.68976
 Alpha  occ. eigenvalues --   -0.67737  -0.65714  -0.64591  -0.61986  -0.61294
 Alpha  occ. eigenvalues --   -0.60701  -0.59502  -0.58879  -0.58361  -0.57569
 Alpha  occ. eigenvalues --   -0.56958  -0.56118  -0.55379  -0.53991  -0.53297
 Alpha  occ. eigenvalues --   -0.52899  -0.51736  -0.50784  -0.50252  -0.49902
 Alpha  occ. eigenvalues --   -0.49710  -0.49037  -0.48777  -0.48576  -0.48078
 Alpha  occ. eigenvalues --   -0.47376  -0.46290  -0.45840  -0.45678  -0.45071
 Alpha  occ. eigenvalues --   -0.44965  -0.44497  -0.44146  -0.43778  -0.43578
 Alpha  occ. eigenvalues --   -0.43365  -0.43301  -0.42786  -0.42645  -0.42061
 Alpha  occ. eigenvalues --   -0.41927  -0.41762  -0.41532  -0.41421  -0.41342
 Alpha  occ. eigenvalues --   -0.41258  -0.40936  -0.40797  -0.40375  -0.40351
 Alpha  occ. eigenvalues --   -0.40109  -0.39842  -0.39390  -0.38996  -0.38707
 Alpha  occ. eigenvalues --   -0.38631  -0.38394  -0.37703  -0.37346  -0.36775
 Alpha  occ. eigenvalues --   -0.36501  -0.35863  -0.35673  -0.35383  -0.34102
 Alpha  occ. eigenvalues --   -0.33686  -0.33597  -0.33253  -0.33159  -0.32760
 Alpha  occ. eigenvalues --   -0.32549  -0.32388  -0.31761  -0.29945  -0.29652
 Alpha  occ. eigenvalues --   -0.29007  -0.26794  -0.26180  -0.25568  -0.25428
 Alpha  occ. eigenvalues --   -0.25321  -0.24750  -0.23742  -0.23320  -0.21323
 Alpha  occ. eigenvalues --   -0.18233
 Alpha virt. eigenvalues --   -0.10458  -0.05637  -0.03738  -0.02706  -0.02098
 Alpha virt. eigenvalues --   -0.00156   0.01819   0.03465   0.03757   0.04188
 Alpha virt. eigenvalues --    0.05076   0.05290   0.05442   0.05620   0.06824

 Mulliken charges:
               1
     1  O   -0.235309
     2  O   -0.219257
     3  O   -0.178037
     4  O   -0.240852
     5  O   -0.274699
     6  O   -0.233303
     7  N   -0.064912
     8  N   -0.045358
     9  N   -0.094468
    10  N   -0.320347
    11  C   -0.123629
    12  C    0.071910
    13  C   -0.171310
    14  C    0.053614
    15  C   -0.096790
    16  C    0.118359
    17  C   -0.037880
    18  C   -0.166696
    19  C    0.171481
    20  C   -0.013679
    21  C    0.111875
    22  C    0.071217
    23  C   -0.007377
    24  C    0.199174
    25  C   -0.132602
    26  C    0.075625
    27  C    0.112077
    28  C    0.102217
    29  C    0.023346
    30  C    0.042277
    31  C   -0.149265
    32  C    0.050890
    33  C   -0.210618
    34  C    0.080601
    35  C   -0.134248
    36  C   -0.176835
    37  C    0.135668
    38  C    0.086858
    39  C    0.155372
    40  C    0.079354
    41  C    0.110016
    42  C    0.161308
    43  C   -0.013478
    44  H    0.167672
    45  H   -0.034115
    46  H    0.008361
    47  H   -0.023708
    48  H    0.031510
    49  H   -0.036366
    50  H    0.009819
    51  H    0.036241
    52  H    0.117239
    53  H    0.010287
    54  H    0.016491
    55  H    0.039780
    56  H    0.108946
    57  H   -0.010014
    58  H    0.046179
    59  H    0.066331
    60  H    0.026586
    61  H    0.039959
    62  H    0.048549
    63  H    0.054412
    64  H   -0.014304
    65  H    0.010455
    66  H    0.011067
    67  H    0.020431
    68  H    0.046750
    69  H    0.021485
    70  H    0.021019
    71  H    0.016149
    72  H   -0.000177
    73  H    0.010038
    74  H   -0.003968
    75  H    0.001624
    76  H    0.049166
    77  H    0.007437
    78  H    0.031203
    79  H    0.041830
    80  H    0.192528
    81  H    0.140819
 Sum of Mulliken charges =  -0.00000

 Dipole moment (field-independent basis, Debye):
    X=              3.8102    Y=              0.5708    Z=              0.1860  Tot=              3.8572
 Quadrupole moment (field-independent basis, Debye-Ang):
   XX=           -257.2583   YY=           -239.8619   ZZ=           -253.8314
   XY=            -14.2436   XZ=             12.2476   YZ=             15.6788

 Normal termination of Gaussian 16 at Thu Jul  4 05:07:02 2019.
