 Gaussian 16, Revision A.03,
 Gaussian 16:  ES64L-G16RevA.03 25-Dec-2016

 --------------------------
 # td=(NStates=1) B3LYP/SVP
 --------------------------

 --
 TD
 --
 Symbolic Z-matrix:
 Charge =  0 Multiplicity = 1

                         Standard orientation:
 ---------------------------------------------------------------------
 Center     Atomic      Atomic             Coordinates (Angstroms)
 Number     Number       Type             X           Y           Z
 ---------------------------------------------------------------------
      1          8           0       -4.783459   -4.533823    1.999131
      2          8           0        2.880346   -4.895130    1.228027
      3          8           0        7.052741   -1.552523    2.096286
      4          8           0        3.759368   -3.272199   -0.046483
      5          8           0        7.513467   -0.961643   -0.035794
      6          8           0       -2.978906    2.637058   -0.195044
      7          7           0       -0.295765   -0.624384   -0.601573
      8          7           0        1.652726    1.703518   -0.553912
      9          7           0       -3.503621   -2.997502    0.797468
     10          7           0       -0.713784    2.958477   -0.155677
     11          6           0        0.545306   -2.490812   -1.422638
     12          6           0        0.900871   -1.181049   -0.933320
     13          6           0       -0.883502   -2.575153   -1.277441
     14          6           0       -1.347378   -1.416224   -0.690904
     15          6           0        3.867113    1.339929   -0.494209
     16          6           0        2.584410    0.743251   -0.673467
     17          6           0        2.177623   -0.582033   -0.869911
     18          6           0        3.644109    2.699213   -0.184278
     19          6           0        1.519705   -3.450753   -2.020686
     20          6           0       -5.720347   -2.434653    1.272539
     21          6           0       -3.703743   -1.707684    0.271987
     22          6           0        2.205839    2.979526   -0.247621
     23          6           0       -5.145892   -1.367306    0.374512
     24          6           0        5.144220    0.529021   -0.256627
     25          6           0       -2.669446   -1.004356   -0.288255
     26          6           0       -1.648691   -3.856458   -1.588225
     27          6           0       -4.677205   -3.510799    1.334307
     28          6           0        1.955772   -4.574703   -1.032083
     29          6           0        5.351057   -0.314084    1.000746
     30          6           0        4.680792    3.775008    0.121776
     31          6           0        1.434044    4.060462    0.120714
     32          6           0       -7.136123   -3.119516    0.897296
     33          6           0       -5.789931   -0.493842   -0.364097
     34          6           0        0.007841    3.952756    0.093772
     35          6           0       -0.770598    5.125853    0.504650
     36          6           0       -2.029882    4.826825    0.477401
     37          6           0        2.915014   -4.148167    0.150031
     38          6           0       -5.330000    0.431006   -1.333982
     39          6           0        6.739935   -0.889750    0.956727
     40          6           0       -3.336763    5.462380    0.612225
     41          6           0       -2.062814    3.414695    0.039749
     42          6           0       -0.261328    6.508240    0.893807
     43          6           0       -4.026924    5.919475   -0.685947
     44          1           0       -0.315171    0.261606   -0.184420
     45          1           0        3.122405   -1.308114   -0.976502
     46          1           0        2.479585   -3.150498   -2.457661
     47          1           0        1.147996   -4.014307   -2.821341
     48          1           0       -5.953575   -2.206488    2.287439
     49          1           0        5.323093   -0.129352   -1.070079
     50          1           0        5.956664    1.294190   -0.505207
     51          1           0       -2.939620    0.012464   -0.540628
     52          1           0        0.725558    1.921342   -0.920354
     53          1           0       -1.904479   -4.517980   -0.646372
     54          1           0       -2.797082   -3.472421   -1.800333
     55          1           0       -1.339634   -4.387411   -2.587743
     56          1           0       -2.553385   -3.411470    1.075340
     57          1           0        1.208800   -5.006035   -0.238215
     58          1           0        2.390731   -5.460487   -1.474514
     59          1           0        4.602161   -1.074364    1.038811
     60          1           0        5.486291    0.392842    1.826813
     61          1           0        4.471869    4.613495   -0.566582
     62          1           0        5.604730    3.407591    0.087000
     63          1           0        4.457627    4.231412    1.026269
     64          1           0        2.045839    5.013851    0.190983
     65          1           0       -7.828089   -2.262701    0.911482
     66          1           0       -7.456845   -4.061259    1.574680
     67          1           0       -7.161024   -3.530285   -0.004943
     68          1           0       -6.981140   -0.452223   -0.059356
     69          1           0       -4.881054    1.410100   -0.894113
     70          1           0       -6.165776    0.604134   -2.096392
     71          1           0       -4.497086   -0.080748   -2.033809
     72          1           0       -3.340508    6.219756    1.374281
     73          1           0       -3.961617    4.635100    1.253442
     74          1           0        0.415584    6.545029    1.715772
     75          1           0       -1.097887    7.178914    1.334066
     76          1           0        0.354302    6.947942    0.016583
     77          1           0       -3.398053    6.460372   -1.188264
     78          1           0       -5.048841    6.341856   -0.434390
     79          1           0       -4.046609    5.048351   -1.302673
     80          1           0        3.625615   -4.589177    1.801578
     81          1           0        7.924788   -1.981481    1.964907
 ---------------------------------------------------------------------

 SCF Done:  E(RB3LYP) =  -1949.14303894     A.U. after   16 cycles

 Excitation energies and oscillator strengths:

 Excited State   1:      Singlet-A      1.9491 eV  636.11 nm  f=0.4029  <S**2>=0.000
     156 ->157         0.70640
     156 <-157        -0.12133
 This state for optimization and/or second-order correction.
 Total Energy, E(TD-HF/TD-DFT) =  -1949.07141139
 Copying the excited state density for this state as the 1-particle RhoCI density.

 The electronic state is 1-A.
 Alpha  occ. eigenvalues --  -19.21088 -19.18649 -19.13378 -19.12436 -19.11544
 Alpha  occ. eigenvalues --  -19.10335 -14.37195 -14.37123 -14.35091 -14.28869
 Alpha  occ. eigenvalues --  -10.33274 -10.32445 -10.28485 -10.26932 -10.24286
 Alpha  occ. eigenvalues --  -10.23413 -10.22881 -10.22828 -10.22725 -10.22406
 Alpha  occ. eigenvalues --  -10.21959 -10.21377 -10.21358 -10.20902 -10.20617
 Alpha  occ. eigenvalues --  -10.20529 -10.20499 -10.20309 -10.20300 -10.20222
 Alpha  occ. eigenvalues --  -10.19954 -10.19806 -10.19800 -10.19437 -10.19390
 Alpha  occ. eigenvalues --  -10.19338 -10.19133 -10.18980 -10.18689 -10.18599
 Alpha  occ. eigenvalues --  -10.18472 -10.18080 -10.17207  -1.12362  -1.08993
 Alpha  occ. eigenvalues --   -1.02508  -1.02341  -1.01125  -1.00108  -0.98320
 Alpha  occ. eigenvalues --   -0.97412  -0.94557  -0.94237  -0.82029  -0.81959
 Alpha  occ. eigenvalues --   -0.81459  -0.81287  -0.80836  -0.78993  -0.77891
 Alpha  occ. eigenvalues --   -0.77009  -0.76508  -0.75744  -0.74487  -0.72728
 Alpha  occ. eigenvalues --   -0.71146  -0.69925  -0.69541  -0.68542  -0.68036
 Alpha  occ. eigenvalues --   -0.67868  -0.65418  -0.64652  -0.63518  -0.61991
 Alpha  occ. eigenvalues --   -0.61460  -0.60192  -0.59010  -0.58040  -0.56865
 Alpha  occ. eigenvalues --   -0.55827  -0.55688  -0.55650  -0.53454  -0.53267
 Alpha  occ. eigenvalues --   -0.52809  -0.52029  -0.50584  -0.50035  -0.49722
 Alpha  occ. eigenvalues --   -0.49326  -0.49185  -0.48325  -0.47794  -0.47718
 Alpha  occ. eigenvalues --   -0.47464  -0.47182  -0.46046  -0.45704  -0.45308
 Alpha  occ. eigenvalues --   -0.45052  -0.44636  -0.44462  -0.44084  -0.43781
 Alpha  occ. eigenvalues --   -0.43409  -0.43034  -0.42814  -0.42259  -0.42148
 Alpha  occ. eigenvalues --   -0.41751  -0.41480  -0.41269  -0.40971  -0.40732
 Alpha  occ. eigenvalues --   -0.40393  -0.40195  -0.39807  -0.39658  -0.39363
 Alpha  occ. eigenvalues --   -0.39270  -0.39137  -0.38707  -0.38491  -0.38454
 Alpha  occ. eigenvalues --   -0.38236  -0.37978  -0.37729  -0.37120  -0.36865
 Alpha  occ. eigenvalues --   -0.36240  -0.35983  -0.35327  -0.35267  -0.34945
 Alpha  occ. eigenvalues --   -0.34563  -0.34337  -0.33859  -0.33546  -0.33128
 Alpha  occ. eigenvalues --   -0.32149  -0.31882  -0.31616  -0.29964  -0.27977
 Alpha  occ. eigenvalues --   -0.27806  -0.27678  -0.26610  -0.26300  -0.25312
 Alpha  occ. eigenvalues --   -0.25104  -0.24875  -0.24538  -0.24418  -0.21855
 Alpha  occ. eigenvalues --   -0.17614
 Alpha virt. eigenvalues --   -0.10067  -0.05752  -0.03566  -0.01269  -0.00782
 Alpha virt. eigenvalues --   -0.00192   0.02504   0.02811   0.03412   0.04268
 Alpha virt. eigenvalues --    0.04489   0.04666   0.05133   0.05653   0.05981

 Mulliken charges:
               1
     1  O   -0.230343
     2  O   -0.143109
     3  O   -0.190081
     4  O   -0.264969
     5  O   -0.276199
     6  O   -0.184945
     7  N    0.040750
     8  N   -0.116643
     9  N   -0.154750
    10  N   -0.219341
    11  C   -0.067767
    12  C    0.021454
    13  C   -0.156211
    14  C    0.073711
    15  C   -0.063057
    16  C    0.039868
    17  C   -0.090205
    18  C   -0.177204
    19  C    0.190458
    20  C   -0.059685
    21  C    0.045533
    22  C    0.049537
    23  C    0.073227
    24  C    0.041222
    25  C   -0.111293
    26  C   -0.017701
    27  C    0.122565
    28  C   -0.070134
    29  C    0.122311
    30  C    0.227543
    31  C   -0.150013
    32  C    0.045006
    33  C   -0.180460
    34  C    0.080979
    35  C   -0.123716
    36  C   -0.171833
    37  C    0.122829
    38  C   -0.002563
    39  C    0.123036
    40  C    0.034258
    41  C    0.124056
    42  C    0.085940
    43  C    0.136153
    44  H    0.099858
    45  H    0.061247
    46  H    0.016573
    47  H   -0.026175
    48  H    0.037934
    49  H    0.002603
    50  H    0.011022
    51  H    0.011112
    52  H    0.146265
    53  H    0.038272
    54  H    0.029663
    55  H    0.045610
    56  H    0.164851
    57  H    0.035143
    58  H    0.038906
    59  H    0.047342
    60  H    0.026241
    61  H    0.014160
    62  H   -0.026596
    63  H   -0.009695
    64  H   -0.009435
    65  H    0.017055
    66  H    0.054612
    67  H   -0.029203
    68  H    0.017558
    69  H    0.107015
    70  H    0.021039
    71  H    0.043585
    72  H   -0.025713
    73  H    0.017419
    74  H    0.005486
    75  H    0.026725
    76  H    0.033474
    77  H   -0.040564
    78  H    0.036212
    79  H   -0.002607
    80  H    0.197120
    81  H    0.187672
 Sum of Mulliken charges =  -0.00000

 Dipole moment (field-independent basis, Debye):
    X=              2.5502    Y=              1.5580    Z=              0.8369  Tot=              3.1034
 Quadrupole moment (field-independent basis, Debye-Ang):
   XX=           -255.5392   YY=           -235.8143   ZZ=           -252.9667
   XY=            -17.1277   XZ=             21.1137   YZ=              9.7674

 Normal termination of Gaussian 16 at Fri Jul  5 02:02:24 2019.
