 Gaussian 16, Revision A.03,
 Gaussian 16:  ES64L-G16RevA.03 25-Dec-2016

 --------------------------
 # td=(NStates=1) B3LYP/SVP
 --------------------------

 --
 TD
 --
 Symbolic Z-matrix:
 Charge =  0 Multiplicity = 1

                         Standard orientation:
 ---------------------------------------------------------------------
 Center     Atomic      Atomic             Coordinates (Angstroms)
 Number     Number       Type             X           Y           Z
 ---------------------------------------------------------------------
      1          8           0        4.434369   -4.958044   -1.643158
      2          8           0       -2.987568   -4.864393   -1.243968
      3          8           0       -6.905211   -1.552345   -1.897831
      4          8           0       -3.744705   -3.056528   -0.201278
      5          8           0       -7.762612   -0.480537    0.018277
      6          8           0        3.187653    2.574355    0.225988
      7          7           0        0.142892   -0.465546    0.669887
      8          7           0       -1.532016    1.882954    0.466350
      9          7           0        3.164998   -3.146732   -0.675289
     10          7           0        0.869081    2.867481   -0.049040
     11          6           0       -0.649493   -2.431778    1.448800
     12          6           0       -0.964489   -1.063207    1.068077
     13          6           0        0.644641   -2.618366    1.300046
     14          6           0        1.219063   -1.364287    0.802489
     15          6           0       -3.770037    1.468830    0.309224
     16          6           0       -2.477711    0.843629    0.618451
     17          6           0       -2.245448   -0.524409    0.846812
     18          6           0       -3.497346    2.806928   -0.048929
     19          6           0       -1.685411   -3.368072    1.941906
     20          6           0        5.387594   -2.779211   -1.346924
     21          6           0        3.551960   -1.864525   -0.134291
     22          6           0       -2.068881    3.021732    0.049517
     23          6           0        5.033349   -1.653432   -0.394560
     24          6           0       -4.993165    0.842801    0.465794
     25          6           0        2.583253   -1.074935    0.330613
     26          6           0        1.405478   -3.824674    1.686570
     27          6           0        4.373071   -3.812054   -1.228938
     28          6           0       -2.218057   -4.499016    1.003417
     29          6           0       -5.345327   -0.053002   -0.807100
     30          6           0       -4.440783    4.005635   -0.326949
     31          6           0       -1.224429    4.146872   -0.218720
     32          6           0        6.866876   -3.319318   -1.126102
     33          6           0        5.777436   -0.695033    0.177123
     34          6           0        0.135511    4.036878   -0.212695
     35          6           0        1.092024    5.110884   -0.511196
     36          6           0        2.351675    4.671882   -0.347415
     37          6           0       -3.014930   -3.976047   -0.239791
     38          6           0        5.468796    0.330329    1.052892
     39          6           0       -6.819654   -0.689242   -0.797476
     40          6           0        3.713318    5.333373   -0.511277
     41          6           0        2.169899    3.223605    0.000473
     42          6           0        0.497207    6.532221   -0.827373
     43          6           0        4.530467    5.476306    0.867142
     44          1           0        0.380469    0.318287    0.037633
     45          1           0       -3.063723   -1.088645    0.904630
     46          1           0       -2.541154   -2.754250    2.316211
     47          1           0       -1.370597   -3.994052    2.828147
     48          1           0        5.323860   -2.465012   -2.476132
     49          1           0       -5.155642    0.240669    1.379787
     50          1           0       -5.761280    1.728808    0.630365
     51          1           0        2.758913    0.029760    0.561860
     52          1           0       -0.420624    1.731601    0.446379
     53          1           0        1.311175   -4.804988    1.216457
     54          1           0        2.419760   -3.812422    2.015796
     55          1           0        1.073440   -3.994398    2.865586
     56          1           0        2.328634   -3.732761   -0.687220
     57          1           0       -1.371668   -5.168703    0.662215
     58          1           0       -3.061571   -5.101970    1.528279
     59          1           0       -4.676325   -1.075860   -0.837769
     60          1           0       -5.355215    0.579284   -1.620126
     61          1           0       -4.249200    4.870401    0.076880
     62          1           0       -5.399071    3.722611    0.062160
     63          1           0       -4.405868    4.028282   -1.322099
     64          1           0       -1.664389    5.059280   -0.332332
     65          1           0        7.525023   -2.573815   -1.440551
     66          1           0        6.952857   -3.970998   -1.970826
     67          1           0        6.849092   -3.632684   -0.202370
     68          1           0        6.986506   -1.068549    0.008138
     69          1           0        4.910285    1.166339    0.673505
     70          1           0        6.455952    0.809971    1.562126
     71          1           0        4.716492   -0.011229    1.731422
     72          1           0        3.655604    6.460623   -0.696875
     73          1           0        4.172030    4.691216   -1.208772
     74          1           0       -0.155724    6.591921   -1.710298
     75          1           0        1.278972    7.426496   -1.145009
     76          1           0        0.206975    6.737559    0.276694
     77          1           0        3.954072    6.039621    1.616124
     78          1           0        5.431578    6.151713    0.601593
     79          1           0        4.731649    4.416961    1.256957
     80          1           0       -3.466034   -4.475794   -1.976184
     81          1           0       -7.914098   -1.790206   -1.917634
 ---------------------------------------------------------------------

 SCF Done:  E(RB3LYP) =  -1949.08167650     A.U. after   19 cycles

 Excitation energies and oscillator strengths:

 Excited State   1:      Singlet-A      1.9129 eV  648.16 nm  f=0.4098  <S**2>=0.000
     156 ->157         0.70791
     156 <-157        -0.11930
 This state for optimization and/or second-order correction.
 Total Energy, E(TD-HF/TD-DFT) =  -1949.01137950
 Copying the excited state density for this state as the 1-particle RhoCI density.

 The electronic state is 1-A.
 Alpha  occ. eigenvalues --  -19.19848 -19.19151 -19.15055 -19.13684 -19.12090
 Alpha  occ. eigenvalues --  -19.08630 -14.39300 -14.36567 -14.36135 -14.28143
 Alpha  occ. eigenvalues --  -10.33715 -10.33211 -10.29562 -10.25017 -10.24817
 Alpha  occ. eigenvalues --  -10.24712 -10.23771 -10.23557 -10.23249 -10.23178
 Alpha  occ. eigenvalues --  -10.22073 -10.21923 -10.21745 -10.21372 -10.21133
 Alpha  occ. eigenvalues --  -10.21059 -10.20859 -10.20608 -10.20553 -10.20497
 Alpha  occ. eigenvalues --  -10.20284 -10.20275 -10.20219 -10.20027 -10.19390
 Alpha  occ. eigenvalues --  -10.18578 -10.18455 -10.18051 -10.17933 -10.17833
 Alpha  occ. eigenvalues --  -10.17697 -10.17544 -10.17107  -1.12872  -1.06868
 Alpha  occ. eigenvalues --   -1.04168  -1.03269  -1.00284  -0.99868  -0.98568
 Alpha  occ. eigenvalues --   -0.97467  -0.93055  -0.90811  -0.83733  -0.82900
 Alpha  occ. eigenvalues --   -0.82134  -0.81336  -0.79047  -0.78209  -0.77627
 Alpha  occ. eigenvalues --   -0.77391  -0.76427  -0.75695  -0.73442  -0.72430
 Alpha  occ. eigenvalues --   -0.71922  -0.70640  -0.69329  -0.68937  -0.67934
 Alpha  occ. eigenvalues --   -0.66844  -0.66169  -0.65043  -0.62352  -0.61864
 Alpha  occ. eigenvalues --   -0.60233  -0.59152  -0.58554  -0.58091  -0.56419
 Alpha  occ. eigenvalues --   -0.56044  -0.55124  -0.54509  -0.53656  -0.52974
 Alpha  occ. eigenvalues --   -0.52023  -0.51601  -0.51375  -0.50768  -0.49854
 Alpha  occ. eigenvalues --   -0.49660  -0.49568  -0.48649  -0.48430  -0.48104
 Alpha  occ. eigenvalues --   -0.47235  -0.46616  -0.46437  -0.45760  -0.45624
 Alpha  occ. eigenvalues --   -0.45482  -0.45175  -0.44849  -0.44508  -0.44185
 Alpha  occ. eigenvalues --   -0.43809  -0.43562  -0.43339  -0.43018  -0.42780
 Alpha  occ. eigenvalues --   -0.42598  -0.42007  -0.41812  -0.41631  -0.41311
 Alpha  occ. eigenvalues --   -0.40759  -0.40659  -0.40573  -0.40302  -0.40266
 Alpha  occ. eigenvalues --   -0.39481  -0.38964  -0.38694  -0.38429  -0.38373
 Alpha  occ. eigenvalues --   -0.37893  -0.37494  -0.36944  -0.36682  -0.36519
 Alpha  occ. eigenvalues --   -0.36326  -0.36174  -0.35158  -0.35053  -0.34575
 Alpha  occ. eigenvalues --   -0.34215  -0.33988  -0.33496  -0.32912  -0.32487
 Alpha  occ. eigenvalues --   -0.32140  -0.31734  -0.31607  -0.30279  -0.29511
 Alpha  occ. eigenvalues --   -0.28032  -0.27360  -0.27215  -0.26885  -0.25785
 Alpha  occ. eigenvalues --   -0.24872  -0.24708  -0.22763  -0.22520  -0.21458
 Alpha  occ. eigenvalues --   -0.17977
 Alpha virt. eigenvalues --   -0.10446  -0.04954  -0.03452  -0.01515  -0.01366
 Alpha virt. eigenvalues --   -0.01015   0.01278   0.02852   0.03014   0.03489
 Alpha virt. eigenvalues --    0.04563   0.04797   0.04919   0.05377   0.05866

 Mulliken charges:
               1
     1  O   -0.207961
     2  O   -0.158057
     3  O   -0.246714
     4  O   -0.183672
     5  O   -0.265831
     6  O   -0.249204
     7  N   -0.059294
     8  N   -0.127890
     9  N   -0.234082
    10  N   -0.321226
    11  C   -0.053566
    12  C    0.081279
    13  C   -0.100879
    14  C   -0.004419
    15  C   -0.039140
    16  C    0.067103
    17  C    0.015401
    18  C   -0.186743
    19  C    0.081761
    20  C   -0.114731
    21  C    0.169194
    22  C    0.089021
    23  C    0.003696
    24  C    0.006884
    25  C   -0.139859
    26  C    0.008177
    27  C    0.140631
    28  C   -0.031182
    29  C   -0.035350
    30  C    0.261233
    31  C   -0.097626
    32  C    0.180496
    33  C   -0.168722
    34  C    0.126686
    35  C   -0.100674
    36  C   -0.153576
    37  C    0.104881
    38  C    0.077519
    39  C    0.182563
    40  C    0.091802
    41  C    0.129311
    42  C    0.007929
    43  C   -0.065260
    44  H    0.161671
    45  H   -0.072915
    46  H    0.017453
    47  H    0.012150
    48  H    0.071378
    49  H    0.025244
    50  H    0.028194
    51  H    0.039081
    52  H    0.174150
    53  H    0.033712
    54  H    0.014025
    55  H    0.021860
    56  H    0.138276
    57  H    0.041181
    58  H    0.064795
    59  H    0.107852
    60  H    0.019169
    61  H   -0.019943
    62  H   -0.009832
    63  H   -0.010795
    64  H   -0.071460
    65  H    0.000227
    66  H    0.006513
    67  H   -0.012370
    68  H    0.022966
    69  H    0.064208
    70  H    0.036442
    71  H    0.015764
    72  H    0.005541
    73  H    0.012373
    74  H    0.038748
    75  H    0.022625
    76  H    0.056341
    77  H    0.011265
    78  H    0.020216
    79  H    0.053104
    80  H    0.173742
    81  H    0.207140
 Sum of Mulliken charges =  -0.00000

 Dipole moment (field-independent basis, Debye):
    X=             -2.6909    Y=             -1.3948    Z=             -0.7221  Tot=              3.1157
 Quadrupole moment (field-independent basis, Debye-Ang):
   XX=           -257.5539   YY=           -247.1770   ZZ=           -249.7800
   XY=              9.3871   XZ=             14.3587   YZ=             -9.5483

 Normal termination of Gaussian 16 at Sun Jun 30 18:44:27 2019.
