 Gaussian 16, Revision A.03,
 Gaussian 16:  ES64L-G16RevA.03 25-Dec-2016

 --------------------------
 # td=(NStates=1) B3LYP/SVP
 --------------------------

 --
 TD
 --
 Symbolic Z-matrix:
 Charge =  0 Multiplicity = 1

                         Standard orientation:
 ---------------------------------------------------------------------
 Center     Atomic      Atomic             Coordinates (Angstroms)
 Number     Number       Type             X           Y           Z
 ---------------------------------------------------------------------
      1          8           0       -4.708610   -4.632819    1.880560
      2          8           0        2.813603   -4.748632    1.264633
      3          8           0        7.053533   -1.577725    1.921159
      4          8           0        3.921017   -3.236638    0.031332
      5          8           0        7.524070   -0.762739   -0.187698
      6          8           0       -2.948794    2.453175   -0.291437
      7          7           0       -0.258053   -0.554561   -0.529774
      8          7           0        1.596506    1.755909   -0.460557
      9          7           0       -3.389164   -3.029373    0.776636
     10          7           0       -0.719904    2.969274   -0.097588
     11          6           0        0.632212   -2.436878   -1.365372
     12          6           0        0.989074   -1.154239   -0.933744
     13          6           0       -0.720935   -2.671993   -1.186718
     14          6           0       -1.297246   -1.425998   -0.695111
     15          6           0        3.799777    1.487030   -0.432279
     16          6           0        2.596383    0.846335   -0.663113
     17          6           0        2.229689   -0.474354   -0.949672
     18          6           0        3.556821    2.828139   -0.002138
     19          6           0        1.721927   -3.423191   -1.908208
     20          6           0       -5.673293   -2.541502    1.305748
     21          6           0       -3.654018   -1.786045    0.148156
     22          6           0        2.124943    2.940664   -0.005775
     23          6           0       -5.073612   -1.508451    0.328414
     24          6           0        5.153848    0.762770   -0.270089
     25          6           0       -2.691272   -1.029899   -0.495069
     26          6           0       -1.536665   -3.873706   -1.714509
     27          6           0       -4.639018   -3.593873    1.289056
     28          6           0        1.989108   -4.531875   -0.917012
     29          6           0        5.408734   -0.295441    0.809745
     30          6           0        4.580030    3.865787    0.328946
     31          6           0        1.307399    4.091602    0.404807
     32          6           0       -7.020208   -3.146547    1.160779
     33          6           0       -5.886044   -0.519154   -0.187504
     34          6           0       -0.090396    4.007107    0.265946
     35          6           0       -0.924078    5.072839    0.600122
     36          6           0       -2.153444    4.690805    0.363000
     37          6           0        3.080989   -4.108220    0.187093
     38          6           0       -5.495704    0.470628   -1.328825
     39          6           0        6.749682   -0.857527    0.770591
     40          6           0       -3.532019    5.269177    0.348185
     41          6           0       -2.047645    3.226940   -0.173294
     42          6           0       -0.424509    6.456081    1.005735
     43          6           0       -4.137041    5.643059   -0.925553
     44          1           0       -0.492743    0.366445   -0.380889
     45          1           0        3.204873   -1.112271   -1.113277
     46          1           0        2.679498   -2.920711   -2.362772
     47          1           0        1.408543   -4.316170   -2.732345
     48          1           0       -5.516843   -2.190717    2.377659
     49          1           0        5.390054    0.395193   -1.331148
     50          1           0        5.754843    1.800957   -0.120665
     51          1           0       -3.052506    0.109109   -0.771905
     52          1           0        0.573350    1.792235   -0.673600
     53          1           0       -1.745059   -4.742359   -0.856647
     54          1           0       -2.493304   -3.484298   -1.994857
     55          1           0       -0.949085   -4.145258   -2.712890
     56          1           0       -2.359581   -3.478975    0.927495
     57          1           0        1.053064   -4.906497   -0.471139
     58          1           0        2.595442   -5.240489   -1.486123
     59          1           0        4.691443   -1.211102    0.806050
     60          1           0        5.332300    0.280973    1.780754
     61          1           0        4.104291    4.899073    0.030493
     62          1           0        5.375928    3.495397   -0.219800
     63          1           0        4.795370    4.070143    1.378742
     64          1           0        1.926976    4.985628    0.698066
     65          1           0       -7.690003   -2.096786    1.315153
     66          1           0       -7.168717   -3.839984    1.896508
     67          1           0       -7.196432   -3.590498    0.208542
     68          1           0       -6.956839   -0.424016    0.053958
     69          1           0       -5.325058    1.553927   -1.041911
     70          1           0       -6.486915    0.452250   -2.064485
     71          1           0       -4.618756    0.176282   -2.041879
     72          1           0       -3.534410    6.230593    1.081962
     73          1           0       -4.283219    4.752449    0.898450
     74          1           0        0.379298    6.302068    1.978671
     75          1           0       -1.298001    7.027624    1.068649
     76          1           0        0.107196    6.922747    0.151976
     77          1           0       -3.318410    6.255635   -1.400244
     78          1           0       -5.308458    5.851096   -0.781535
     79          1           0       -4.343121    4.698124   -1.417943
     80          1           0        3.441640   -4.441667    1.817679
     81          1           0        7.938318   -1.902302    1.761821
 ---------------------------------------------------------------------

 SCF Done:  E(RB3LYP) =  -1949.07994669     A.U. after   17 cycles

 Excitation energies and oscillator strengths:

 Excited State   1:      Singlet-A      1.9113 eV  648.69 nm  f=0.4075  <S**2>=0.000
     156 ->157         0.70983
     156 <-157        -0.12332
 This state for optimization and/or second-order correction.
 Total Energy, E(TD-HF/TD-DFT) =  -1949.00970719
 Copying the excited state density for this state as the 1-particle RhoCI density.

 The electronic state is 1-A.
 Alpha  occ. eigenvalues --  -19.21337 -19.17972 -19.14811 -19.12621 -19.12056
 Alpha  occ. eigenvalues --  -19.10288 -14.37830 -14.37809 -14.35200 -14.27234
 Alpha  occ. eigenvalues --  -10.33769 -10.32020 -10.29627 -10.25420 -10.25379
 Alpha  occ. eigenvalues --  -10.24781 -10.24085 -10.23432 -10.23030 -10.22574
 Alpha  occ. eigenvalues --  -10.22483 -10.21877 -10.21786 -10.21624 -10.21426
 Alpha  occ. eigenvalues --  -10.21396 -10.21349 -10.21270 -10.20997 -10.20829
 Alpha  occ. eigenvalues --  -10.20668 -10.20413 -10.20318 -10.20203 -10.20045
 Alpha  occ. eigenvalues --  -10.19977 -10.19728 -10.19574 -10.18584 -10.18117
 Alpha  occ. eigenvalues --  -10.18086 -10.17623 -10.17401  -1.16131  -1.08296
 Alpha  occ. eigenvalues --   -1.04832  -1.03396  -1.02697  -0.99568  -0.98438
 Alpha  occ. eigenvalues --   -0.97487  -0.94305  -0.93950  -0.82638  -0.81948
 Alpha  occ. eigenvalues --   -0.81533  -0.80667  -0.79703  -0.78550  -0.78183
 Alpha  occ. eigenvalues --   -0.77504  -0.76527  -0.75832  -0.73819  -0.72340
 Alpha  occ. eigenvalues --   -0.71346  -0.69632  -0.69447  -0.68500  -0.67822
 Alpha  occ. eigenvalues --   -0.67372  -0.65433  -0.64065  -0.62230  -0.62081
 Alpha  occ. eigenvalues --   -0.60384  -0.58887  -0.58310  -0.57328  -0.56594
 Alpha  occ. eigenvalues --   -0.55749  -0.54818  -0.53865  -0.53323  -0.52945
 Alpha  occ. eigenvalues --   -0.52592  -0.52067  -0.51600  -0.51161  -0.50169
 Alpha  occ. eigenvalues --   -0.49827  -0.49529  -0.49122  -0.48701  -0.47802
 Alpha  occ. eigenvalues --   -0.47570  -0.47057  -0.46661  -0.46364  -0.45881
 Alpha  occ. eigenvalues --   -0.45137  -0.44875  -0.44520  -0.44001  -0.43654
 Alpha  occ. eigenvalues --   -0.43407  -0.43256  -0.42861  -0.42705  -0.42180
 Alpha  occ. eigenvalues --   -0.41912  -0.41360  -0.40940  -0.40723  -0.40597
 Alpha  occ. eigenvalues --   -0.40484  -0.40360  -0.39707  -0.39489  -0.39352
 Alpha  occ. eigenvalues --   -0.39131  -0.38945  -0.38924  -0.38561  -0.38134
 Alpha  occ. eigenvalues --   -0.37630  -0.37489  -0.37237  -0.37016  -0.36509
 Alpha  occ. eigenvalues --   -0.36380  -0.35859  -0.35218  -0.35003  -0.34835
 Alpha  occ. eigenvalues --   -0.34432  -0.34329  -0.34115  -0.33879  -0.33510
 Alpha  occ. eigenvalues --   -0.33296  -0.32056  -0.30233  -0.30035  -0.29333
 Alpha  occ. eigenvalues --   -0.27895  -0.27247  -0.27141  -0.26383  -0.26128
 Alpha  occ. eigenvalues --   -0.25268  -0.24531  -0.23679  -0.22725  -0.21645
 Alpha  occ. eigenvalues --   -0.17860
 Alpha virt. eigenvalues --   -0.10407  -0.05724  -0.04325  -0.01405  -0.01191
 Alpha virt. eigenvalues --   -0.00121   0.01411   0.01755   0.03304   0.03718
 Alpha virt. eigenvalues --    0.04466   0.04938   0.05150   0.05327   0.05794

 Mulliken charges:
               1
     1  O   -0.186961
     2  O   -0.034100
     3  O   -0.204983
     4  O   -0.238230
     5  O   -0.246136
     6  O   -0.194032
     7  N   -0.065038
     8  N   -0.096509
     9  N   -0.244819
    10  N   -0.223750
    11  C   -0.027770
    12  C    0.107152
    13  C   -0.188861
    14  C    0.033414
    15  C   -0.100131
    16  C    0.061752
    17  C   -0.078186
    18  C   -0.149347
    19  C   -0.026078
    20  C   -0.061277
    21  C    0.151373
    22  C    0.037756
    23  C   -0.005458
    24  C    0.029381
    25  C   -0.172513
    26  C    0.034210
    27  C    0.112851
    28  C    0.029035
    29  C    0.027772
    30  C    0.099759
    31  C   -0.157602
    32  C    0.090651
    33  C   -0.116706
    34  C    0.116788
    35  C   -0.131802
    36  C   -0.183944
    37  C    0.083610
    38  C   -0.059974
    39  C    0.140919
    40  C    0.038973
    41  C    0.118388
    42  C    0.116824
    43  C    0.024008
    44  H    0.093124
    45  H    0.042400
    46  H    0.052465
    47  H    0.029517
    48  H    0.066354
    49  H    0.037354
    50  H    0.010189
    51  H    0.097615
    52  H    0.143688
    53  H    0.046842
    54  H    0.024746
    55  H    0.048859
    56  H    0.186553
    57  H    0.044046
    58  H    0.030544
    59  H    0.087895
    60  H    0.039931
    61  H    0.029784
    62  H    0.029166
    63  H    0.027302
    64  H   -0.020045
    65  H    0.031704
    66  H    0.015137
    67  H    0.009162
    68  H    0.012731
    69  H    0.075337
    70  H    0.021350
    71  H    0.051862
    72  H   -0.016797
    73  H   -0.016787
    74  H    0.051230
    75  H   -0.008363
    76  H    0.020189
    77  H    0.029298
    78  H    0.016315
    79  H    0.004230
    80  H    0.124724
    81  H    0.169939
 Sum of Mulliken charges =  -0.00000

 Dipole moment (field-independent basis, Debye):
    X=              1.1554    Y=             -1.6489    Z=              0.7606  Tot=              2.1523
 Quadrupole moment (field-independent basis, Debye-Ang):
   XX=           -253.1750   YY=           -246.2991   ZZ=           -255.6447
   XY=            -10.4268   XZ=             16.8107   YZ=              6.7705

 Normal termination of Gaussian 16 at Mon Jul  1 12:11:04 2019.
