 Gaussian 16, Revision A.03,
 Gaussian 16:  ES64L-G16RevA.03 25-Dec-2016

 --------------------------
 # td=(NStates=1) B3LYP/SVP
 --------------------------

 --
 TD
 --
 Symbolic Z-matrix:
 Charge =  0 Multiplicity = 1

                         Standard orientation:
 ---------------------------------------------------------------------
 Center     Atomic      Atomic             Coordinates (Angstroms)
 Number     Number       Type             X           Y           Z
 ---------------------------------------------------------------------
      1          8           0       -4.625085   -4.609665    1.890325
      2          8           0        2.635711   -4.959865    1.313706
      3          8           0        7.198462   -1.507221    1.881618
      4          8           0        3.695477   -3.248531    0.341775
      5          8           0        7.429400   -0.869916   -0.283133
      6          8           0       -2.931239    2.497169   -0.302470
      7          7           0       -0.321643   -0.590950   -0.464633
      8          7           0        1.654189    1.779077   -0.325873
      9          7           0       -3.467844   -2.907151    0.751460
     10          7           0       -0.618667    2.920291   -0.006403
     11          6           0        0.576106   -2.511929   -1.237906
     12          6           0        0.907425   -1.225751   -0.766787
     13          6           0       -0.779764   -2.696105   -1.166961
     14          6           0       -1.379784   -1.423437   -0.704970
     15          6           0        3.823296    1.320812   -0.354270
     16          6           0        2.554796    0.667605   -0.508183
     17          6           0        2.162630   -0.566169   -0.878667
     18          6           0        3.676255    2.643978   -0.078212
     19          6           0        1.612752   -3.425252   -1.868792
     20          6           0       -5.659296   -2.497142    1.245066
     21          6           0       -3.725227   -1.611296    0.153125
     22          6           0        2.231663    2.926954   -0.117635
     23          6           0       -5.140087   -1.441025    0.370356
     24          6           0        5.128015    0.474489   -0.515594
     25          6           0       -2.780396   -0.929513   -0.550124
     26          6           0       -1.630244   -3.872565   -1.825378
     27          6           0       -4.605286   -3.524894    1.295010
     28          6           0        1.982620   -4.549783   -0.913112
     29          6           0        5.525973   -0.155362    0.840874
     30          6           0        4.713017    3.706881    0.015511
     31          6           0        1.412345    4.073383    0.213406
     32          6           0       -7.084130   -3.056446    0.786082
     33          6           0       -5.906023   -0.488045   -0.218415
     34          6           0        0.058937    4.074777    0.148485
     35          6           0       -0.847546    5.183154    0.525402
     36          6           0       -2.158741    4.762109    0.357115
     37          6           0        2.825538   -4.135573    0.285237
     38          6           0       -5.312933    0.476351   -1.227279
     39          6           0        6.872347   -0.828092    0.738918
     40          6           0       -3.445192    5.411800    0.556928
     41          6           0       -2.064763    3.266758   -0.042705
     42          6           0       -0.316979    6.505007    0.942938
     43          6           0       -4.112271    5.735643   -0.765652
     44          1           0       -0.619341    0.177441   -0.069190
     45          1           0        3.148898   -1.211963   -0.894164
     46          1           0        2.376459   -2.960413   -2.407681
     47          1           0        1.143917   -3.937182   -2.864497
     48          1           0       -5.645613   -2.088327    2.408656
     49          1           0        5.215074   -0.179580   -1.298457
     50          1           0        5.861686    1.098676   -0.950082
     51          1           0       -2.791862    0.084774   -0.820617
     52          1           0        0.599146    1.641835   -0.727854
     53          1           0       -1.592631   -4.568203   -0.984666
     54          1           0       -2.552194   -3.691152   -2.205967
     55          1           0       -0.958743   -4.168036   -2.481658
     56          1           0       -2.662199   -3.412369    0.775242
     57          1           0        0.975149   -4.950683   -0.562703
     58          1           0        2.499917   -5.262985   -1.405369
     59          1           0        4.955014   -0.871820    1.275575
     60          1           0        5.851269    0.771974    1.737401
     61          1           0        4.253905    4.791843   -0.145133
     62          1           0        5.953450    3.587846   -0.411322
     63          1           0        4.915511    4.101937    1.157744
     64          1           0        1.994544    5.007046    0.169091
     65          1           0       -7.985483   -2.208009    1.089313
     66          1           0       -7.407386   -3.844477    1.512954
     67          1           0       -7.226654   -3.294672   -0.218494
     68          1           0       -7.097357   -0.487792    0.011349
     69          1           0       -5.007573    1.456987   -0.742313
     70          1           0       -6.378177    0.965291   -1.661693
     71          1           0       -4.712334    0.142666   -2.033071
     72          1           0       -3.289571    6.360083    1.125398
     73          1           0       -4.190067    4.575609    1.111453
     74          1           0        0.408232    6.420008    1.761184
     75          1           0       -0.874762    7.180981    1.308843
     76          1           0       -0.030382    7.250899    0.082130
     77          1           0       -3.562938    6.485785   -1.209804
     78          1           0       -5.194130    6.161753   -0.413024
     79          1           0       -4.304719    4.890892   -1.415080
     80          1           0        3.193486   -4.654984    2.060816
     81          1           0        8.104080   -1.934259    1.516440
 ---------------------------------------------------------------------

 SCF Done:  E(RB3LYP) =  -1949.00627602     A.U. after   16 cycles

 Excitation energies and oscillator strengths:

 Excited State   1:      Singlet-A      2.0113 eV  616.43 nm  f=0.3325  <S**2>=0.000
     156 ->157         0.70259
 This state for optimization and/or second-order correction.
 Total Energy, E(TD-HF/TD-DFT) =  -1948.93236130
 Copying the excited state density for this state as the 1-particle RhoCI density.

 The electronic state is 1-A.
 Alpha  occ. eigenvalues --  -19.19872 -19.18611 -19.13877 -19.12948 -19.11308
 Alpha  occ. eigenvalues --  -19.10830 -14.37589 -14.36488 -14.35409 -14.27384
 Alpha  occ. eigenvalues --  -10.33697 -10.31068 -10.29025 -10.26587 -10.25195
 Alpha  occ. eigenvalues --  -10.23933 -10.23885 -10.23602 -10.23019 -10.22162
 Alpha  occ. eigenvalues --  -10.21853 -10.21763 -10.21683 -10.21493 -10.21228
 Alpha  occ. eigenvalues --  -10.21152 -10.21022 -10.20757 -10.20493 -10.20249
 Alpha  occ. eigenvalues --  -10.20120 -10.20059 -10.19857 -10.19748 -10.19721
 Alpha  occ. eigenvalues --  -10.19455 -10.19225 -10.19201 -10.18707 -10.18480
 Alpha  occ. eigenvalues --  -10.18140 -10.18032 -10.17634  -1.11151  -1.10093
 Alpha  occ. eigenvalues --   -1.03187  -1.02273  -1.01567  -1.00402  -0.98792
 Alpha  occ. eigenvalues --   -0.97473  -0.94653  -0.89495  -0.83615  -0.82285
 Alpha  occ. eigenvalues --   -0.81534  -0.80462  -0.79449  -0.78905  -0.78439
 Alpha  occ. eigenvalues --   -0.76732  -0.75923  -0.75429  -0.74022  -0.72892
 Alpha  occ. eigenvalues --   -0.70739  -0.69719  -0.69588  -0.68687  -0.67713
 Alpha  occ. eigenvalues --   -0.66786  -0.65658  -0.64515  -0.62547  -0.62333
 Alpha  occ. eigenvalues --   -0.61013  -0.58588  -0.58016  -0.57193  -0.56353
 Alpha  occ. eigenvalues --   -0.55770  -0.55552  -0.54780  -0.53499  -0.52957
 Alpha  occ. eigenvalues --   -0.51993  -0.51253  -0.51050  -0.50600  -0.49792
 Alpha  occ. eigenvalues --   -0.49542  -0.49033  -0.48937  -0.48050  -0.47772
 Alpha  occ. eigenvalues --   -0.47222  -0.46855  -0.46243  -0.45872  -0.45393
 Alpha  occ. eigenvalues --   -0.44906  -0.44796  -0.44393  -0.44161  -0.43569
 Alpha  occ. eigenvalues --   -0.43263  -0.43151  -0.42905  -0.42692  -0.42225
 Alpha  occ. eigenvalues --   -0.41875  -0.41725  -0.41649  -0.41351  -0.40880
 Alpha  occ. eigenvalues --   -0.40751  -0.40341  -0.39866  -0.39782  -0.39540
 Alpha  occ. eigenvalues --   -0.39410  -0.38999  -0.38705  -0.38481  -0.37817
 Alpha  occ. eigenvalues --   -0.37309  -0.36950  -0.36423  -0.36078  -0.35930
 Alpha  occ. eigenvalues --   -0.35733  -0.35361  -0.35081  -0.34707  -0.34578
 Alpha  occ. eigenvalues --   -0.34566  -0.34229  -0.33907  -0.33402  -0.33130
 Alpha  occ. eigenvalues --   -0.32806  -0.32699  -0.32294  -0.30223  -0.29134
 Alpha  occ. eigenvalues --   -0.28153  -0.27231  -0.26568  -0.26401  -0.25799
 Alpha  occ. eigenvalues --   -0.25096  -0.24105  -0.22948  -0.22709  -0.20927
 Alpha  occ. eigenvalues --   -0.17890
 Alpha virt. eigenvalues --   -0.09658  -0.05695  -0.04127  -0.01666  -0.01212
 Alpha virt. eigenvalues --    0.01199   0.01954   0.02783   0.03069   0.03422
 Alpha virt. eigenvalues --    0.03742   0.04221   0.04443   0.04830   0.05188

 Mulliken charges:
               1
     1  O   -0.236005
     2  O   -0.161209
     3  O   -0.241457
     4  O   -0.259756
     5  O   -0.192168
     6  O   -0.165357
     7  N   -0.021555
     8  N   -0.127505
     9  N   -0.136062
    10  N   -0.382198
    11  C   -0.096882
    12  C    0.095717
    13  C   -0.225286
    14  C   -0.043171
    15  C   -0.081776
    16  C    0.042429
    17  C   -0.071932
    18  C   -0.036726
    19  C    0.064374
    20  C   -0.067403
    21  C    0.198140
    22  C    0.031997
    23  C   -0.016534
    24  C    0.187742
    25  C   -0.093513
    26  C    0.245231
    27  C    0.127600
    28  C    0.090825
    29  C   -0.008333
    30  C   -0.051526
    31  C   -0.094173
    32  C    0.019848
    33  C   -0.174901
    34  C    0.115445
    35  C   -0.080583
    36  C   -0.166271
    37  C    0.135063
    38  C    0.022797
    39  C    0.123413
    40  C    0.022900
    41  C    0.167765
    42  C    0.165642
    43  C    0.014828
    44  H    0.079177
    45  H    0.063752
    46  H   -0.001456
    47  H    0.016833
    48  H    0.084148
    49  H   -0.016552
    50  H   -0.028950
    51  H    0.011043
    52  H    0.189208
    53  H    0.012749
    54  H    0.010387
    55  H   -0.050729
    56  H    0.090491
    57  H    0.041766
    58  H    0.012890
    59  H    0.017959
    60  H    0.054960
    61  H    0.027322
    62  H    0.072671
    63  H    0.021653
    64  H   -0.024788
    65  H    0.024100
    66  H    0.039332
    67  H    0.021321
    68  H    0.035446
    69  H    0.074668
    70  H    0.001258
    71  H    0.043497
    72  H    0.003759
    73  H    0.034260
    74  H    0.020634
    75  H   -0.087930
    76  H    0.024983
    77  H   -0.004971
    78  H    0.017323
    79  H    0.031483
    80  H    0.191701
    81  H    0.205130
 Sum of Mulliken charges =  -0.00000

 Dipole moment (field-independent basis, Debye):
    X=              2.1341    Y=              0.3385    Z=             -0.7976  Tot=              2.3033
 Quadrupole moment (field-independent basis, Debye-Ang):
   XX=           -244.2643   YY=           -239.7933   ZZ=           -254.4869
   XY=            -15.3161   XZ=             12.3478   YZ=             13.1120

 Normal termination of Gaussian 16 at Sun Jun 30 06:29:28 2019.
