 Gaussian 16, Revision A.03,
 Gaussian 16:  ES64L-G16RevA.03 25-Dec-2016

 --------------------------
 # td=(NStates=1) B3LYP/SVP
 --------------------------

 --
 TD
 --
 Symbolic Z-matrix:
 Charge =  0 Multiplicity = 1

                         Standard orientation:
 ---------------------------------------------------------------------
 Center     Atomic      Atomic             Coordinates (Angstroms)
 Number     Number       Type             X           Y           Z
 ---------------------------------------------------------------------
      1          8           0        4.633592   -4.696502   -1.809244
      2          8           0       -2.642001   -4.966517   -1.335435
      3          8           0       -7.179095   -1.810989   -1.651080
      4          8           0       -3.518450   -3.191808   -0.260508
      5          8           0       -7.693303   -0.564577    0.140833
      6          8           0        2.938791    2.474559    0.211374
      7          7           0        0.248052   -0.567857    0.544674
      8          7           0       -1.579196    1.684052    0.358984
      9          7           0        3.597255   -2.965638   -0.706215
     10          7           0        0.722820    2.975724    0.146057
     11          6           0       -0.584697   -2.419198    1.229095
     12          6           0       -0.995869   -1.175183    0.946292
     13          6           0        0.801122   -2.621335    1.179075
     14          6           0        1.311934   -1.428583    0.627287
     15          6           0       -3.865008    1.349519    0.229222
     16          6           0       -2.568681    0.758458    0.573099
     17          6           0       -2.240644   -0.578647    0.869713
     18          6           0       -3.705866    2.664312   -0.011929
     19          6           0       -1.526934   -3.440077    1.915956
     20          6           0        5.681835   -2.423844   -1.268638
     21          6           0        3.729453   -1.711881   -0.175724
     22          6           0       -2.225704    2.880511   -0.005245
     23          6           0        5.116409   -1.419366   -0.326711
     24          6           0       -5.193032    0.590061    0.379351
     25          6           0        2.716156   -0.910700    0.312709
     26          6           0        1.635793   -3.841584    1.648588
     27          6           0        4.634824   -3.586046   -1.352929
     28          6           0       -1.920358   -4.595666    0.982347
     29          6           0       -5.435193   -0.300197   -0.836177
     30          6           0       -4.659135    3.763575   -0.167616
     31          6           0       -1.435656    4.038229   -0.158597
     32          6           0        7.043764   -3.028442   -0.918020
     33          6           0        5.845279   -0.504971    0.343280
     34          6           0       -0.029485    4.008858   -0.181240
     35          6           0        0.910403    5.221620   -0.481000
     36          6           0        2.133786    4.774668   -0.321700
     37          6           0       -2.712299   -4.127869   -0.173540
     38          6           0        5.323568    0.455348    1.348535
     39          6           0       -6.952144   -0.954197   -0.708087
     40          6           0        3.424718    5.562301   -0.554095
     41          6           0        2.018858    3.323389    0.026230
     42          6           0        0.311135    6.473134   -0.977984
     43          6           0        4.164018    5.931759    0.752154
     44          1           0        0.443266    0.361765    0.079378
     45          1           0       -3.106379   -1.301175    1.355563
     46          1           0       -2.515543   -3.011515    2.306057
     47          1           0       -1.045780   -3.985847    2.787864
     48          1           0        5.880235   -1.977891   -2.381892
     49          1           0       -5.191412    0.031126    1.428626
     50          1           0       -5.835302    1.253006    0.572028
     51          1           0        2.756913    0.209714    0.409240
     52          1           0       -0.698828    1.718527    0.507970
     53          1           0        1.927107   -4.438039    0.826020
     54          1           0        2.611923   -3.469963    1.942237
     55          1           0        1.065451   -4.512290    2.245297
     56          1           0        2.799881   -3.406858   -0.804657
     57          1           0       -1.082890   -5.046068    0.461276
     58          1           0       -2.327558   -5.518450    1.324678
     59          1           0       -4.784520   -1.143945   -0.807472
     60          1           0       -5.415494    0.067982   -1.712124
     61          1           0       -4.257735    4.616615    0.361302
     62          1           0       -5.626036    3.527652    0.489777
     63          1           0       -5.047117    3.751992   -1.532743
     64          1           0       -1.993945    4.864388   -0.388388
     65          1           0        7.847154   -2.368749   -1.119026
     66          1           0        7.267952   -3.785521   -1.546743
     67          1           0        7.007582   -3.140243    0.197414
     68          1           0        6.996993   -0.459729    0.174393
     69          1           0        4.966845    1.322162    1.188132
     70          1           0        6.283902    0.494888    1.958245
     71          1           0        4.811040   -0.179132    2.195901
     72          1           0        2.982149    6.346884   -1.166287
     73          1           0        3.947432    4.787404   -1.246200
     74          1           0       -0.312973    6.411604   -1.878308
     75          1           0        0.956522    7.420349   -1.047121
     76          1           0       -0.407202    6.825827   -0.230746
     77          1           0        3.499265    6.667119    1.221336
     78          1           0        5.163300    6.314446    0.616725
     79          1           0        4.080093    4.985665    1.410804
     80          1           0       -3.300994   -4.473663   -1.867910
     81          1           0       -8.098183   -1.965085   -1.564903
 ---------------------------------------------------------------------

 SCF Done:  E(RB3LYP) =  -1949.05862818     A.U. after   16 cycles

 Excitation energies and oscillator strengths:

 Excited State   1:      Singlet-A      1.9483 eV  636.36 nm  f=0.3965  <S**2>=0.000
     156 ->157         0.70726
     156 <-157        -0.11906
 This state for optimization and/or second-order correction.
 Total Energy, E(TD-HF/TD-DFT) =  -1948.98702864
 Copying the excited state density for this state as the 1-particle RhoCI density.

 The electronic state is 1-A.
 Alpha  occ. eigenvalues --  -19.20118 -19.17634 -19.14379 -19.12942 -19.12040
 Alpha  occ. eigenvalues --  -19.09642 -14.37052 -14.36201 -14.35826 -14.28427
 Alpha  occ. eigenvalues --  -10.33365 -10.32103 -10.29386 -10.25972 -10.24594
 Alpha  occ. eigenvalues --  -10.24312 -10.23750 -10.23576 -10.23243 -10.22880
 Alpha  occ. eigenvalues --  -10.22560 -10.22123 -10.22100 -10.21661 -10.20876
 Alpha  occ. eigenvalues --  -10.20784 -10.20574 -10.20445 -10.19733 -10.19729
 Alpha  occ. eigenvalues --  -10.19512 -10.19442 -10.19400 -10.19397 -10.19386
 Alpha  occ. eigenvalues --  -10.19284 -10.19076 -10.18757 -10.18349 -10.18240
 Alpha  occ. eigenvalues --  -10.18017 -10.17377 -10.17288  -1.13435  -1.08413
 Alpha  occ. eigenvalues --   -1.04992  -1.02783  -0.99474  -0.99201  -0.98550
 Alpha  occ. eigenvalues --   -0.97479  -0.96907  -0.91911  -0.83214  -0.82622
 Alpha  occ. eigenvalues --   -0.82370  -0.80998  -0.79989  -0.78610  -0.78402
 Alpha  occ. eigenvalues --   -0.77422  -0.76860  -0.75037  -0.74487  -0.72902
 Alpha  occ. eigenvalues --   -0.71697  -0.70519  -0.69664  -0.68908  -0.68293
 Alpha  occ. eigenvalues --   -0.67827  -0.65581  -0.64840  -0.63256  -0.62447
 Alpha  occ. eigenvalues --   -0.61397  -0.60090  -0.58607  -0.57853  -0.57550
 Alpha  occ. eigenvalues --   -0.56217  -0.55863  -0.54425  -0.53928  -0.53836
 Alpha  occ. eigenvalues --   -0.52424  -0.51537  -0.50829  -0.50386  -0.50115
 Alpha  occ. eigenvalues --   -0.49391  -0.48855  -0.48625  -0.48411  -0.48086
 Alpha  occ. eigenvalues --   -0.47805  -0.46612  -0.46248  -0.45770  -0.45477
 Alpha  occ. eigenvalues --   -0.45042  -0.44644  -0.44126  -0.43939  -0.43733
 Alpha  occ. eigenvalues --   -0.43551  -0.43455  -0.42942  -0.42786  -0.42513
 Alpha  occ. eigenvalues --   -0.42435  -0.42036  -0.41881  -0.41576  -0.41127
 Alpha  occ. eigenvalues --   -0.40824  -0.40526  -0.40171  -0.40048  -0.39809
 Alpha  occ. eigenvalues --   -0.39634  -0.39004  -0.38799  -0.38625  -0.38437
 Alpha  occ. eigenvalues --   -0.38087  -0.37462  -0.37366  -0.37180  -0.37004
 Alpha  occ. eigenvalues --   -0.36832  -0.36721  -0.35535  -0.35040  -0.34834
 Alpha  occ. eigenvalues --   -0.34255  -0.33906  -0.33823  -0.33752  -0.32724
 Alpha  occ. eigenvalues --   -0.32517  -0.32230  -0.31907  -0.29968  -0.29060
 Alpha  occ. eigenvalues --   -0.27987  -0.27219  -0.26526  -0.26295  -0.26099
 Alpha  occ. eigenvalues --   -0.25648  -0.24803  -0.24142  -0.23787  -0.21706
 Alpha  occ. eigenvalues --   -0.17804
 Alpha virt. eigenvalues --   -0.10185  -0.05682  -0.04067  -0.02332  -0.00248
 Alpha virt. eigenvalues --    0.00712   0.01857   0.02318   0.03898   0.04435
 Alpha virt. eigenvalues --    0.04964   0.05024   0.05397   0.05806   0.06281

 Mulliken charges:
               1
     1  O   -0.185574
     2  O   -0.239221
     3  O   -0.090919
     4  O   -0.249475
     5  O   -0.215826
     6  O   -0.254415
     7  N   -0.162852
     8  N    0.004505
     9  N   -0.038590
    10  N   -0.223120
    11  C   -0.071012
    12  C    0.085379
    13  C   -0.190426
    14  C    0.009075
    15  C   -0.115814
    16  C    0.067694
    17  C   -0.050141
    18  C   -0.091855
    19  C    0.057582
    20  C   -0.177558
    21  C    0.109281
    22  C    0.047438
    23  C    0.029302
    24  C    0.226965
    25  C   -0.101005
    26  C    0.188590
    27  C    0.135135
    28  C    0.069534
    29  C    0.073827
    30  C    0.004227
    31  C   -0.065332
    32  C    0.125883
    33  C   -0.194825
    34  C    0.067184
    35  C   -0.061050
    36  C   -0.233746
    37  C    0.133251
    38  C    0.140134
    39  C    0.084648
    40  C    0.063049
    41  C    0.135568
    42  C    0.082626
    43  C    0.030523
    44  H    0.154188
    45  H    0.053223
    46  H    0.033796
    47  H    0.022905
    48  H    0.060920
    49  H    0.024489
    50  H   -0.097326
    51  H    0.058175
    52  H    0.026386
    53  H   -0.011202
    54  H    0.021138
    55  H   -0.006540
    56  H    0.066341
    57  H    0.015066
    58  H    0.034085
    59  H    0.036648
    60  H   -0.035716
    61  H    0.034108
    62  H    0.043211
    63  H    0.064558
    64  H   -0.074719
    65  H   -0.012824
    66  H   -0.005281
    67  H    0.015557
    68  H    0.019154
    69  H    0.010356
    70  H   -0.009936
    71  H    0.026384
    72  H   -0.006417
    73  H    0.026842
    74  H    0.028906
    75  H    0.019089
    76  H    0.008342
    77  H    0.004263
    78  H    0.025039
    79  H    0.040007
    80  H    0.177875
    81  H    0.150262
 Sum of Mulliken charges =  -0.00000

 Dipole moment (field-independent basis, Debye):
    X=             -3.4364    Y=              0.8412    Z=              0.0811  Tot=              3.5388
 Quadrupole moment (field-independent basis, Debye-Ang):
   XX=           -243.5040   YY=           -241.9104   ZZ=           -252.7291
   XY=             12.0550   XZ=             14.1099   YZ=            -14.8022

 Normal termination of Gaussian 16 at Thu Jul  4 19:10:42 2019.
