 Gaussian 16, Revision A.03,
 Gaussian 16:  ES64L-G16RevA.03 25-Dec-2016

 --------------------------
 # td=(NStates=1) B3LYP/SVP
 --------------------------

 --
 TD
 --
 Symbolic Z-matrix:
 Charge =  0 Multiplicity = 1

                         Standard orientation:
 ---------------------------------------------------------------------
 Center     Atomic      Atomic             Coordinates (Angstroms)
 Number     Number       Type             X           Y           Z
 ---------------------------------------------------------------------
      1          8           0        4.592927   -4.907835   -1.784024
      2          8           0       -3.396614   -4.824095   -1.208297
      3          8           0       -7.076113   -1.171182   -1.915535
      4          8           0       -3.806822   -3.026410   -0.004913
      5          8           0       -7.507512   -0.670734    0.238915
      6          8           0        3.162102    2.431884    0.298163
      7          7           0        0.213115   -0.612925    0.392265
      8          7           0       -1.458254    1.809686    0.275126
      9          7           0        3.371639   -3.291478   -0.671220
     10          7           0        0.842124    3.012997    0.141469
     11          6           0       -0.807785   -2.462766    1.383770
     12          6           0       -1.005846   -1.165551    0.869919
     13          6           0        0.634601   -2.690093    1.288162
     14          6           0        1.159698   -1.458356    0.621049
     15          6           0       -3.755681    1.531539    0.247155
     16          6           0       -2.481850    0.857314    0.448393
     17          6           0       -2.283074   -0.429741    0.850134
     18          6           0       -3.557601    2.887276   -0.036463
     19          6           0       -1.803591   -3.457557    1.839073
     20          6           0        5.502932   -2.659915   -1.377055
     21          6           0        3.622264   -1.928227   -0.141316
     22          6           0       -2.092545    2.957052   -0.100679
     23          6           0        5.005528   -1.658629   -0.424572
     24          6           0       -5.045944    0.934428    0.425221
     25          6           0        2.697524   -1.172077    0.408991
     26          6           0        1.330007   -3.946792    1.656834
     27          6           0        4.427460   -3.788487   -1.352468
     28          6           0       -2.263892   -4.494085    0.883778
     29          6           0       -5.371903    0.005965   -0.721094
     30          6           0       -4.544521    3.878582   -0.314628
     31          6           0       -1.221318    4.191237   -0.238818
     32          6           0        6.937104   -3.110591   -1.126647
     33          6           0        5.796833   -0.835473    0.234392
     34          6           0        0.137098    4.054896   -0.016601
     35          6           0        1.140008    5.215968   -0.471229
     36          6           0        2.367535    4.711222   -0.313760
     37          6           0       -3.153570   -4.015418   -0.147672
     38          6           0        5.570401    0.231971    1.375708
     39          6           0       -6.752528   -0.628679   -0.753062
     40          6           0        3.734431    5.311779   -0.425870
     41          6           0        2.187719    3.179445    0.119407
     42          6           0        0.683217    6.620139   -0.934221
     43          6           0        4.422440    5.512228    0.881649
     44          1           0        0.388215    0.470496    0.137531
     45          1           0       -3.013441   -1.213509    1.101653
     46          1           0       -2.708105   -2.881586    2.121349
     47          1           0       -1.532640   -4.143547    2.764243
     48          1           0        5.626913   -2.287355   -2.321369
     49          1           0       -5.148868    0.174004    1.176157
     50          1           0       -5.892169    1.627185    0.551395
     51          1           0        3.226809   -0.217804    0.552695
     52          1           0       -0.419285    2.320851    0.703907
     53          1           0        1.586309   -4.653920    0.736155
     54          1           0        2.439901   -3.604860    2.056334
     55          1           0        0.720481   -4.499309    2.578151
     56          1           0        2.412860   -3.777212   -0.732291
     57          1           0       -1.508150   -5.061915    0.404138
     58          1           0       -2.673959   -5.415757    1.533262
     59          1           0       -4.487872   -0.721932   -0.802025
     60          1           0       -5.298094    0.498078   -1.660877
     61          1           0       -4.722740    4.555760    0.707748
     62          1           0       -5.593381    3.241665   -0.533789
     63          1           0       -4.248176    4.711234   -1.227580
     64          1           0       -1.717256    5.144635   -0.530448
     65          1           0        7.605162   -2.382825   -1.241192
     66          1           0        7.145061   -3.946409   -1.913033
     67          1           0        7.250585   -3.301118   -0.150702
     68          1           0        6.954243   -0.693175    0.016513
     69          1           0        5.092753    1.113887    0.888580
     70          1           0        6.377932    0.551354    1.750431
     71          1           0        4.794829   -0.178810    2.234908
     72          1           0        3.697710    6.170917   -1.178528
     73          1           0        4.366969    4.660973   -1.027980
     74          1           0       -0.263815    6.626516   -1.685678
     75          1           0        1.458036    7.289712   -1.063200
     76          1           0        0.210799    7.221239    0.021421
     77          1           0        4.186579    6.356036    1.554208
     78          1           0        5.599683    5.769562    0.718949
     79          1           0        4.457206    4.457653    1.500403
     80          1           0       -4.259038   -4.540831   -1.700944
     81          1           0       -7.927073   -1.592470   -1.823329
 ---------------------------------------------------------------------

 SCF Done:  E(RB3LYP) =  -1949.02802986     A.U. after   16 cycles

 Excitation energies and oscillator strengths:

 Excited State   1:      Singlet-A      2.1874 eV  566.80 nm  f=0.4019  <S**2>=0.000
     156 ->157         0.70537
 This state for optimization and/or second-order correction.
 Total Energy, E(TD-HF/TD-DFT) =  -1948.94764289
 Copying the excited state density for this state as the 1-particle RhoCI density.

 The electronic state is 1-A.
 Alpha  occ. eigenvalues --  -19.19676 -19.19527 -19.14217 -19.12509 -19.11200
 Alpha  occ. eigenvalues --  -19.09942 -14.39772 -14.36718 -14.35584 -14.31078
 Alpha  occ. eigenvalues --  -10.33344 -10.32734 -10.28135 -10.28091 -10.25556
 Alpha  occ. eigenvalues --  -10.24965 -10.24070 -10.23817 -10.23808 -10.23755
 Alpha  occ. eigenvalues --  -10.23294 -10.22853 -10.22328 -10.22285 -10.22127
 Alpha  occ. eigenvalues --  -10.21122 -10.20918 -10.20858 -10.20613 -10.20539
 Alpha  occ. eigenvalues --  -10.20504 -10.20429 -10.19671 -10.19610 -10.19595
 Alpha  occ. eigenvalues --  -10.19546 -10.19314 -10.19231 -10.18737 -10.18727
 Alpha  occ. eigenvalues --  -10.18091 -10.18077 -10.16637  -1.11239  -1.11211
 Alpha  occ. eigenvalues --   -1.02562  -1.01896  -1.01151  -0.99589  -0.99463
 Alpha  occ. eigenvalues --   -0.97291  -0.94512  -0.93790  -0.83974  -0.83756
 Alpha  occ. eigenvalues --   -0.82353  -0.80812  -0.79206  -0.78782  -0.78653
 Alpha  occ. eigenvalues --   -0.77977  -0.76166  -0.74331  -0.73766  -0.72710
 Alpha  occ. eigenvalues --   -0.71251  -0.69864  -0.68864  -0.68352  -0.67598
 Alpha  occ. eigenvalues --   -0.66865  -0.65279  -0.64835  -0.61946  -0.61297
 Alpha  occ. eigenvalues --   -0.61232  -0.60616  -0.59542  -0.58154  -0.56685
 Alpha  occ. eigenvalues --   -0.56205  -0.55666  -0.55386  -0.53888  -0.52824
 Alpha  occ. eigenvalues --   -0.52338  -0.51749  -0.51207  -0.50696  -0.50097
 Alpha  occ. eigenvalues --   -0.49641  -0.48919  -0.48579  -0.48439  -0.47733
 Alpha  occ. eigenvalues --   -0.47061  -0.46776  -0.46224  -0.45468  -0.45293
 Alpha  occ. eigenvalues --   -0.44667  -0.44408  -0.44360  -0.44154  -0.43762
 Alpha  occ. eigenvalues --   -0.43463  -0.43372  -0.42680  -0.42371  -0.42116
 Alpha  occ. eigenvalues --   -0.41862  -0.41795  -0.41167  -0.41035  -0.40911
 Alpha  occ. eigenvalues --   -0.40630  -0.40172  -0.39913  -0.39783  -0.39392
 Alpha  occ. eigenvalues --   -0.39324  -0.39051  -0.38883  -0.38480  -0.37916
 Alpha  occ. eigenvalues --   -0.37594  -0.37273  -0.37033  -0.36934  -0.36763
 Alpha  occ. eigenvalues --   -0.36209  -0.35911  -0.35454  -0.35108  -0.34903
 Alpha  occ. eigenvalues --   -0.33977  -0.33943  -0.33745  -0.33554  -0.32408
 Alpha  occ. eigenvalues --   -0.32374  -0.31882  -0.31667  -0.30436  -0.29818
 Alpha  occ. eigenvalues --   -0.28080  -0.27546  -0.26494  -0.25962  -0.25164
 Alpha  occ. eigenvalues --   -0.24837  -0.24325  -0.24072  -0.23936  -0.22346
 Alpha  occ. eigenvalues --   -0.19059
 Alpha virt. eigenvalues --   -0.10209  -0.05109  -0.03562  -0.02894  -0.00693
 Alpha virt. eigenvalues --    0.01120   0.01600   0.01885   0.02179   0.02392
 Alpha virt. eigenvalues --    0.03240   0.03868   0.04762   0.05075   0.05387

 Mulliken charges:
               1
     1  O   -0.212915
     2  O   -0.223486
     3  O   -0.139096
     4  O   -0.218602
     5  O   -0.270546
     6  O   -0.228201
     7  N   -0.056948
     8  N   -0.227294
     9  N   -0.185832
    10  N   -0.233946
    11  C   -0.045598
    12  C   -0.035765
    13  C   -0.142464
    14  C    0.028490
    15  C   -0.048450
    16  C    0.177486
    17  C   -0.056326
    18  C   -0.054380
    19  C    0.064543
    20  C   -0.034750
    21  C    0.068055
    22  C    0.027904
    23  C    0.091845
    24  C    0.129657
    25  C   -0.056569
    26  C   -0.053491
    27  C    0.128451
    28  C    0.017846
    29  C   -0.057531
    30  C   -0.087359
    31  C   -0.107427
    32  C    0.111819
    33  C   -0.239440
    34  C    0.072425
    35  C   -0.096360
    36  C   -0.206108
    37  C    0.137019
    38  C    0.091259
    39  C    0.148792
    40  C    0.125463
    41  C    0.170240
    42  C    0.061242
    43  C   -0.076446
    44  H    0.215498
    45  H    0.014844
    46  H    0.016630
    47  H    0.023987
    48  H    0.003322
    49  H    0.007243
    50  H    0.009392
    51  H   -0.003591
    52  H    0.247546
    53  H    0.045408
    54  H    0.059063
    55  H    0.048188
    56  H    0.157540
    57  H    0.005992
    58  H    0.066823
    59  H    0.068979
    60  H   -0.001429
    61  H    0.060924
    62  H    0.057046
    63  H    0.064479
    64  H   -0.012720
    65  H   -0.039714
    66  H    0.038842
    67  H   -0.025238
    68  H    0.021497
    69  H    0.073485
    70  H   -0.055646
    71  H    0.042758
    72  H   -0.004553
    73  H   -0.003828
    74  H    0.050541
    75  H   -0.008093
    76  H    0.019347
    77  H    0.018018
    78  H    0.008530
    79  H    0.054996
    80  H    0.221944
    81  H    0.174748
 Sum of Mulliken charges =  -0.00000

 Dipole moment (field-independent basis, Debye):
    X=             -4.6557    Y=              0.5293    Z=             -0.3525  Tot=              4.6989
 Quadrupole moment (field-independent basis, Debye-Ang):
   XX=           -252.8276   YY=           -246.9968   ZZ=           -255.8986
   XY=             24.5680   XZ=             19.4912   YZ=            -11.5099

 Normal termination of Gaussian 16 at Sun Jun 30 20:01:25 2019.
