 Gaussian 16, Revision A.03,
 Gaussian 16:  ES64L-G16RevA.03 25-Dec-2016

 --------------------------
 # td=(NStates=1) B3LYP/SVP
 --------------------------

 --
 TD
 --
 Symbolic Z-matrix:
 Charge =  0 Multiplicity = 1

                         Standard orientation:
 ---------------------------------------------------------------------
 Center     Atomic      Atomic             Coordinates (Angstroms)
 Number     Number       Type             X           Y           Z
 ---------------------------------------------------------------------
      1          8           0       -4.671373   -4.574544    1.911645
      2          8           0        2.679498   -4.908659    1.343937
      3          8           0        7.250578   -1.665148    1.704758
      4          8           0        3.613105   -3.242288    0.127499
      5          8           0        7.566442   -0.884271   -0.444952
      6          8           0       -2.860393    2.774120   -0.380065
      7          7           0       -0.327180   -0.589192   -0.569512
      8          7           0        1.626333    1.806098   -0.307943
      9          7           0       -3.602764   -3.052633    0.630028
     10          7           0       -0.649514    2.980922   -0.120049
     11          6           0        0.472999   -2.466731   -1.312478
     12          6           0        0.869284   -1.178831   -0.891590
     13          6           0       -0.916284   -2.651260   -1.206257
     14          6           0       -1.436984   -1.424576   -0.696763
     15          6           0        3.819344    1.327381   -0.236698
     16          6           0        2.406138    0.720524   -0.515151
     17          6           0        2.079811   -0.630940   -0.758710
     18          6           0        3.648391    2.581865    0.041713
     19          6           0        1.446936   -3.486735   -1.876258
     20          6           0       -5.742076   -2.440689    1.245568
     21          6           0       -3.781554   -1.778902    0.091743
     22          6           0        2.272896    2.893236    0.085870
     23          6           0       -5.171626   -1.462276    0.307944
     24          6           0        5.104437    0.540102   -0.404296
     25          6           0       -2.692595   -1.050022   -0.439224
     26          6           0       -1.655216   -3.814360   -1.675086
     27          6           0       -4.672352   -3.541007    1.347230
     28          6           0        1.916011   -4.629909   -0.966140
     29          6           0        5.493997   -0.347666    0.848354
     30          6           0        4.728629    3.512197    0.467854
     31          6           0        1.521267    4.045174    0.341325
     32          6           0       -7.127748   -3.002832    1.133304
     33          6           0       -5.890303   -0.492327   -0.278135
     34          6           0        0.120001    4.053815    0.180776
     35          6           0       -0.712646    5.184358    0.503857
     36          6           0       -2.011379    4.830688    0.224370
     37          6           0        2.785382   -4.173506    0.188733
     38          6           0       -5.338371    0.573196   -1.254600
     39          6           0        6.896828   -0.909426    0.627670
     40          6           0       -3.306373    5.506016    0.541260
     41          6           0       -1.951576    3.428916   -0.115847
     42          6           0       -0.248059    6.579084    0.764063
     43          6           0       -4.053351    5.866676   -0.794526
     44          1           0       -0.299496    0.253095   -0.159527
     45          1           0        3.026379   -1.149710   -1.066535
     46          1           0        2.340612   -2.924875   -1.988782
     47          1           0        1.139832   -3.862867   -2.874387
     48          1           0       -5.625449   -1.805095    2.108272
     49          1           0        4.754776   -0.250481   -1.196490
     50          1           0        5.967903    1.325575   -0.644941
     51          1           0       -2.878623    0.056970   -0.566798
     52          1           0        0.510367    1.816337   -0.405846
     53          1           0       -1.550010   -4.670544   -0.887821
     54          1           0       -2.728222   -3.489781   -1.767883
     55          1           0       -1.187452   -4.129429   -2.513208
     56          1           0       -2.494795   -3.292523    0.942393
     57          1           0        1.042605   -5.124010   -0.603385
     58          1           0        2.351161   -5.228065   -1.546499
     59          1           0        4.590583   -1.113506    1.064387
     60          1           0        5.579435    0.272338    1.654416
     61          1           0        4.769413    4.503022   -0.047455
     62          1           0        5.658661    3.086385    0.132930
     63          1           0        4.703378    3.719443    1.558077
     64          1           0        2.001623    4.896821    0.634658
     65          1           0       -7.870223   -2.079712    1.141464
     66          1           0       -7.293998   -3.866400    1.846254
     67          1           0       -7.123631   -3.316032    0.024770
     68          1           0       -7.071187   -0.589954   -0.380351
     69          1           0       -4.601620    1.178857   -0.553573
     70          1           0       -6.289596    1.222206   -1.642078
     71          1           0       -4.667840   -0.003085   -1.862361
     72          1           0       -3.222020    6.359725    1.114057
     73          1           0       -3.705506    4.785869    1.160144
     74          1           0        0.330320    6.509846    1.708242
     75          1           0       -1.231035    7.176979    0.805378
     76          1           0        0.472108    7.153814   -0.079150
     77          1           0       -3.172687    6.583271   -1.340081
     78          1           0       -4.986810    6.469984   -0.583811
     79          1           0       -4.104161    4.919147   -1.401277
     80          1           0        3.460861   -4.426469    1.919879
     81          1           0        8.210198   -1.944580    1.647423
 ---------------------------------------------------------------------

 SCF Done:  E(RB3LYP) =  -1949.09297368     A.U. after   17 cycles

 Excitation energies and oscillator strengths:

 Excited State   1:      Singlet-A      1.8058 eV  686.57 nm  f=0.4457  <S**2>=0.000
     156 ->157         0.71458
     156 <-157        -0.14236
 This state for optimization and/or second-order correction.
 Total Energy, E(TD-HF/TD-DFT) =  -1949.02661010
 Copying the excited state density for this state as the 1-particle RhoCI density.

 The electronic state is 1-A.
 Alpha  occ. eigenvalues --  -19.20484 -19.18831 -19.14636 -19.12847 -19.11803
 Alpha  occ. eigenvalues --  -19.09675 -14.37642 -14.36724 -14.35448 -14.27770
 Alpha  occ. eigenvalues --  -10.34166 -10.32821 -10.29233 -10.25074 -10.24615
 Alpha  occ. eigenvalues --  -10.23309 -10.23307 -10.22940 -10.22348 -10.21844
 Alpha  occ. eigenvalues --  -10.21607 -10.21095 -10.20838 -10.20604 -10.20568
 Alpha  occ. eigenvalues --  -10.20530 -10.20497 -10.20283 -10.20203 -10.20017
 Alpha  occ. eigenvalues --  -10.19761 -10.19654 -10.19526 -10.19393 -10.19383
 Alpha  occ. eigenvalues --  -10.19330 -10.19264 -10.19123 -10.18776 -10.18430
 Alpha  occ. eigenvalues --  -10.17823 -10.17429 -10.17390  -1.09443  -1.08069
 Alpha  occ. eigenvalues --   -1.05915  -1.05006  -1.00031  -0.99294  -0.98445
 Alpha  occ. eigenvalues --   -0.98414  -0.96032  -0.91984  -0.83145  -0.82822
 Alpha  occ. eigenvalues --   -0.82404  -0.82079  -0.79938  -0.79426  -0.78896
 Alpha  occ. eigenvalues --   -0.77283  -0.76931  -0.75203  -0.74290  -0.72671
 Alpha  occ. eigenvalues --   -0.71051  -0.70130  -0.68881  -0.68696  -0.67554
 Alpha  occ. eigenvalues --   -0.67134  -0.65825  -0.63704  -0.62457  -0.61355
 Alpha  occ. eigenvalues --   -0.60481  -0.59810  -0.59011  -0.58063  -0.57400
 Alpha  occ. eigenvalues --   -0.56385  -0.55155  -0.54572  -0.53895  -0.52647
 Alpha  occ. eigenvalues --   -0.52465  -0.52088  -0.51554  -0.50376  -0.49907
 Alpha  occ. eigenvalues --   -0.49724  -0.49291  -0.48643  -0.47974  -0.47534
 Alpha  occ. eigenvalues --   -0.47266  -0.47017  -0.46343  -0.45696  -0.45433
 Alpha  occ. eigenvalues --   -0.44876  -0.44676  -0.44569  -0.44214  -0.44009
 Alpha  occ. eigenvalues --   -0.43954  -0.43573  -0.42961  -0.42704  -0.42331
 Alpha  occ. eigenvalues --   -0.42112  -0.41743  -0.41402  -0.41336  -0.40804
 Alpha  occ. eigenvalues --   -0.40607  -0.40359  -0.40289  -0.40028  -0.39926
 Alpha  occ. eigenvalues --   -0.39714  -0.39524  -0.38604  -0.38435  -0.38261
 Alpha  occ. eigenvalues --   -0.38117  -0.37784  -0.37413  -0.37104  -0.37012
 Alpha  occ. eigenvalues --   -0.36683  -0.35594  -0.35436  -0.35265  -0.35215
 Alpha  occ. eigenvalues --   -0.34927  -0.34584  -0.34114  -0.33487  -0.33245
 Alpha  occ. eigenvalues --   -0.32327  -0.32143  -0.31740  -0.30751  -0.29889
 Alpha  occ. eigenvalues --   -0.27982  -0.27410  -0.27288  -0.26425  -0.25745
 Alpha  occ. eigenvalues --   -0.25130  -0.25073  -0.23856  -0.22767  -0.21603
 Alpha  occ. eigenvalues --   -0.17120
 Alpha virt. eigenvalues --   -0.10288  -0.05892  -0.03820  -0.02712  -0.01734
 Alpha virt. eigenvalues --   -0.00439   0.01690   0.02135   0.02832   0.03668
 Alpha virt. eigenvalues --    0.03948   0.04462   0.04922   0.05647   0.06253

 Mulliken charges:
               1
     1  O   -0.156465
     2  O   -0.234198
     3  O   -0.209005
     4  O   -0.268231
     5  O   -0.267947
     6  O   -0.133506
     7  N   -0.016635
     8  N   -0.089946
     9  N   -0.187609
    10  N   -0.304666
    11  C   -0.113304
    12  C    0.101225
    13  C   -0.203836
    14  C    0.124029
    15  C   -0.075444
    16  C   -0.024465
    17  C   -0.050812
    18  C   -0.131613
    19  C    0.065712
    20  C   -0.042509
    21  C    0.067251
    22  C    0.101332
    23  C   -0.001977
    24  C    0.007522
    25  C   -0.166845
    26  C    0.159413
    27  C    0.098167
    28  C    0.199354
    29  C    0.004868
    30  C    0.121637
    31  C   -0.105863
    32  C    0.016249
    33  C   -0.234975
    34  C    0.117970
    35  C   -0.115788
    36  C   -0.203479
    37  C    0.148267
    38  C   -0.002510
    39  C    0.179799
    40  C    0.163568
    41  C    0.087535
    42  C    0.019676
    43  C   -0.062896
    44  H    0.057470
    45  H    0.021028
    46  H   -0.015454
    47  H    0.015127
    48  H    0.040884
    49  H    0.044074
    50  H    0.054931
    51  H    0.026027
    52  H    0.184688
    53  H    0.028414
    54  H    0.040116
    55  H   -0.017676
    56  H    0.192975
    57  H    0.003408
    58  H   -0.031042
    59  H    0.094370
    60  H   -0.003148
    61  H    0.011557
    62  H   -0.018613
    63  H    0.033123
    64  H   -0.080260
    65  H    0.038373
    66  H    0.063194
    67  H    0.022455
    68  H    0.027228
    69  H    0.100157
    70  H    0.049399
    71  H    0.032347
    72  H   -0.035595
    73  H   -0.006553
    74  H    0.029588
    75  H    0.030885
    76  H    0.052239
    77  H    0.020555
    78  H    0.033190
    79  H    0.051221
    80  H    0.231876
    81  H    0.198392
 Sum of Mulliken charges =  -0.00000

 Dipole moment (field-independent basis, Debye):
    X=              2.1135    Y=             -0.2011    Z=              1.8356  Tot=              2.8066
 Quadrupole moment (field-independent basis, Debye-Ang):
   XX=           -246.8159   YY=           -246.6859   ZZ=           -254.5248
   XY=            -11.3930   XZ=             19.1987   YZ=             13.8791

 Normal termination of Gaussian 16 at Thu Jul  4 09:55:54 2019.
