 Gaussian 16, Revision A.03,
 Gaussian 16:  ES64L-G16RevA.03 25-Dec-2016

 --------------------------
 # td=(NStates=1) B3LYP/SVP
 --------------------------

 --
 TD
 --
 Symbolic Z-matrix:
 Charge =  0 Multiplicity = 1

                         Standard orientation:
 ---------------------------------------------------------------------
 Center     Atomic      Atomic             Coordinates (Angstroms)
 Number     Number       Type             X           Y           Z
 ---------------------------------------------------------------------
      1          8           0        4.644101   -4.664295   -1.929492
      2          8           0       -3.025258   -4.774148   -1.152891
      3          8           0       -6.822649   -1.930525   -1.824025
      4          8           0       -3.631731   -2.906441    0.005886
      5          8           0       -7.611255   -0.728316    0.021844
      6          8           0        2.973598    2.570031    0.299628
      7          7           0        0.314314   -0.557535    0.623242
      8          7           0       -1.575243    1.796025    0.416452
      9          7           0        3.554031   -3.086403   -0.555716
     10          7           0        0.651668    2.825786    0.031046
     11          6           0       -0.561916   -2.449118    1.285213
     12          6           0       -0.848372   -1.068583    0.895979
     13          6           0        0.777615   -2.722171    1.195100
     14          6           0        1.363522   -1.486779    0.753437
     15          6           0       -3.829867    1.345797    0.315968
     16          6           0       -2.516394    0.777373    0.535803
     17          6           0       -2.184858   -0.500477    0.754291
     18          6           0       -3.638534    2.637625    0.021429
     19          6           0       -1.537504   -3.408431    1.994081
     20          6           0        5.670543   -2.468839   -1.463645
     21          6           0        3.714617   -1.792275   -0.139537
     22          6           0       -2.154482    2.954872    0.005859
     23          6           0        5.052115   -1.387397   -0.601695
     24          6           0       -5.006182    0.556892    0.381611
     25          6           0        2.768064   -1.076519    0.451930
     26          6           0        1.594585   -3.836139    1.876090
     27          6           0        4.563187   -3.576555   -1.418100
     28          6           0       -2.058143   -4.575243    1.000004
     29          6           0       -5.407153   -0.170639   -0.908963
     30          6           0       -4.722894    3.801093   -0.362816
     31          6           0       -1.416996    3.968685   -0.319467
     32          6           0        7.031076   -2.926689   -1.119569
     33          6           0        5.862289   -0.466273    0.104829
     34          6           0       -0.082995    3.971434   -0.250055
     35          6           0        0.825326    5.119716   -0.548105
     36          6           0        2.101962    4.689488   -0.429468
     37          6           0       -2.977312   -3.980854   -0.129440
     38          6           0        5.276189    0.417256    1.317507
     39          6           0       -6.700813   -0.944509   -0.792139
     40          6           0        3.465424    5.380049   -0.426858
     41          6           0        1.988616    3.185558    0.058926
     42          6           0        0.344888    6.590309   -0.815198
     43          6           0        3.980654    5.741350    1.030592
     44          1           0        0.614257    0.443870    0.432092
     45          1           0       -2.891081   -1.349451    0.864204
     46          1           0       -2.502637   -3.128245    2.561931
     47          1           0       -0.905053   -3.691784    2.896344
     48          1           0        5.556717   -2.194329   -2.657137
     49          1           0       -4.887648   -0.274423    1.168379
     50          1           0       -5.921342    1.165545    0.652823
     51          1           0        3.009636    0.077378    0.699382
     52          1           0       -0.472030    1.801320    0.335313
     53          1           0        1.495677   -4.613114    1.180613
     54          1           0        2.560521   -3.464114    2.003903
     55          1           0        1.134698   -4.093657    2.753172
     56          1           0        2.737352   -3.569968   -0.471917
     57          1           0       -1.267861   -5.212225    0.508218
     58          1           0       -2.748730   -5.152593    1.585231
     59          1           0       -4.437491   -0.894715   -1.239116
     60          1           0       -5.491624    0.520261   -1.880398
     61          1           0       -4.393891    4.712917    0.231511
     62          1           0       -5.534600    3.284506   -0.150545
     63          1           0       -4.548567    4.071961   -1.399536
     64          1           0       -1.896034    5.007709   -0.510527
     65          1           0        7.869010   -2.233220   -1.429827
     66          1           0        7.243684   -3.889100   -1.614027
     67          1           0        7.094985   -3.091824    0.053891
     68          1           0        6.844495   -0.506708   -0.143158
     69          1           0        4.865203    1.380187    1.128548
     70          1           0        6.289553    0.826156    1.742305
     71          1           0        4.756512   -0.224633    2.019512
     72          1           0        3.221297    6.352374   -1.207733
     73          1           0        4.023771    4.646952   -1.006711
     74          1           0       -0.637918    6.646206   -1.553558
     75          1           0        1.043575    7.229455   -0.864186
     76          1           0       -0.014169    7.182626    0.150915
     77          1           0        3.248208    6.334328    1.691018
     78          1           0        5.177104    6.274474    0.879148
     79          1           0        4.041343    4.790258    1.531153
     80          1           0       -3.656247   -4.291868   -1.747036
     81          1           0       -7.866069   -2.048118   -1.688507
 ---------------------------------------------------------------------

 SCF Done:  E(RB3LYP) =  -1949.06573262     A.U. after   16 cycles

 Excitation energies and oscillator strengths:

 Excited State   1:      Singlet-A      1.9645 eV  631.13 nm  f=0.3585  <S**2>=0.000
     156 ->157         0.70752
 This state for optimization and/or second-order correction.
 Total Energy, E(TD-HF/TD-DFT) =  -1948.99353936
 Copying the excited state density for this state as the 1-particle RhoCI density.

 The electronic state is 1-A.
 Alpha  occ. eigenvalues --  -19.22295 -19.18629 -19.14569 -19.14335 -19.11587
 Alpha  occ. eigenvalues --  -19.10965 -14.37995 -14.36360 -14.34555 -14.29878
 Alpha  occ. eigenvalues --  -10.34646 -10.33256 -10.29452 -10.26810 -10.23380
 Alpha  occ. eigenvalues --  -10.23282 -10.23128 -10.23126 -10.22964 -10.22521
 Alpha  occ. eigenvalues --  -10.22461 -10.22201 -10.22088 -10.21344 -10.20858
 Alpha  occ. eigenvalues --  -10.20816 -10.20583 -10.20543 -10.20311 -10.20140
 Alpha  occ. eigenvalues --  -10.20014 -10.19966 -10.19939 -10.19827 -10.19705
 Alpha  occ. eigenvalues --  -10.19665 -10.19266 -10.19169 -10.19021 -10.18730
 Alpha  occ. eigenvalues --  -10.18547 -10.18504 -10.18124  -1.13808  -1.07118
 Alpha  occ. eigenvalues --   -1.03945  -1.03563  -1.01068  -0.99116  -0.98867
 Alpha  occ. eigenvalues --   -0.97353  -0.96026  -0.91508  -0.83334  -0.81591
 Alpha  occ. eigenvalues --   -0.81201  -0.80747  -0.78931  -0.78682  -0.77079
 Alpha  occ. eigenvalues --   -0.76939  -0.76217  -0.74043  -0.73281  -0.72389
 Alpha  occ. eigenvalues --   -0.71474  -0.69759  -0.68708  -0.68538  -0.68055
 Alpha  occ. eigenvalues --   -0.67131  -0.65860  -0.64602  -0.62156  -0.61883
 Alpha  occ. eigenvalues --   -0.61210  -0.58955  -0.57408  -0.57163  -0.56545
 Alpha  occ. eigenvalues --   -0.55561  -0.55078  -0.54227  -0.54092  -0.52776
 Alpha  occ. eigenvalues --   -0.52413  -0.51856  -0.50854  -0.49776  -0.49643
 Alpha  occ. eigenvalues --   -0.49376  -0.49060  -0.48610  -0.48541  -0.47395
 Alpha  occ. eigenvalues --   -0.47086  -0.46229  -0.45974  -0.45785  -0.45308
 Alpha  occ. eigenvalues --   -0.44831  -0.44397  -0.44180  -0.44078  -0.43498
 Alpha  occ. eigenvalues --   -0.43393  -0.43159  -0.42885  -0.42544  -0.42374
 Alpha  occ. eigenvalues --   -0.42226  -0.41694  -0.41420  -0.41304  -0.40984
 Alpha  occ. eigenvalues --   -0.40265  -0.40173  -0.39865  -0.39751  -0.39706
 Alpha  occ. eigenvalues --   -0.39306  -0.39091  -0.38605  -0.38438  -0.38321
 Alpha  occ. eigenvalues --   -0.38230  -0.37966  -0.37659  -0.37272  -0.36862
 Alpha  occ. eigenvalues --   -0.36419  -0.35673  -0.35120  -0.34537  -0.34305
 Alpha  occ. eigenvalues --   -0.33735  -0.33538  -0.33374  -0.33203  -0.32971
 Alpha  occ. eigenvalues --   -0.32851  -0.32574  -0.32434  -0.29713  -0.29559
 Alpha  occ. eigenvalues --   -0.29202  -0.28784  -0.26700  -0.26280  -0.25497
 Alpha  occ. eigenvalues --   -0.25243  -0.24599  -0.23777  -0.23517  -0.22052
 Alpha  occ. eigenvalues --   -0.17587
 Alpha virt. eigenvalues --   -0.09723  -0.04790  -0.03136  -0.02497  -0.01804
 Alpha virt. eigenvalues --   -0.00061   0.02455   0.02624   0.03472   0.04015
 Alpha virt. eigenvalues --    0.04071   0.04452   0.05139   0.05240   0.06444

 Mulliken charges:
               1
     1  O   -0.194476
     2  O   -0.111110
     3  O   -0.275617
     4  O   -0.288636
     5  O   -0.248404
     6  O   -0.178997
     7  N   -0.039256
     8  N   -0.155218
     9  N   -0.088170
    10  N   -0.359171
    11  C   -0.114658
    12  C   -0.016582
    13  C   -0.200123
    14  C   -0.006925
    15  C   -0.013694
    16  C    0.158410
    17  C   -0.087026
    18  C   -0.186580
    19  C    0.003863
    20  C   -0.093894
    21  C    0.074502
    22  C    0.150217
    23  C   -0.041464
    24  C    0.052344
    25  C   -0.132443
    26  C    0.222639
    27  C    0.115834
    28  C    0.023917
    29  C   -0.097833
    30  C    0.178694
    31  C   -0.185522
    32  C    0.028944
    33  C   -0.063406
    34  C    0.106578
    35  C   -0.056215
    36  C   -0.224993
    37  C    0.140181
    38  C    0.034098
    39  C    0.215938
    40  C    0.034801
    41  C    0.158496
    42  C    0.120188
    43  C   -0.037274
    44  H    0.161400
    45  H    0.022733
    46  H    0.030502
    47  H    0.021850
    48  H    0.057193
    49  H    0.037175
    50  H    0.029501
    51  H    0.074328
    52  H    0.177073
    53  H    0.004869
    54  H    0.015767
    55  H   -0.012844
    56  H    0.085524
    57  H    0.045266
    58  H    0.034821
    59  H    0.073762
    60  H    0.061474
    61  H    0.034477
    62  H   -0.019014
    63  H    0.022996
    64  H   -0.009310
    65  H    0.033152
    66  H    0.030048
    67  H    0.031196
    68  H   -0.038217
    69  H    0.062463
    70  H    0.000456
    71  H    0.044078
    72  H    0.022118
    73  H    0.027557
    74  H    0.051016
    75  H   -0.065215
    76  H    0.013738
    77  H    0.034649
    78  H    0.045727
    79  H    0.030998
    80  H    0.197091
    81  H    0.207650
 Sum of Mulliken charges =  -0.00000

 Dipole moment (field-independent basis, Debye):
    X=             -2.7341    Y=              0.1880    Z=              0.0586  Tot=              2.7411
 Quadrupole moment (field-independent basis, Debye-Ang):
   XX=           -256.7030   YY=           -241.4383   ZZ=           -253.9235
   XY=             13.4216   XZ=             16.8548   YZ=            -10.4748

 Normal termination of Gaussian 16 at Fri Jun 28 14:03:05 2019.
