 Gaussian 16, Revision A.03,
 Gaussian 16:  ES64L-G16RevA.03 25-Dec-2016

 --------------------------
 # td=(NStates=1) B3LYP/SVP
 --------------------------

 --
 TD
 --
 Symbolic Z-matrix:
 Charge =  0 Multiplicity = 1

                         Standard orientation:
 ---------------------------------------------------------------------
 Center     Atomic      Atomic             Coordinates (Angstroms)
 Number     Number       Type             X           Y           Z
 ---------------------------------------------------------------------
      1          8           0        4.675636   -4.639467   -1.918306
      2          8           0       -2.549776   -5.111175   -1.057518
      3          8           0       -7.017284   -1.679662   -1.952384
      4          8           0       -3.558887   -3.392784   -0.086629
      5          8           0       -7.563529   -0.884711    0.014744
      6          8           0        2.871736    2.545507    0.217370
      7          7           0        0.303341   -0.501287    0.491729
      8          7           0       -1.691288    1.706385    0.531122
      9          7           0        3.439567   -3.018230   -0.721618
     10          7           0        0.570067    2.931378    0.039439
     11          6           0       -0.489692   -2.388960    1.426958
     12          6           0       -0.861364   -1.075500    1.017869
     13          6           0        0.882527   -2.496795    1.278026
     14          6           0        1.359968   -1.366934    0.765382
     15          6           0       -3.897852    1.300301    0.301202
     16          6           0       -2.616422    0.690262    0.551761
     17          6           0       -2.215214   -0.605418    0.755540
     18          6           0       -3.779904    2.644986    0.032002
     19          6           0       -1.429464   -3.464944    2.008213
     20          6           0        5.632792   -2.422112   -1.397377
     21          6           0        3.670307   -1.778604   -0.057731
     22          6           0       -2.284180    2.914786    0.101472
     23          6           0        5.151582   -1.389997   -0.369327
     24          6           0       -5.141315    0.549608    0.354503
     25          6           0        2.761199   -0.877324    0.435324
     26          6           0        1.562145   -3.780909    1.631033
     27          6           0        4.590651   -3.553094   -1.362442
     28          6           0       -1.758001   -4.627871    1.080666
     29          6           0       -5.445560   -0.204342   -0.922941
     30          6           0       -4.750983    3.664768   -0.280557
     31          6           0       -1.588035    4.096493   -0.139934
     32          6           0        7.025189   -3.084277   -1.066707
     33          6           0        5.946683   -0.422099    0.158369
     34          6           0       -0.155575    4.037716   -0.201242
     35          6           0        0.756900    5.158899   -0.459804
     36          6           0        2.040227    4.857901   -0.236961
     37          6           0       -2.717674   -4.240882   -0.063761
     38          6           0        5.454542    0.726653    1.045467
     39          6           0       -6.792692   -0.968204   -0.926772
     40          6           0        3.359422    5.473736   -0.589467
     41          6           0        1.935121    3.285599    0.022114
     42          6           0        0.303441    6.479268   -0.850245
     43          6           0        4.191435    5.855571    0.817084
     44          1           0        0.457341    0.489148    0.249981
     45          1           0       -3.084763   -1.229503    0.770532
     46          1           0       -2.409776   -3.063287    2.266915
     47          1           0       -1.102210   -3.889615    3.045751
     48          1           0        5.545484   -2.031115   -2.329066
     49          1           0       -5.148604   -0.001843    1.265626
     50          1           0       -5.950631    1.416960    0.455380
     51          1           0        3.085027    0.150017    0.670585
     52          1           0       -0.755289    1.806970    0.694869
     53          1           0        1.747793   -4.515791    0.940929
     54          1           0        2.576086   -3.337445    2.050429
     55          1           0        1.029035   -4.143524    2.525659
     56          1           0        2.592716   -3.527108   -0.513804
     57          1           0       -0.822633   -5.015721    0.650525
     58          1           0       -2.028422   -5.440890    1.979218
     59          1           0       -4.620111   -0.961541   -1.321594
     60          1           0       -5.452630    0.422132   -1.670486
     61          1           0       -4.971406    4.336434    0.802902
     62          1           0       -5.817117    3.211881   -0.477112
     63          1           0       -4.415595    4.223238   -1.164852
     64          1           0       -2.317122    5.063105   -0.266339
     65          1           0        7.836853   -2.325995   -1.100442
     66          1           0        7.221438   -4.045121   -1.718832
     67          1           0        6.992306   -3.216336    0.088803
     68          1           0        7.018576   -0.418139   -0.073729
     69          1           0        4.724517    1.269214    0.471863
     70          1           0        6.229185    1.107676    1.512728
     71          1           0        5.093266    0.168496    2.126679
     72          1           0        3.184536    6.282228   -1.188444
     73          1           0        3.954932    4.916286   -1.086028
     74          1           0       -0.229487    6.707168   -1.781047
     75          1           0        1.129926    7.332872   -0.687602
     76          1           0       -0.448108    6.626291    0.041812
     77          1           0        3.366546    6.468544    1.409362
     78          1           0        4.972230    6.648223    0.550299
     79          1           0        4.615463    4.993101    1.282341
     80          1           0       -3.314534   -4.806243   -1.804954
     81          1           0       -7.901011   -2.129833   -1.938088
 ---------------------------------------------------------------------

 SCF Done:  E(RB3LYP) =  -1949.09217529     A.U. after   16 cycles

 Excitation energies and oscillator strengths:

 Excited State   1:      Singlet-A      1.9732 eV  628.33 nm  f=0.3166  <S**2>=0.000
     156 ->157         0.70320
 This state for optimization and/or second-order correction.
 Total Energy, E(TD-HF/TD-DFT) =  -1949.01966062
 Copying the excited state density for this state as the 1-particle RhoCI density.

 The electronic state is 1-A.
 Alpha  occ. eigenvalues --  -19.20108 -19.19840 -19.14430 -19.11435 -19.11177
 Alpha  occ. eigenvalues --  -19.11106 -14.36844 -14.36715 -14.35529 -14.29648
 Alpha  occ. eigenvalues --  -10.33378 -10.31716 -10.29160 -10.27324 -10.24829
 Alpha  occ. eigenvalues --  -10.24161 -10.24043 -10.22971 -10.22758 -10.22483
 Alpha  occ. eigenvalues --  -10.22401 -10.22241 -10.20960 -10.20729 -10.20721
 Alpha  occ. eigenvalues --  -10.20588 -10.20401 -10.20384 -10.20345 -10.20173
 Alpha  occ. eigenvalues --  -10.19854 -10.19594 -10.19545 -10.19505 -10.19477
 Alpha  occ. eigenvalues --  -10.19471 -10.19289 -10.19023 -10.18931 -10.18721
 Alpha  occ. eigenvalues --  -10.17879 -10.17817 -10.17791  -1.12541  -1.11055
 Alpha  occ. eigenvalues --   -1.02497  -1.02387  -1.01741  -0.99930  -0.97856
 Alpha  occ. eigenvalues --   -0.96758  -0.93377  -0.92057  -0.83421  -0.81889
 Alpha  occ. eigenvalues --   -0.81042  -0.80355  -0.80030  -0.78743  -0.77649
 Alpha  occ. eigenvalues --   -0.76853  -0.75900  -0.74867  -0.73774  -0.72465
 Alpha  occ. eigenvalues --   -0.71346  -0.69328  -0.68680  -0.67695  -0.67220
 Alpha  occ. eigenvalues --   -0.66371  -0.64794  -0.64387  -0.63276  -0.62341
 Alpha  occ. eigenvalues --   -0.60897  -0.59484  -0.58397  -0.57604  -0.56644
 Alpha  occ. eigenvalues --   -0.55935  -0.55391  -0.54020  -0.53096  -0.52812
 Alpha  occ. eigenvalues --   -0.52153  -0.51893  -0.51152  -0.50795  -0.49795
 Alpha  occ. eigenvalues --   -0.49535  -0.48471  -0.48317  -0.48128  -0.48011
 Alpha  occ. eigenvalues --   -0.47434  -0.47232  -0.46485  -0.45447  -0.45232
 Alpha  occ. eigenvalues --   -0.45090  -0.44827  -0.44796  -0.43985  -0.43739
 Alpha  occ. eigenvalues --   -0.43306  -0.43013  -0.42860  -0.42665  -0.42204
 Alpha  occ. eigenvalues --   -0.42005  -0.41769  -0.41514  -0.41042  -0.40897
 Alpha  occ. eigenvalues --   -0.40660  -0.40224  -0.39949  -0.39695  -0.39427
 Alpha  occ. eigenvalues --   -0.38982  -0.38787  -0.38613  -0.38269  -0.38169
 Alpha  occ. eigenvalues --   -0.37651  -0.37396  -0.36888  -0.36745  -0.36135
 Alpha  occ. eigenvalues --   -0.35573  -0.35187  -0.34637  -0.34525  -0.34384
 Alpha  occ. eigenvalues --   -0.34174  -0.34032  -0.33911  -0.33810  -0.33670
 Alpha  occ. eigenvalues --   -0.33604  -0.32046  -0.31084  -0.30023  -0.29304
 Alpha  occ. eigenvalues --   -0.28335  -0.27258  -0.26138  -0.25641  -0.25436
 Alpha  occ. eigenvalues --   -0.25182  -0.24689  -0.24072  -0.23414  -0.21727
 Alpha  occ. eigenvalues --   -0.18201
 Alpha virt. eigenvalues --   -0.10148  -0.05500  -0.03132  -0.02194   0.00538
 Alpha virt. eigenvalues --    0.00600   0.01570   0.01949   0.02737   0.02996
 Alpha virt. eigenvalues --    0.03678   0.04111   0.04862   0.05600   0.06525

 Mulliken charges:
               1
     1  O   -0.217204
     2  O   -0.223906
     3  O   -0.116723
     4  O   -0.207189
     5  O   -0.252221
     6  O   -0.187717
     7  N   -0.107757
     8  N   -0.057297
     9  N   -0.155354
    10  N   -0.319760
    11  C   -0.078920
    12  C    0.083894
    13  C   -0.167873
    14  C    0.036635
    15  C   -0.087887
    16  C    0.065797
    17  C   -0.029282
    18  C   -0.079832
    19  C    0.040195
    20  C   -0.008985
    21  C    0.103630
    22  C    0.049595
    23  C   -0.035607
    24  C    0.094649
    25  C   -0.073437
    26  C    0.077708
    27  C    0.150591
    28  C   -0.044796
    29  C    0.048802
    30  C   -0.005190
    31  C   -0.166392
    32  C   -0.004139
    33  C   -0.193391
    34  C    0.140017
    35  C   -0.084413
    36  C   -0.177377
    37  C    0.165574
    38  C    0.093585
    39  C    0.098701
    40  C    0.200928
    41  C    0.150652
    42  C    0.003867
    43  C   -0.068843
    44  H    0.141090
    45  H   -0.014937
    46  H    0.002240
    47  H    0.024307
    48  H    0.016303
    49  H    0.018566
    50  H    0.018965
    51  H    0.036818
    52  H    0.084375
    53  H    0.030522
    54  H    0.037473
    55  H    0.010476
    56  H    0.121280
    57  H    0.027401
    58  H    0.071733
    59  H    0.050668
    60  H   -0.035505
    61  H    0.059706
    62  H    0.033715
    63  H    0.046241
    64  H    0.031871
    65  H    0.015718
    66  H    0.068837
    67  H    0.019211
    68  H   -0.007145
    69  H    0.099274
    70  H   -0.041573
    71  H    0.023315
    72  H   -0.036607
    73  H   -0.043528
    74  H    0.036010
    75  H    0.032091
    76  H    0.034387
    77  H    0.030834
    78  H    0.020254
    79  H    0.048479
    80  H    0.234528
    81  H    0.199278
 Sum of Mulliken charges =  -0.00000

 Dipole moment (field-independent basis, Debye):
    X=             -3.7820    Y=              1.6530    Z=             -1.0592  Tot=              4.2612
 Quadrupole moment (field-independent basis, Debye-Ang):
   XX=           -249.3162   YY=           -240.0955   ZZ=           -251.5090
   XY=             19.3767   XZ=             23.6913   YZ=            -12.2858

 Normal termination of Gaussian 16 at Sat Jun 29 11:04:52 2019.
