 Gaussian 16, Revision A.03,
 Gaussian 16:  ES64L-G16RevA.03 25-Dec-2016

 --------------------------
 # td=(NStates=1) B3LYP/SVP
 --------------------------

 --
 TD
 --
 Symbolic Z-matrix:
 Charge =  0 Multiplicity = 1

                         Standard orientation:
 ---------------------------------------------------------------------
 Center     Atomic      Atomic             Coordinates (Angstroms)
 Number     Number       Type             X           Y           Z
 ---------------------------------------------------------------------
      1          8           0        4.650249   -4.744203   -1.721781
      2          8           0       -3.076663   -4.913119   -1.361087
      3          8           0       -7.282601   -1.398658   -1.771777
      4          8           0       -3.741841   -3.141746   -0.201219
      5          8           0       -7.627157   -0.621484    0.229922
      6          8           0        3.077572    2.380369    0.102038
      7          7           0        0.360255   -0.504006    0.549846
      8          7           0       -1.654039    1.712752    0.311242
      9          7           0        3.652636   -3.211782   -0.437497
     10          7           0        0.797421    2.882979    0.211225
     11          6           0       -0.600759   -2.556503    1.204971
     12          6           0       -0.882114   -1.169174    0.860832
     13          6           0        0.759703   -2.631716    1.293735
     14          6           0        1.376640   -1.423174    0.730382
     15          6           0       -3.855289    1.371920    0.308373
     16          6           0       -2.445154    0.771918    0.607951
     17          6           0       -2.153574   -0.572174    0.870663
     18          6           0       -3.566850    2.674588   -0.049780
     19          6           0       -1.606812   -3.525269    1.805896
     20          6           0        5.675756   -2.528684   -1.316795
     21          6           0        3.737755   -1.814177   -0.068106
     22          6           0       -2.138193    2.908694   -0.024154
     23          6           0        5.094615   -1.460871   -0.435633
     24          6           0       -5.167109    0.612665    0.456502
     25          6           0        2.654740   -1.077931    0.524520
     26          6           0        1.475956   -3.887228    1.740288
     27          6           0        4.650544   -3.606616   -1.193144
     28          6           0       -2.090803   -4.611116    0.798283
     29          6           0       -5.530869    0.019196   -0.890737
     30          6           0       -4.607578    3.843642   -0.122892
     31          6           0       -1.422985    4.067045   -0.237988
     32          6           0        7.061281   -3.081284   -0.949157
     33          6           0        5.806652   -0.465898    0.042979
     34          6           0        0.073010    4.039163   -0.118566
     35          6           0        0.960255    5.217945   -0.464115
     36          6           0        2.255759    4.684015   -0.340185
     37          6           0       -2.969940   -4.203145   -0.279283
     38          6           0        5.443136    0.637415    1.037565
     39          6           0       -6.893383   -0.777680   -0.728616
     40          6           0        3.572406    5.405751   -0.538033
     41          6           0        2.085906    3.206881   -0.026015
     42          6           0        0.437167    6.587989   -0.738937
     43          6           0        4.240543    5.771761    0.819509
     44          1           0        0.486879    0.448176    0.044349
     45          1           0       -3.194105   -1.206252    0.888429
     46          1           0       -2.510652   -2.933712    2.291865
     47          1           0       -1.046688   -4.171011    2.542809
     48          1           0        5.682358   -2.335946   -2.313543
     49          1           0       -5.303335   -0.339301    1.392211
     50          1           0       -6.085974    1.212170    0.638598
     51          1           0        2.947985   -0.070332    0.549493
     52          1           0       -0.610748    1.820212    0.572870
     53          1           0        1.212193   -4.907221    1.140440
     54          1           0        2.606504   -3.789315    1.881874
     55          1           0        1.206236   -4.287430    2.845762
     56          1           0        2.748124   -3.660115   -0.586008
     57          1           0       -1.225003   -5.315901    0.393662
     58          1           0       -2.835955   -5.153933    1.424867
     59          1           0       -4.818546   -0.689824   -1.413116
     60          1           0       -5.849627    0.681470   -1.817204
     61          1           0       -4.529009    4.873221    0.502166
     62          1           0       -5.736999    3.731566    0.194718
     63          1           0       -4.565319    4.148428   -1.163899
     64          1           0       -2.018198    4.954630   -0.545269
     65          1           0        7.922458   -2.387756   -1.067980
     66          1           0        7.341951   -3.890587   -1.728647
     67          1           0        7.147399   -3.579014    0.083610
     68          1           0        6.878709   -0.623205   -0.236708
     69          1           0        4.648521    1.270087    0.565685
     70          1           0        6.319700    1.107648    1.607946
     71          1           0        4.985795    0.080272    1.814596
     72          1           0        3.205065    6.471432   -1.023300
     73          1           0        4.358698    4.866833   -1.274794
     74          1           0        0.063164    6.548734   -1.749521
     75          1           0        1.129483    7.401685   -0.731647
     76          1           0       -0.572730    6.953137    0.011058
     77          1           0        3.859433    6.459205    1.387993
     78          1           0        5.297284    6.233222    0.539610
     79          1           0        4.331816    4.911069    1.562001
     80          1           0       -3.804560   -4.366230   -1.943455
     81          1           0       -8.345162   -1.682664   -1.415867
 ---------------------------------------------------------------------

 SCF Done:  E(RB3LYP) =  -1949.05136114     A.U. after   20 cycles

 Excitation energies and oscillator strengths:

 Excited State   1:      Singlet-A      1.7350 eV  714.61 nm  f=0.4016  <S**2>=0.000
     156 ->157         0.71832
     156 <-157        -0.15707
 This state for optimization and/or second-order correction.
 Total Energy, E(TD-HF/TD-DFT) =  -1948.98760157
 Copying the excited state density for this state as the 1-particle RhoCI density.

 The electronic state is 1-A.
 Alpha  occ. eigenvalues --  -19.21379 -19.19912 -19.12442 -19.11798 -19.09356
 Alpha  occ. eigenvalues --  -19.09065 -14.38723 -14.37181 -14.36429 -14.29937
 Alpha  occ. eigenvalues --  -10.33711 -10.31290 -10.27910 -10.26251 -10.25540
 Alpha  occ. eigenvalues --  -10.24331 -10.24297 -10.23987 -10.23757 -10.23355
 Alpha  occ. eigenvalues --  -10.23153 -10.23086 -10.22318 -10.22312 -10.21775
 Alpha  occ. eigenvalues --  -10.21491 -10.21203 -10.21173 -10.21062 -10.20976
 Alpha  occ. eigenvalues --  -10.20642 -10.20620 -10.20556 -10.20434 -10.20184
 Alpha  occ. eigenvalues --  -10.19943 -10.19923 -10.19796 -10.19618 -10.19446
 Alpha  occ. eigenvalues --  -10.18983 -10.17597 -10.17577  -1.11536  -1.11362
 Alpha  occ. eigenvalues --   -1.02554  -1.01122  -0.99619  -0.97399  -0.96975
 Alpha  occ. eigenvalues --   -0.96707  -0.94249  -0.90061  -0.83077  -0.82839
 Alpha  occ. eigenvalues --   -0.81544  -0.80757  -0.79498  -0.78978  -0.78806
 Alpha  occ. eigenvalues --   -0.76655  -0.76126  -0.74914  -0.74061  -0.71604
 Alpha  occ. eigenvalues --   -0.69949  -0.69252  -0.68917  -0.68505  -0.67522
 Alpha  occ. eigenvalues --   -0.66324  -0.65718  -0.65178  -0.62851  -0.61247
 Alpha  occ. eigenvalues --   -0.60515  -0.59650  -0.59101  -0.57882  -0.56981
 Alpha  occ. eigenvalues --   -0.55933  -0.54892  -0.54793  -0.53545  -0.52390
 Alpha  occ. eigenvalues --   -0.51994  -0.51202  -0.50881  -0.50065  -0.49678
 Alpha  occ. eigenvalues --   -0.49496  -0.49094  -0.48433  -0.48066  -0.47848
 Alpha  occ. eigenvalues --   -0.47189  -0.46735  -0.46054  -0.45632  -0.44928
 Alpha  occ. eigenvalues --   -0.44673  -0.44373  -0.44084  -0.43770  -0.43409
 Alpha  occ. eigenvalues --   -0.42976  -0.42743  -0.42395  -0.41962  -0.41464
 Alpha  occ. eigenvalues --   -0.41218  -0.41082  -0.40780  -0.40373  -0.40173
 Alpha  occ. eigenvalues --   -0.39959  -0.39817  -0.39619  -0.39461  -0.39090
 Alpha  occ. eigenvalues --   -0.38979  -0.38821  -0.38569  -0.38194  -0.37617
 Alpha  occ. eigenvalues --   -0.37344  -0.37196  -0.37131  -0.36756  -0.36636
 Alpha  occ. eigenvalues --   -0.36102  -0.35938  -0.35169  -0.35078  -0.34508
 Alpha  occ. eigenvalues --   -0.33419  -0.33043  -0.32787  -0.32679  -0.32455
 Alpha  occ. eigenvalues --   -0.31851  -0.31599  -0.31125  -0.29309  -0.28026
 Alpha  occ. eigenvalues --   -0.27940  -0.27927  -0.26735  -0.26309  -0.25892
 Alpha  occ. eigenvalues --   -0.24943  -0.24594  -0.23721  -0.23025  -0.21966
 Alpha  occ. eigenvalues --   -0.17144
 Alpha virt. eigenvalues --   -0.10682  -0.06559  -0.04196  -0.02544  -0.00540
 Alpha virt. eigenvalues --    0.00430   0.00903   0.01596   0.01742   0.02258
 Alpha virt. eigenvalues --    0.02778   0.04042   0.04267   0.04414   0.05673

 Mulliken charges:
               1
     1  O   -0.266203
     2  O   -0.171621
     3  O   -0.196274
     4  O   -0.354349
     5  O   -0.276212
     6  O   -0.299502
     7  N   -0.152927
     8  N    0.026298
     9  N   -0.061985
    10  N   -0.304475
    11  C   -0.063995
    12  C    0.098084
    13  C   -0.097950
    14  C    0.172354
    15  C   -0.046272
    16  C   -0.047193
    17  C   -0.102014
    18  C   -0.070992
    19  C    0.076720
    20  C    0.070932
    21  C    0.018793
    22  C    0.034362
    23  C    0.001345
    24  C    0.017469
    25  C   -0.082124
    26  C   -0.066906
    27  C    0.034251
    28  C    0.012438
    29  C   -0.059175
    30  C   -0.024412
    31  C   -0.083005
    32  C   -0.011820
    33  C   -0.165871
    34  C    0.064248
    35  C   -0.075080
    36  C   -0.150134
    37  C    0.131245
    38  C    0.066596
    39  C    0.122615
    40  C   -0.006971
    41  C    0.178472
    42  C    0.059954
    43  C    0.030515
    44  H    0.183805
    45  H    0.084851
    46  H    0.057271
    47  H    0.014752
    48  H    0.003962
    49  H    0.078551
    50  H    0.025640
    51  H   -0.041687
    52  H    0.169159
    53  H    0.045272
    54  H    0.050440
    55  H    0.034923
    56  H    0.141814
    57  H    0.063677
    58  H    0.058780
    59  H    0.040970
    60  H    0.054692
    61  H    0.039120
    62  H    0.034614
    63  H    0.021464
    64  H   -0.009755
    65  H    0.024971
    66  H    0.035690
    67  H    0.032310
    68  H   -0.009188
    69  H    0.112934
    70  H    0.021249
    71  H    0.001862
    72  H    0.012268
    73  H    0.052827
    74  H    0.024503
    75  H    0.014227
    76  H    0.049170
    77  H   -0.036429
    78  H    0.013547
    79  H    0.032537
    80  H    0.245686
    81  H    0.240291
 Sum of Mulliken charges =  -0.00000

 Dipole moment (field-independent basis, Debye):
    X=             -3.5033    Y=              0.0100    Z=             -0.4777  Tot=              3.5357
 Quadrupole moment (field-independent basis, Debye-Ang):
   XX=           -249.2858   YY=           -239.7245   ZZ=           -254.3760
   XY=             16.9469   XZ=             17.7749   YZ=            -14.5491

 Normal termination of Gaussian 16 at Thu Jul  4 16:49:23 2019.
