 Gaussian 16, Revision A.03,
 Gaussian 16:  ES64L-G16RevA.03 25-Dec-2016

 --------------------------
 # td=(NStates=1) B3LYP/SVP
 --------------------------

 --
 TD
 --
 Symbolic Z-matrix:
 Charge =  0 Multiplicity = 1

                         Standard orientation:
 ---------------------------------------------------------------------
 Center     Atomic      Atomic             Coordinates (Angstroms)
 Number     Number       Type             X           Y           Z
 ---------------------------------------------------------------------
      1          8           0       -4.581652   -4.713215    1.954473
      2          8           0        2.720675   -5.045968    1.229460
      3          8           0        6.959110   -1.674218    1.963864
      4          8           0        3.489313   -3.202418    0.144507
      5          8           0        7.567825   -0.823165   -0.014604
      6          8           0       -2.847696    2.591360   -0.321136
      7          7           0       -0.312332   -0.555445   -0.627894
      8          7           0        1.570375    1.795117   -0.437496
      9          7           0       -3.456765   -3.079606    0.644586
     10          7           0       -0.646334    3.045252   -0.157460
     11          6           0        0.666352   -2.475423   -1.418402
     12          6           0        0.892330   -1.158437   -1.009310
     13          6           0       -0.797462   -2.624082   -1.223111
     14          6           0       -1.293330   -1.411048   -0.700321
     15          6           0        3.906104    1.365768   -0.436750
     16          6           0        2.507318    0.763499   -0.589594
     17          6           0        2.245526   -0.565574   -0.861795
     18          6           0        3.673755    2.692664   -0.055660
     19          6           0        1.653700   -3.470829   -1.980355
     20          6           0       -5.617241   -2.485087    1.314921
     21          6           0       -3.684446   -1.780730    0.118464
     22          6           0        2.247223    2.999162   -0.082238
     23          6           0       -5.080776   -1.441131    0.364981
     24          6           0        5.125986    0.498781   -0.361640
     25          6           0       -2.722647   -1.062450   -0.414571
     26          6           0       -1.580175   -3.767165   -1.730277
     27          6           0       -4.522765   -3.642427    1.404987
     28          6           0        1.939128   -4.636581   -1.033069
     29          6           0        5.314085   -0.208010    0.824673
     30          6           0        4.661414    3.748361    0.355290
     31          6           0        1.516669    4.124182    0.172892
     32          6           0       -7.054880   -3.113134    1.133664
     33          6           0       -5.883398   -0.573450   -0.308990
     34          6           0        0.029320    4.059469    0.091099
     35          6           0       -0.838816    5.269873    0.536510
     36          6           0       -2.089421    4.804342    0.281422
     37          6           0        2.758705   -4.251959    0.156277
     38          6           0       -5.510751    0.525260   -1.190522
     39          6           0        6.708235   -0.878377    0.826713
     40          6           0       -3.369147    5.544852    0.547391
     41          6           0       -1.924822    3.383059   -0.153657
     42          6           0       -0.342986    6.586750    1.012853
     43          6           0       -4.121643    5.844426   -0.791443
     44          1           0       -0.284212    0.310128    0.039704
     45          1           0        3.092428   -1.251484   -1.080621
     46          1           0        2.460189   -3.062935   -2.475185
     47          1           0        1.130898   -3.878153   -2.894148
     48          1           0       -5.434172   -1.917676    2.408091
     49          1           0        5.099585   -0.101103   -1.320621
     50          1           0        5.953410    1.247818   -0.561135
     51          1           0       -2.849538    0.053044   -0.573780
     52          1           0        0.605572    1.927288   -0.458821
     53          1           0       -1.650172   -4.643655   -1.006221
     54          1           0       -2.463358   -3.434449   -1.894274
     55          1           0       -1.027883   -4.295003   -2.605215
     56          1           0       -2.508690   -3.509633    0.972836
     57          1           0        0.890241   -4.987207   -0.623507
     58          1           0        2.406430   -5.447398   -1.540821
     59          1           0        4.754667   -1.223520    0.850037
     60          1           0        5.071791    0.287617    1.688032
     61          1           0        4.511148    4.832683    0.032415
     62          1           0        5.619383    3.360695    0.118628
     63          1           0        4.589842    3.865400    1.558778
     64          1           0        2.038943    4.997397    0.560240
     65          1           0       -7.794122   -2.295565    1.092749
     66          1           0       -7.411584   -3.943040    1.902136
     67          1           0       -7.299570   -3.779130    0.196948
     68          1           0       -6.841350   -0.518919    0.152064
     69          1           0       -5.143500    1.528324   -0.781613
     70          1           0       -6.198164    0.661575   -1.889561
     71          1           0       -4.668542    0.098023   -1.967874
     72          1           0       -3.181260    6.640611    0.888522
     73          1           0       -4.078601    5.062030    1.399878
     74          1           0        0.411810    6.478482    1.772626
     75          1           0       -1.159924    7.426095    1.332239
     76          1           0        0.193023    7.078509    0.080113
     77          1           0       -3.558707    6.361668   -1.662290
     78          1           0       -5.060220    6.479275   -0.555299
     79          1           0       -4.475423    4.870781   -1.142938
     80          1           0        3.428104   -4.688198    1.756927
     81          1           0        7.819469   -2.073953    1.823713
 ---------------------------------------------------------------------

 SCF Done:  E(RB3LYP) =  -1949.14552500     A.U. after   16 cycles

 Excitation energies and oscillator strengths:

 Excited State   1:      Singlet-A      1.8992 eV  652.83 nm  f=0.2954  <S**2>=0.000
     156 ->157         0.70440
 This state for optimization and/or second-order correction.
 Total Energy, E(TD-HF/TD-DFT) =  -1949.07573172
 Copying the excited state density for this state as the 1-particle RhoCI density.

 The electronic state is 1-A.
 Alpha  occ. eigenvalues --  -19.20953 -19.16903 -19.14014 -19.13320 -19.11781
 Alpha  occ. eigenvalues --  -19.11013 -14.37908 -14.36425 -14.35233 -14.29985
 Alpha  occ. eigenvalues --  -10.34280 -10.32431 -10.29295 -10.27200 -10.24507
 Alpha  occ. eigenvalues --  -10.24124 -10.23770 -10.23435 -10.22728 -10.22469
 Alpha  occ. eigenvalues --  -10.22395 -10.22034 -10.21730 -10.21643 -10.21078
 Alpha  occ. eigenvalues --  -10.21021 -10.20972 -10.20820 -10.20791 -10.20781
 Alpha  occ. eigenvalues --  -10.20609 -10.20602 -10.20160 -10.19902 -10.19315
 Alpha  occ. eigenvalues --  -10.19287 -10.19068 -10.18812 -10.18735 -10.18649
 Alpha  occ. eigenvalues --  -10.18504 -10.18062 -10.17466  -1.12178  -1.08593
 Alpha  occ. eigenvalues --   -1.03445  -1.03059  -0.99853  -0.99786  -0.98667
 Alpha  occ. eigenvalues --   -0.96897  -0.95176  -0.93692  -0.83827  -0.82205
 Alpha  occ. eigenvalues --   -0.80726  -0.80554  -0.80400  -0.78814  -0.78292
 Alpha  occ. eigenvalues --   -0.77461  -0.75657  -0.74515  -0.73954  -0.72428
 Alpha  occ. eigenvalues --   -0.71008  -0.69680  -0.69178  -0.68733  -0.67914
 Alpha  occ. eigenvalues --   -0.67044  -0.64966  -0.63582  -0.61976  -0.61450
 Alpha  occ. eigenvalues --   -0.61038  -0.59454  -0.58956  -0.56692  -0.56231
 Alpha  occ. eigenvalues --   -0.55667  -0.55325  -0.54931  -0.54255  -0.52833
 Alpha  occ. eigenvalues --   -0.52381  -0.51942  -0.51206  -0.50877  -0.50629
 Alpha  occ. eigenvalues --   -0.50006  -0.49411  -0.48292  -0.47784  -0.47254
 Alpha  occ. eigenvalues --   -0.46746  -0.46371  -0.45816  -0.45556  -0.45395
 Alpha  occ. eigenvalues --   -0.44543  -0.44383  -0.44334  -0.43980  -0.43728
 Alpha  occ. eigenvalues --   -0.43424  -0.42847  -0.42688  -0.42484  -0.42106
 Alpha  occ. eigenvalues --   -0.41935  -0.41752  -0.41552  -0.41323  -0.41081
 Alpha  occ. eigenvalues --   -0.41017  -0.40755  -0.40208  -0.39748  -0.39470
 Alpha  occ. eigenvalues --   -0.39183  -0.39140  -0.38737  -0.38505  -0.38434
 Alpha  occ. eigenvalues --   -0.38303  -0.38176  -0.37779  -0.37353  -0.36984
 Alpha  occ. eigenvalues --   -0.36224  -0.36130  -0.35973  -0.35129  -0.34158
 Alpha  occ. eigenvalues --   -0.33911  -0.33782  -0.33241  -0.32991  -0.32632
 Alpha  occ. eigenvalues --   -0.32163  -0.32064  -0.31571  -0.29946  -0.29263
 Alpha  occ. eigenvalues --   -0.28535  -0.28397  -0.26866  -0.25916  -0.25652
 Alpha  occ. eigenvalues --   -0.25359  -0.24741  -0.24579  -0.23742  -0.21698
 Alpha  occ. eigenvalues --   -0.17811
 Alpha virt. eigenvalues --   -0.10092  -0.05622  -0.03725  -0.02825   0.00272
 Alpha virt. eigenvalues --    0.00490   0.02281   0.03151   0.03306   0.04163
 Alpha virt. eigenvalues --    0.04425   0.04811   0.05060   0.05801   0.06135

 Mulliken charges:
               1
     1  O   -0.191600
     2  O   -0.130238
     3  O   -0.232165
     4  O   -0.296179
     5  O   -0.212078
     6  O   -0.194190
     7  N   -0.048040
     8  N   -0.107477
     9  N   -0.217405
    10  N   -0.127204
    11  C   -0.118431
    12  C    0.015412
    13  C   -0.209978
    14  C    0.001387
    15  C   -0.111547
    16  C    0.112738
    17  C   -0.063884
    18  C   -0.118206
    19  C    0.158735
    20  C   -0.122408
    21  C    0.153872
    22  C    0.114389
    23  C    0.001451
    24  C    0.090119
    25  C   -0.151961
    26  C    0.171064
    27  C    0.151722
    28  C    0.024642
    29  C    0.065652
    30  C    0.065124
    31  C   -0.118779
    32  C   -0.005303
    33  C   -0.115959
    34  C    0.014329
    35  C   -0.094349
    36  C   -0.152073
    37  C    0.150225
    38  C    0.090940
    39  C    0.126936
    40  C    0.004200
    41  C    0.107748
    42  C    0.042389
    43  C   -0.059077
    44  H    0.174260
    45  H    0.019217
    46  H   -0.017502
    47  H    0.000913
    48  H    0.066333
    49  H    0.028523
    50  H    0.019147
    51  H    0.043856
    52  H    0.082801
    53  H    0.007123
    54  H   -0.030455
    55  H    0.009490
    56  H    0.163101
    57  H    0.057278
    58  H    0.039784
    59  H    0.072091
    60  H    0.011810
    61  H    0.040592
    62  H    0.004809
    63  H    0.032583
    64  H   -0.032238
    65  H    0.019836
    66  H    0.045938
    67  H    0.029313
    68  H   -0.021120
    69  H    0.087144
    70  H   -0.036758
    71  H    0.018340
    72  H    0.006321
    73  H    0.046378
    74  H    0.026434
    75  H    0.047871
    76  H    0.043506
    77  H    0.032397
    78  H    0.017429
    79  H    0.030728
    80  H    0.177382
    81  H    0.170806
 Sum of Mulliken charges =  -0.00000

 Dipole moment (field-independent basis, Debye):
    X=              3.2485    Y=              1.5435    Z=              0.9314  Tot=              3.7151
 Quadrupole moment (field-independent basis, Debye-Ang):
   XX=           -260.4724   YY=           -233.3933   ZZ=           -255.4021
   XY=            -18.0053   XZ=             11.9332   YZ=             14.5788

 Normal termination of Gaussian 16 at Sat Jun 29 03:33:34 2019.
