 Gaussian 16, Revision A.03,
 Gaussian 16:  ES64L-G16RevA.03 25-Dec-2016

 --------------------------
 # td=(NStates=1) B3LYP/SVP
 --------------------------

 --
 TD
 --
 Symbolic Z-matrix:
 Charge =  0 Multiplicity = 1

                         Standard orientation:
 ---------------------------------------------------------------------
 Center     Atomic      Atomic             Coordinates (Angstroms)
 Number     Number       Type             X           Y           Z
 ---------------------------------------------------------------------
      1          8           0        4.767756   -4.546596   -1.944482
      2          8           0       -2.776902   -5.025358   -1.334332
      3          8           0       -7.134974   -1.605778   -1.792026
      4          8           0       -3.356634   -3.211732   -0.281145
      5          8           0       -7.528806   -0.848243    0.261506
      6          8           0        2.953178    2.710244    0.410832
      7          7           0        0.279585   -0.596598    0.449074
      8          7           0       -1.636793    1.796349    0.384086
      9          7           0        3.542853   -2.924173   -0.716046
     10          7           0        0.699245    2.994299    0.140565
     11          6           0       -0.555784   -2.415222    1.405795
     12          6           0       -0.832433   -1.119676    0.909590
     13          6           0        0.848886   -2.674620    1.181970
     14          6           0        1.309219   -1.421482    0.695535
     15          6           0       -3.840838    1.278191    0.367001
     16          6           0       -2.529079    0.716803    0.601449
     17          6           0       -2.181378   -0.572570    0.874321
     18          6           0       -3.686768    2.600571   -0.053442
     19          6           0       -1.493942   -3.516947    1.933423
     20          6           0        5.728900   -2.387267   -1.272242
     21          6           0        3.673742   -1.647130   -0.184348
     22          6           0       -2.283970    2.888197   -0.044761
     23          6           0        5.171473   -1.380548   -0.357598
     24          6           0       -5.244560    0.500583    0.588907
     25          6           0        2.699371   -0.952175    0.452957
     26          6           0        1.625022   -3.852239    1.735034
     27          6           0        4.687017   -3.465243   -1.408335
     28          6           0       -1.847349   -4.704388    0.967900
     29          6           0       -5.600902   -0.257536   -0.762913
     30          6           0       -4.854273    3.510901   -0.462668
     31          6           0       -1.510435    3.957839   -0.388150
     32          6           0        7.162664   -3.080797   -1.070392
     33          6           0        5.852795   -0.452706    0.212966
     34          6           0       -0.135565    4.048161   -0.324403
     35          6           0        0.768945    5.205078   -0.590248
     36          6           0        2.076158    4.765137   -0.276940
     37          6           0       -2.698962   -4.229100   -0.290883
     38          6           0        5.376149    0.593188    1.215324
     39          6           0       -6.842341   -0.906175   -0.678457
     40          6           0        3.277570    5.535231   -0.400388
     41          6           0        1.983734    3.277085    0.108774
     42          6           0        0.359594    6.540258   -1.053680
     43          6           0        3.926835    5.750093    1.024147
     44          1           0        0.355413    0.401267    0.263579
     45          1           0       -2.847110   -1.372763    1.261493
     46          1           0       -2.316748   -3.127741    2.452741
     47          1           0       -0.985172   -3.873784    2.803436
     48          1           0        6.107025   -1.902418   -2.117387
     49          1           0       -5.495469   -0.225796    1.448401
     50          1           0       -6.052724    1.233458    0.857693
     51          1           0        2.944793    0.145416    0.737741
     52          1           0       -0.674157    1.665899    0.731071
     53          1           0        1.765105   -4.794070    1.130129
     54          1           0        2.681287   -3.525205    1.979991
     55          1           0        1.189975   -4.114270    2.699346
     56          1           0        2.584616   -3.483311   -0.466992
     57          1           0       -0.830342   -5.135417    0.632872
     58          1           0       -2.269772   -5.361272    1.491224
     59          1           0       -4.599350   -0.874734   -0.968700
     60          1           0       -5.442625    0.480634   -1.710630
     61          1           0       -4.735527    4.495901   -0.105994
     62          1           0       -5.739890    2.945910    0.032499
     63          1           0       -4.902919    3.768351   -1.337128
     64          1           0       -1.848309    5.096008   -0.509359
     65          1           0        7.730713   -2.039184   -0.967276
     66          1           0        7.204454   -3.808350   -1.945675
     67          1           0        7.352018   -3.488824   -0.173455
     68          1           0        6.906903   -0.237560    0.000601
     69          1           0        4.820062    1.412615    0.751761
     70          1           0        6.211981    1.193915    1.581797
     71          1           0        4.769682    0.129878    1.972821
     72          1           0        3.165194    6.564644   -0.870949
     73          1           0        4.149181    4.918681   -0.895881
     74          1           0       -0.168168    6.561909   -1.917540
     75          1           0        1.186889    7.273904   -1.382571
     76          1           0       -0.449767    7.091747   -0.564858
     77          1           0        3.284477    6.324488    1.790760
     78          1           0        4.753247    6.346236    1.175416
     79          1           0        3.946886    4.645804    1.512910
     80          1           0       -3.560848   -4.867823   -1.872364
     81          1           0       -8.111155   -1.922536   -1.799574
 ---------------------------------------------------------------------

 SCF Done:  E(RB3LYP) =  -1949.04861198     A.U. after   17 cycles

 Excitation energies and oscillator strengths:

 Excited State   1:      Singlet-A      1.9966 eV  620.98 nm  f=0.3273  <S**2>=0.000
     153 ->157        -0.10092
     155 ->157         0.12675
     156 ->157         0.68970
 This state for optimization and/or second-order correction.
 Total Energy, E(TD-HF/TD-DFT) =  -1948.97523821
 Copying the excited state density for this state as the 1-particle RhoCI density.

 The electronic state is 1-A.
 Alpha  occ. eigenvalues --  -19.19638 -19.17967 -19.13601 -19.12757 -19.11720
 Alpha  occ. eigenvalues --  -19.09180 -14.38305 -14.37025 -14.36720 -14.26970
 Alpha  occ. eigenvalues --  -10.33882 -10.31352 -10.29657 -10.24833 -10.24555
 Alpha  occ. eigenvalues --  -10.24086 -10.23908 -10.23470 -10.23005 -10.22736
 Alpha  occ. eigenvalues --  -10.22155 -10.22107 -10.21951 -10.21938 -10.21491
 Alpha  occ. eigenvalues --  -10.20999 -10.20977 -10.20826 -10.20216 -10.20109
 Alpha  occ. eigenvalues --  -10.19549 -10.19446 -10.19276 -10.19096 -10.18915
 Alpha  occ. eigenvalues --  -10.18914 -10.18868 -10.18570 -10.18478 -10.18054
 Alpha  occ. eigenvalues --  -10.17384 -10.17273 -10.16578  -1.12232  -1.10555
 Alpha  occ. eigenvalues --   -1.03503  -1.03447  -1.01788  -1.01612  -1.01176
 Alpha  occ. eigenvalues --   -0.98709  -0.94022  -0.89933  -0.82317  -0.81911
 Alpha  occ. eigenvalues --   -0.81587  -0.81357  -0.78995  -0.78338  -0.77814
 Alpha  occ. eigenvalues --   -0.77649  -0.76729  -0.74893  -0.73681  -0.72640
 Alpha  occ. eigenvalues --   -0.72176  -0.69835  -0.69452  -0.68808  -0.67904
 Alpha  occ. eigenvalues --   -0.67272  -0.66052  -0.64562  -0.63986  -0.62000
 Alpha  occ. eigenvalues --   -0.60533  -0.58899  -0.58640  -0.58293  -0.57664
 Alpha  occ. eigenvalues --   -0.56825  -0.56214  -0.55399  -0.54390  -0.52999
 Alpha  occ. eigenvalues --   -0.52315  -0.52001  -0.51574  -0.51075  -0.50072
 Alpha  occ. eigenvalues --   -0.49830  -0.49180  -0.48599  -0.48327  -0.47996
 Alpha  occ. eigenvalues --   -0.47796  -0.47020  -0.46601  -0.46062  -0.45513
 Alpha  occ. eigenvalues --   -0.45148  -0.44473  -0.44173  -0.43963  -0.43867
 Alpha  occ. eigenvalues --   -0.43299  -0.43073  -0.42481  -0.42383  -0.42053
 Alpha  occ. eigenvalues --   -0.41838  -0.41499  -0.41156  -0.40923  -0.40899
 Alpha  occ. eigenvalues --   -0.40486  -0.40081  -0.39738  -0.39681  -0.39395
 Alpha  occ. eigenvalues --   -0.39143  -0.39003  -0.38851  -0.38351  -0.38210
 Alpha  occ. eigenvalues --   -0.38000  -0.37661  -0.37279  -0.37138  -0.36804
 Alpha  occ. eigenvalues --   -0.36407  -0.35270  -0.35248  -0.34897  -0.34548
 Alpha  occ. eigenvalues --   -0.34229  -0.33774  -0.33595  -0.33174  -0.32950
 Alpha  occ. eigenvalues --   -0.32319  -0.31712  -0.30675  -0.29846  -0.29104
 Alpha  occ. eigenvalues --   -0.28966  -0.26669  -0.26391  -0.25995  -0.25788
 Alpha  occ. eigenvalues --   -0.25592  -0.25085  -0.22061  -0.21938  -0.20675
 Alpha  occ. eigenvalues --   -0.18567
 Alpha virt. eigenvalues --   -0.10516  -0.04882  -0.02770  -0.01317  -0.00223
 Alpha virt. eigenvalues --   -0.00200   0.02492   0.02946   0.03428   0.03707
 Alpha virt. eigenvalues --    0.04289   0.04595   0.05077   0.05806   0.05837

 Mulliken charges:
               1
     1  O   -0.196680
     2  O   -0.147470
     3  O   -0.225484
     4  O   -0.231001
     5  O   -0.184140
     6  O   -0.162973
     7  N    0.053750
     8  N   -0.094155
     9  N   -0.233379
    10  N   -0.319566
    11  C   -0.149424
    12  C   -0.076324
    13  C   -0.146312
    14  C    0.018943
    15  C   -0.071053
    16  C    0.095709
    17  C   -0.006810
    18  C   -0.153917
    19  C    0.134166
    20  C   -0.105678
    21  C    0.122610
    22  C    0.190451
    23  C    0.115874
    24  C    0.045015
    25  C   -0.147977
    26  C    0.034163
    27  C    0.214406
    28  C    0.104061
    29  C   -0.130637
    30  C    0.261031
    31  C   -0.159229
    32  C    0.033992
    33  C   -0.244136
    34  C    0.042443
    35  C   -0.052054
    36  C   -0.174918
    37  C    0.128198
    38  C    0.071877
    39  C    0.169747
    40  C    0.049240
    41  C    0.121404
    42  C    0.128792
    43  C   -0.063797
    44  H    0.114735
    45  H    0.017566
    46  H   -0.019419
    47  H   -0.021698
    48  H    0.026154
    49  H    0.041077
    50  H    0.016378
    51  H    0.053171
    52  H    0.145572
    53  H    0.042599
    54  H    0.038450
    55  H    0.018749
    56  H    0.171476
    57  H    0.041206
    58  H   -0.026189
    59  H    0.089862
    60  H    0.061624
    61  H   -0.019327
    62  H    0.037343
    63  H   -0.070501
    64  H    0.001940
    65  H    0.021934
    66  H    0.069031
    67  H   -0.020136
    68  H   -0.009047
    69  H    0.059780
    70  H   -0.010365
    71  H    0.025245
    72  H    0.007728
    73  H    0.031559
    74  H   -0.039465
    75  H    0.014358
    76  H   -0.002777
    77  H   -0.006491
    78  H   -0.008967
    79  H    0.051088
    80  H    0.191802
    81  H    0.205198
 Sum of Mulliken charges =  -0.00000

 Dipole moment (field-independent basis, Debye):
    X=             -4.9292    Y=             -1.6777    Z=              0.0115  Tot=              5.2069
 Quadrupole moment (field-independent basis, Debye-Ang):
   XX=           -242.1276   YY=           -238.4388   ZZ=           -253.6226
   XY=             14.2946   XZ=             17.4400   YZ=            -16.3280

 Normal termination of Gaussian 16 at Mon Jul  1 16:43:50 2019.
