 Gaussian 16, Revision A.03,
 Gaussian 16:  ES64L-G16RevA.03 25-Dec-2016

 --------------------------
 # td=(NStates=1) B3LYP/SVP
 --------------------------

 --
 TD
 --
 Symbolic Z-matrix:
 Charge =  0 Multiplicity = 1

                         Standard orientation:
 ---------------------------------------------------------------------
 Center     Atomic      Atomic             Coordinates (Angstroms)
 Number     Number       Type             X           Y           Z
 ---------------------------------------------------------------------
      1          8           0       -4.511540   -4.825598    1.850899
      2          8           0        3.101527   -4.693269    1.412169
      3          8           0        7.053651   -1.457058    1.674106
      4          8           0        3.877794   -2.907874    0.155539
      5          8           0        7.613298   -0.521031   -0.288558
      6          8           0       -3.062196    2.395564   -0.308737
      7          7           0       -0.262507   -0.591074   -0.568919
      8          7           0        1.542237    1.925202   -0.273537
      9          7           0       -3.267781   -3.146385    0.653802
     10          7           0       -0.798784    2.855754   -0.087668
     11          6           0        0.704145   -2.462892   -1.270267
     12          6           0        0.919801   -1.117678   -0.892437
     13          6           0       -0.660173   -2.700381   -1.243877
     14          6           0       -1.291092   -1.432700   -0.790236
     15          6           0        3.690013    1.515614   -0.359064
     16          6           0        2.486187    0.854745   -0.535141
     17          6           0        2.240720   -0.525363   -0.786410
     18          6           0        3.562561    2.849134    0.076805
     19          6           0        1.678537   -3.417044   -1.800836
     20          6           0       -5.542918   -2.677030    1.218593
     21          6           0       -3.606812   -1.932350    0.106031
     22          6           0        2.063917    3.106160    0.015630
     23          6           0       -5.056247   -1.583218    0.273596
     24          6           0        5.033409    0.783473   -0.532903
     25          6           0       -2.723610   -1.164409   -0.527843
     26          6           0       -1.362113   -3.957514   -1.618353
     27          6           0       -4.417836   -3.781644    1.331940
     28          6           0        2.259184   -4.525614   -0.811642
     29          6           0        5.425448   -0.034121    0.674358
     30          6           0        4.524262    3.880043    0.537821
     31          6           0        1.220548    4.190317    0.289474
     32          6           0       -6.925234   -3.302340    1.035381
     33          6           0       -5.797376   -0.677363   -0.310429
     34          6           0       -0.181423    4.041849    0.295737
     35          6           0       -1.109862    5.133312    0.677923
     36          6           0       -2.364367    4.635732    0.397994
     37          6           0        3.167940   -3.913444    0.288897
     38          6           0       -5.317876    0.498672   -1.250774
     39          6           0        6.793083   -0.734097    0.529496
     40          6           0       -3.673235    5.231084    0.418183
     41          6           0       -2.140594    3.111703   -0.093047
     42          6           0       -0.694926    6.551754    0.885479
     43          6           0       -4.507753    5.380272   -0.955476
     44          1           0       -0.523943    0.388002   -0.248383
     45          1           0        3.032769   -1.079075   -0.985349
     46          1           0        2.585623   -2.802206   -2.129129
     47          1           0        1.384326   -3.971555   -2.664567
     48          1           0       -5.555998   -2.279328    2.258749
     49          1           0        4.886273    0.242482   -1.504575
     50          1           0        5.774514    1.513473   -0.915604
     51          1           0       -3.027457    0.016569   -0.769602
     52          1           0        0.498012    1.874925   -0.648787
     53          1           0       -1.265504   -4.813314   -0.887542
     54          1           0       -2.407316   -3.691623   -1.724289
     55          1           0       -0.711558   -4.210854   -2.596209
     56          1           0       -2.178833   -3.398054    0.615869
     57          1           0        1.509383   -5.030353   -0.278134
     58          1           0        2.866628   -5.253156   -1.202741
     59          1           0        4.536516   -0.866254    0.902147
     60          1           0        5.486623    0.670928    1.585484
     61          1           0        4.468444    4.632656   -0.091713
     62          1           0        5.447955    3.701166    0.425350
     63          1           0        4.471181    3.938197    1.549680
     64          1           0        1.800092    5.171759    0.421728
     65          1           0       -7.797211   -2.370412    1.136172
     66          1           0       -6.990800   -4.002875    1.746716
     67          1           0       -6.959149   -3.744851    0.054017
     68          1           0       -6.825214   -0.628666    0.062998
     69          1           0       -4.856198    1.258211   -0.533375
     70          1           0       -6.245782    0.767441   -1.709983
     71          1           0       -4.523953    0.171042   -1.924420
     72          1           0       -3.746399    6.150658    0.997918
     73          1           0       -4.473127    4.634703    0.796082
     74          1           0       -0.293715    6.631189    1.901570
     75          1           0       -1.529658    7.063295    1.214096
     76          1           0       -0.211569    7.036196    0.057216
     77          1           0       -3.687066    5.888177   -1.505616
     78          1           0       -5.422617    5.835000   -1.051168
     79          1           0       -4.604224    4.304060   -1.449821
     80          1           0        3.765042   -4.185312    2.137176
     81          1           0        7.873643   -1.740545    1.281322
 ---------------------------------------------------------------------

 SCF Done:  E(RB3LYP) =  -1949.08207730     A.U. after   16 cycles

 Excitation energies and oscillator strengths:

 Excited State   1:      Singlet-A      1.9700 eV  629.38 nm  f=0.3865  <S**2>=0.000
     156 ->157         0.70636
     156 <-157        -0.10657
 This state for optimization and/or second-order correction.
 Total Energy, E(TD-HF/TD-DFT) =  -1949.00968293
 Copying the excited state density for this state as the 1-particle RhoCI density.

 The electronic state is 1-A.
 Alpha  occ. eigenvalues --  -19.21056 -19.17648 -19.15049 -19.13935 -19.13458
 Alpha  occ. eigenvalues --  -19.10311 -14.38917 -14.37339 -14.34982 -14.29040
 Alpha  occ. eigenvalues --  -10.34176 -10.32062 -10.30741 -10.26284 -10.23910
 Alpha  occ. eigenvalues --  -10.23673 -10.23636 -10.23213 -10.23123 -10.22704
 Alpha  occ. eigenvalues --  -10.21578 -10.21551 -10.21381 -10.21362 -10.20711
 Alpha  occ. eigenvalues --  -10.20596 -10.20122 -10.19637 -10.19585 -10.19401
 Alpha  occ. eigenvalues --  -10.19370 -10.19250 -10.19219 -10.19161 -10.19119
 Alpha  occ. eigenvalues --  -10.19046 -10.18878 -10.18826 -10.18174 -10.18145
 Alpha  occ. eigenvalues --  -10.18084 -10.17686 -10.16429  -1.11337  -1.09245
 Alpha  occ. eigenvalues --   -1.06695  -1.02993  -1.02143  -1.01054  -0.99955
 Alpha  occ. eigenvalues --   -0.96581  -0.94497  -0.90674  -0.82887  -0.81778
 Alpha  occ. eigenvalues --   -0.81149  -0.80237  -0.79488  -0.78514  -0.77747
 Alpha  occ. eigenvalues --   -0.76894  -0.76364  -0.75226  -0.73727  -0.72456
 Alpha  occ. eigenvalues --   -0.71934  -0.69229  -0.68794  -0.68573  -0.68057
 Alpha  occ. eigenvalues --   -0.66501  -0.65489  -0.64311  -0.62453  -0.60445
 Alpha  occ. eigenvalues --   -0.60010  -0.58524  -0.57228  -0.56807  -0.56570
 Alpha  occ. eigenvalues --   -0.55654  -0.54979  -0.53874  -0.52899  -0.52186
 Alpha  occ. eigenvalues --   -0.52075  -0.51733  -0.50985  -0.50091  -0.49941
 Alpha  occ. eigenvalues --   -0.49624  -0.49127  -0.48688  -0.48268  -0.47636
 Alpha  occ. eigenvalues --   -0.47585  -0.47299  -0.46977  -0.46457  -0.46130
 Alpha  occ. eigenvalues --   -0.45694  -0.45116  -0.44813  -0.44552  -0.43980
 Alpha  occ. eigenvalues --   -0.43731  -0.43513  -0.43375  -0.42909  -0.42841
 Alpha  occ. eigenvalues --   -0.42422  -0.42257  -0.41703  -0.41513  -0.41175
 Alpha  occ. eigenvalues --   -0.40691  -0.40678  -0.40133  -0.40085  -0.39715
 Alpha  occ. eigenvalues --   -0.39537  -0.39291  -0.38975  -0.38867  -0.38605
 Alpha  occ. eigenvalues --   -0.38313  -0.37745  -0.37100  -0.36859  -0.36593
 Alpha  occ. eigenvalues --   -0.36381  -0.36061  -0.35702  -0.35471  -0.34590
 Alpha  occ. eigenvalues --   -0.34483  -0.34118  -0.34006  -0.33244  -0.33107
 Alpha  occ. eigenvalues --   -0.32507  -0.31842  -0.31078  -0.30051  -0.29599
 Alpha  occ. eigenvalues --   -0.29023  -0.27945  -0.27832  -0.26237  -0.25730
 Alpha  occ. eigenvalues --   -0.25092  -0.24054  -0.23254  -0.22484  -0.21715
 Alpha  occ. eigenvalues --   -0.17873
 Alpha virt. eigenvalues --   -0.10020  -0.05213  -0.02827  -0.02038  -0.00037
 Alpha virt. eigenvalues --    0.00209   0.00321   0.03026   0.03133   0.04036
 Alpha virt. eigenvalues --    0.04705   0.05307   0.05552   0.06336   0.06849

 Mulliken charges:
               1
     1  O   -0.134976
     2  O   -0.247727
     3  O   -0.181435
     4  O   -0.247509
     5  O   -0.194985
     6  O   -0.182766
     7  N   -0.012326
     8  N   -0.156578
     9  N   -0.225593
    10  N   -0.327541
    11  C   -0.061825
    12  C    0.053783
    13  C   -0.198865
    14  C   -0.020428
    15  C   -0.130458
    16  C    0.094353
    17  C    0.041010
    18  C   -0.192637
    19  C    0.065484
    20  C   -0.121189
    21  C    0.105674
    22  C    0.048989
    23  C    0.082568
    24  C    0.099945
    25  C   -0.200818
    26  C    0.049112
    27  C    0.168424
    28  C    0.091126
    29  C   -0.059532
    30  C    0.361126
    31  C   -0.151864
    32  C    0.069779
    33  C   -0.212385
    34  C    0.118039
    35  C   -0.153814
    36  C   -0.145116
    37  C    0.139950
    38  C    0.059176
    39  C    0.158376
    40  C    0.066767
    41  C    0.151309
    42  C    0.231664
    43  C   -0.060936
    44  H    0.162109
    45  H   -0.074465
    46  H    0.021115
    47  H   -0.000107
    48  H    0.043199
    49  H    0.007271
    50  H    0.002803
    51  H    0.077983
    52  H    0.185353
    53  H    0.039964
    54  H    0.038276
    55  H    0.040235
    56  H    0.178150
    57  H    0.008118
    58  H    0.017023
    59  H    0.086055
    60  H    0.049800
    61  H   -0.021712
    62  H   -0.097641
    63  H   -0.001222
    64  H   -0.002171
    65  H    0.037682
    66  H    0.004141
    67  H    0.012683
    68  H   -0.015429
    69  H    0.096116
    70  H    0.005498
    71  H    0.033315
    72  H   -0.006410
    73  H    0.001530
    74  H   -0.011194
    75  H   -0.046225
    76  H    0.043179
    77  H    0.012553
    78  H    0.010212
    79  H    0.046952
    80  H    0.242744
    81  H    0.137169
 Sum of Mulliken charges =  -0.00000

 Dipole moment (field-independent basis, Debye):
    X=              2.0982    Y=              0.0164    Z=              0.5719  Tot=              2.1748
 Quadrupole moment (field-independent basis, Debye-Ang):
   XX=           -255.2104   YY=           -237.9357   ZZ=           -254.7785
   XY=            -14.1995   XZ=              8.6539   YZ=             10.3867

 Normal termination of Gaussian 16 at Mon Jul  1 11:09:15 2019.
