 Gaussian 16, Revision A.03,
 Gaussian 16:  ES64L-G16RevA.03 25-Dec-2016

 --------------------------
 # td=(NStates=1) B3LYP/SVP
 --------------------------

 --
 TD
 --
 Symbolic Z-matrix:
 Charge =  0 Multiplicity = 1

                         Standard orientation:
 ---------------------------------------------------------------------
 Center     Atomic      Atomic             Coordinates (Angstroms)
 Number     Number       Type             X           Y           Z
 ---------------------------------------------------------------------
      1          8           0        4.538620   -4.992825   -1.735635
      2          8           0       -3.219927   -4.745666   -1.124977
      3          8           0       -7.084415   -1.540754   -1.725145
      4          8           0       -3.906221   -2.975350    0.053703
      5          8           0       -7.590375   -0.316700    0.028905
      6          8           0        3.138011    2.472519    0.313062
      7          7           0        0.284077   -0.574347    0.586127
      8          7           0       -1.476655    1.749575    0.260118
      9          7           0        3.365064   -3.353639   -0.589623
     10          7           0        0.908390    2.733165   -0.057802
     11          6           0       -0.644149   -2.426885    1.525741
     12          6           0       -0.947528   -1.166379    0.973436
     13          6           0        0.645311   -2.635103    1.355690
     14          6           0        1.263135   -1.509095    0.764730
     15          6           0       -3.708271    1.405120    0.296357
     16          6           0       -2.517435    0.772454    0.473568
     17          6           0       -2.243530   -0.478439    0.790289
     18          6           0       -3.451475    2.810784    0.015336
     19          6           0       -1.712859   -3.423756    1.937381
     20          6           0        5.479879   -2.789055   -1.381041
     21          6           0        3.591342   -1.974773   -0.267006
     22          6           0       -2.040475    2.874421   -0.085913
     23          6           0        5.001453   -1.584787   -0.561799
     24          6           0       -5.071936    0.848544    0.358485
     25          6           0        2.638909   -1.183637    0.409844
     26          6           0        1.460143   -3.797161    1.979255
     27          6           0        4.453433   -3.836306   -1.253073
     28          6           0       -2.229276   -4.407714    0.904076
     29          6           0       -5.412669   -0.140481   -0.946588
     30          6           0       -4.470973    3.901054   -0.426915
     31          6           0       -1.259852    4.058823   -0.366447
     32          6           0        6.943244   -3.246363   -1.094257
     33          6           0        5.757519   -0.558592   -0.100148
     34          6           0        0.192868    3.917055   -0.390069
     35          6           0        1.022702    5.128484   -0.503114
     36          6           0        2.370536    4.712006   -0.184406
     37          6           0       -3.172690   -3.880432   -0.034185
     38          6           0        5.416592    0.514473    0.916982
     39          6           0       -6.770981   -0.603579   -0.832523
     40          6           0        3.607424    5.461374   -0.247838
     41          6           0        2.200676    3.155057    0.051354
     42          6           0        0.653659    6.526369   -0.816096
     43          6           0        4.195733    5.801409    1.223848
     44          1           0        0.317412    0.305912   -0.092563
     45          1           0       -3.129691   -0.843094    1.043113
     46          1           0       -2.637105   -2.872389    2.445422
     47          1           0       -1.443668   -4.137652    2.822972
     48          1           0        5.546700   -2.398482   -2.428152
     49          1           0       -5.179165    0.242753    1.311153
     50          1           0       -5.838072    1.666710    0.523933
     51          1           0        3.005143   -0.073058    0.642528
     52          1           0       -0.322581    1.694647    0.404220
     53          1           0        1.693055   -4.658493    1.169674
     54          1           0        2.454005   -3.193526    2.064861
     55          1           0        1.213344   -4.137331    2.817621
     56          1           0        2.369587   -3.742935   -0.765299
     57          1           0       -1.409457   -4.950852    0.494646
     58          1           0       -2.665872   -5.331069    1.503706
     59          1           0       -4.633931   -0.859570   -0.974911
     60          1           0       -5.314282    0.427339   -1.932484
     61          1           0       -4.352973    4.886910    0.110379
     62          1           0       -5.584337    3.787911   -0.143152
     63          1           0       -4.379074    3.925135   -1.466254
     64          1           0       -1.564411    5.025655   -0.749978
     65          1           0        7.724163   -2.484778   -1.382905
     66          1           0        7.025620   -4.191056   -1.723749
     67          1           0        7.023013   -3.650006   -0.109465
     68          1           0        6.793320   -0.407261   -0.603170
     69          1           0        4.885227    1.346355    0.549266
     70          1           0        6.410909    0.811230    1.280244
     71          1           0        4.776346    0.153618    1.771665
     72          1           0        3.538416    6.476415   -0.738704
     73          1           0        4.351354    4.750658   -0.666537
     74          1           0        0.044227    6.484365   -1.863453
     75          1           0        1.432240    7.140043   -1.171009
     76          1           0        0.202414    7.050818    0.042707
     77          1           0        3.536750    6.582633    1.711096
     78          1           0        5.244366    6.219981    1.017367
     79          1           0        4.424547    4.802958    1.810943
     80          1           0       -3.782866   -4.411646   -1.787902
     81          1           0       -7.789104   -2.001246   -1.718613
 ---------------------------------------------------------------------

 SCF Done:  E(RB3LYP) =  -1949.10493614     A.U. after   16 cycles

 Excitation energies and oscillator strengths:

 Excited State   1:      Singlet-A      1.9577 eV  633.32 nm  f=0.3621  <S**2>=0.000
     156 ->157         0.70653
 This state for optimization and/or second-order correction.
 Total Energy, E(TD-HF/TD-DFT) =  -1949.03299282
 Copying the excited state density for this state as the 1-particle RhoCI density.

 The electronic state is 1-A.
 Alpha  occ. eigenvalues --  -19.17573 -19.16583 -19.15165 -19.11750 -19.10348
 Alpha  occ. eigenvalues --  -19.09547 -14.38981 -14.38179 -14.35297 -14.29592
 Alpha  occ. eigenvalues --  -10.33276 -10.32178 -10.29021 -10.26128 -10.25160
 Alpha  occ. eigenvalues --  -10.24007 -10.23958 -10.23817 -10.23374 -10.22520
 Alpha  occ. eigenvalues --  -10.22341 -10.21964 -10.21401 -10.21276 -10.20896
 Alpha  occ. eigenvalues --  -10.20585 -10.20546 -10.20542 -10.20521 -10.20512
 Alpha  occ. eigenvalues --  -10.20334 -10.20221 -10.19912 -10.19865 -10.19752
 Alpha  occ. eigenvalues --  -10.19703 -10.19602 -10.19588 -10.19385 -10.19216
 Alpha  occ. eigenvalues --  -10.18955 -10.18877 -10.17197  -1.11636  -1.10996
 Alpha  occ. eigenvalues --   -1.02972  -1.02588  -1.01806  -1.00272  -0.98666
 Alpha  occ. eigenvalues --   -0.97754  -0.94221  -0.89886  -0.83401  -0.83024
 Alpha  occ. eigenvalues --   -0.81286  -0.80764  -0.79550  -0.79126  -0.77951
 Alpha  occ. eigenvalues --   -0.77723  -0.75898  -0.75086  -0.73624  -0.72336
 Alpha  occ. eigenvalues --   -0.71844  -0.69783  -0.69234  -0.68805  -0.67705
 Alpha  occ. eigenvalues --   -0.67473  -0.65684  -0.64813  -0.63665  -0.62113
 Alpha  occ. eigenvalues --   -0.61100  -0.60069  -0.57816  -0.57763  -0.57430
 Alpha  occ. eigenvalues --   -0.56710  -0.54736  -0.54505  -0.53550  -0.53372
 Alpha  occ. eigenvalues --   -0.52791  -0.52214  -0.51396  -0.51209  -0.50062
 Alpha  occ. eigenvalues --   -0.49587  -0.48712  -0.48603  -0.47780  -0.47322
 Alpha  occ. eigenvalues --   -0.46892  -0.46339  -0.45936  -0.45583  -0.45540
 Alpha  occ. eigenvalues --   -0.45134  -0.44944  -0.44480  -0.44191  -0.44083
 Alpha  occ. eigenvalues --   -0.43822  -0.42960  -0.42575  -0.42275  -0.42081
 Alpha  occ. eigenvalues --   -0.41727  -0.41296  -0.41233  -0.41121  -0.40699
 Alpha  occ. eigenvalues --   -0.40346  -0.40172  -0.40025  -0.39526  -0.39269
 Alpha  occ. eigenvalues --   -0.39100  -0.38607  -0.38203  -0.38029  -0.37830
 Alpha  occ. eigenvalues --   -0.37754  -0.37261  -0.37048  -0.36209  -0.36124
 Alpha  occ. eigenvalues --   -0.35788  -0.35704  -0.35644  -0.35247  -0.34740
 Alpha  occ. eigenvalues --   -0.34606  -0.34296  -0.33971  -0.33488  -0.33004
 Alpha  occ. eigenvalues --   -0.32795  -0.32149  -0.31953  -0.30819  -0.30191
 Alpha  occ. eigenvalues --   -0.28835  -0.27585  -0.27243  -0.26294  -0.25521
 Alpha  occ. eigenvalues --   -0.25102  -0.24261  -0.23526  -0.22071  -0.21566
 Alpha  occ. eigenvalues --   -0.18541
 Alpha virt. eigenvalues --   -0.10552  -0.05877  -0.04353  -0.02392  -0.01062
 Alpha virt. eigenvalues --   -0.00180   0.01344   0.02685   0.04155   0.04620
 Alpha virt. eigenvalues --    0.04770   0.04897   0.05500   0.05598   0.06333

 Mulliken charges:
               1
     1  O   -0.255102
     2  O   -0.205367
     3  O   -0.106813
     4  O   -0.161648
     5  O   -0.237761
     6  O   -0.183529
     7  N   -0.132117
     8  N   -0.178508
     9  N   -0.129914
    10  N   -0.339715
    11  C   -0.009666
    12  C    0.058369
    13  C   -0.181778
    14  C    0.073279
    15  C   -0.050215
    16  C    0.071722
    17  C    0.046631
    18  C   -0.131353
    19  C    0.015568
    20  C   -0.084468
    21  C    0.051089
    22  C    0.116797
    23  C    0.030609
    24  C    0.042960
    25  C   -0.166799
    26  C    0.127335
    27  C    0.136754
    28  C    0.025209
    29  C    0.009267
    30  C    0.069918
    31  C   -0.115705
    32  C    0.044645
    33  C   -0.184140
    34  C    0.076249
    35  C   -0.126359
    36  C   -0.145439
    37  C    0.133423
    38  C    0.075789
    39  C    0.141184
    40  C    0.035188
    41  C    0.142763
    42  C    0.088644
    43  C   -0.076254
    44  H    0.185055
    45  H   -0.093052
    46  H    0.031861
    47  H    0.008656
    48  H    0.054046
    49  H    0.032855
    50  H    0.027157
    51  H    0.069653
    52  H    0.213176
    53  H    0.025849
    54  H    0.042083
    55  H   -0.043474
    56  H    0.177255
    57  H    0.014477
    58  H    0.065447
    59  H    0.034041
    60  H    0.047120
    61  H    0.030308
    62  H    0.024441
    63  H    0.029002
    64  H   -0.022849
    65  H    0.032722
    66  H    0.033846
    67  H    0.005425
    68  H    0.013902
    69  H    0.052918
    70  H    0.003998
    71  H    0.027676
    72  H    0.015934
    73  H    0.022740
    74  H    0.028571
    75  H   -0.012298
    76  H    0.043012
    77  H    0.034042
    78  H    0.018831
    79  H    0.052667
    80  H    0.155924
    81  H    0.106240
 Sum of Mulliken charges =  -0.00000

 Dipole moment (field-independent basis, Debye):
    X=             -2.9996    Y=              0.9158    Z=             -1.1177  Tot=              3.3295
 Quadrupole moment (field-independent basis, Debye-Ang):
   XX=           -259.2968   YY=           -243.7186   ZZ=           -251.9702
   XY=             24.1713   XZ=             14.2698   YZ=            -13.9507

 Normal termination of Gaussian 16 at Fri Jul  5 11:55:51 2019.
