 Gaussian 16, Revision A.03,
 Gaussian 16:  ES64L-G16RevA.03 25-Dec-2016

 --------------------------
 # td=(NStates=1) B3LYP/SVP
 --------------------------

 --
 TD
 --
 Symbolic Z-matrix:
 Charge =  0 Multiplicity = 1

                         Standard orientation:
 ---------------------------------------------------------------------
 Center     Atomic      Atomic             Coordinates (Angstroms)
 Number     Number       Type             X           Y           Z
 ---------------------------------------------------------------------
      1          8           0       -5.039643   -4.443787    1.764634
      2          8           0        2.583210   -4.728353    1.445537
      3          8           0        7.093809   -1.574484    1.971098
      4          8           0        3.522430   -3.330203    0.072175
      5          8           0        7.524041   -1.059026   -0.197183
      6          8           0       -2.851123    2.633711   -0.063955
      7          7           0       -0.332736   -0.611521   -0.535073
      8          7           0        1.666167    1.687002   -0.601217
      9          7           0       -3.725513   -2.920061    0.585103
     10          7           0       -0.544492    2.879436    0.125590
     11          6           0        0.395843   -2.569586   -1.364635
     12          6           0        0.797948   -1.274133   -1.019403
     13          6           0       -1.026916   -2.620594   -1.209152
     14          6           0       -1.374494   -1.450394   -0.603547
     15          6           0        3.944129    1.164091   -0.476433
     16          6           0        2.569150    0.667369   -0.752240
     17          6           0        2.089416   -0.680514   -1.038769
     18          6           0        3.758732    2.466787   -0.096156
     19          6           0        1.366210   -3.709284   -1.798489
     20          6           0       -5.805524   -2.218339    1.317178
     21          6           0       -3.811590   -1.588498    0.113586
     22          6           0        2.367694    2.817044   -0.001372
     23          6           0       -5.174152   -1.115517    0.362027
     24          6           0        5.175978    0.334437   -0.442146
     25          6           0       -2.738958   -0.917969   -0.322838
     26          6           0       -1.852342   -3.795053   -1.708773
     27          6           0       -4.867903   -3.335433    1.201062
     28          6           0        1.697917   -4.676530   -0.775044
     29          6           0        5.432331   -0.367029    0.814313
     30          6           0        4.951946    3.380610    0.416018
     31          6           0        1.713459    4.001807    0.221252
     32          6           0       -7.322600   -2.666221    0.919573
     33          6           0       -5.779780   -0.012974   -0.143709
     34          6           0        0.299023    3.996323    0.188185
     35          6           0       -0.611047    5.174134    0.535498
     36          6           0       -1.853292    4.785104    0.384424
     37          6           0        2.692465   -4.222069    0.291525
     38          6           0       -5.254150    0.839335   -1.215982
     39          6           0        6.772574   -1.117025    0.693796
     40          6           0       -3.159587    5.464199    0.498999
     41          6           0       -1.794588    3.259801    0.091585
     42          6           0        0.035332    6.546085    0.668444
     43          6           0       -3.804677    5.779400   -0.865812
     44          1           0       -0.556793    0.400303   -0.103024
     45          1           0        2.970792   -1.364609   -1.328451
     46          1           0        2.283956   -3.350746   -2.145189
     47          1           0        1.051846   -3.907665   -2.729186
     48          1           0       -5.666649   -1.764036    2.323724
     49          1           0        5.225515   -0.194650   -1.456188
     50          1           0        6.065697    1.053783   -0.574063
     51          1           0       -2.961597    0.148035   -0.478967
     52          1           0        0.687415    1.714880   -0.628269
     53          1           0       -1.970708   -4.691729   -1.102593
     54          1           0       -2.919406   -3.561235   -1.992155
     55          1           0       -1.553267   -4.279114   -2.617978
     56          1           0       -2.906772   -3.426913    0.557574
     57          1           0        0.839378   -4.861512   -0.102640
     58          1           0        1.943193   -5.729054   -1.118511
     59          1           0        4.672795   -1.040834    1.048431
     60          1           0        5.439540    0.380921    1.516113
     61          1           0        4.966884    4.241721   -0.343160
     62          1           0        5.804147    2.717102    0.113434
     63          1           0        4.906753    3.525573    1.348052
     64          1           0        2.112992    4.870987    0.504691
     65          1           0       -8.035423   -2.106054    1.356787
     66          1           0       -7.199038   -3.757654    1.590720
     67          1           0       -7.430100   -2.955547   -0.126882
     68          1           0       -6.740364    0.138967    0.349526
     69          1           0       -4.597187    1.659902   -0.879109
     70          1           0       -6.001768    1.405367   -1.769408
     71          1           0       -4.454324    0.481568   -1.843078
     72          1           0       -3.085731    6.527951    1.120591
     73          1           0       -3.864781    4.721098    1.022935
     74          1           0        0.395574    6.858928    1.699108
     75          1           0       -0.657058    7.523009    0.521103
     76          1           0        0.829615    6.548157   -0.133412
     77          1           0       -3.311378    6.551152   -1.454655
     78          1           0       -4.796254    6.297943   -0.748348
     79          1           0       -3.746433    4.854528   -1.500191
     80          1           0        3.420050   -4.493270    2.171617
     81          1           0        7.761811   -2.400299    1.673998
 ---------------------------------------------------------------------

 SCF Done:  E(RB3LYP) =  -1949.08788786     A.U. after   16 cycles

 Excitation energies and oscillator strengths:

 Excited State   1:      Singlet-A      1.9186 eV  646.23 nm  f=0.3748  <S**2>=0.000
     156 ->157         0.70449
     156 <-157        -0.12225
 This state for optimization and/or second-order correction.
 Total Energy, E(TD-HF/TD-DFT) =  -1949.01738181
 Copying the excited state density for this state as the 1-particle RhoCI density.

 The electronic state is 1-A.
 Alpha  occ. eigenvalues --  -19.21509 -19.18568 -19.14712 -19.12499 -19.09918
 Alpha  occ. eigenvalues --  -19.09374 -14.38214 -14.36560 -14.35982 -14.28888
 Alpha  occ. eigenvalues --  -10.33217 -10.32478 -10.28404 -10.25464 -10.24553
 Alpha  occ. eigenvalues --  -10.24411 -10.23744 -10.23679 -10.23612 -10.23519
 Alpha  occ. eigenvalues --  -10.22637 -10.22390 -10.21173 -10.20830 -10.20710
 Alpha  occ. eigenvalues --  -10.20680 -10.20471 -10.20416 -10.20037 -10.20027
 Alpha  occ. eigenvalues --  -10.19710 -10.19582 -10.19534 -10.19490 -10.19476
 Alpha  occ. eigenvalues --  -10.19270 -10.19200 -10.18814 -10.18742 -10.18537
 Alpha  occ. eigenvalues --  -10.17482 -10.17333 -10.16764  -1.12552  -1.10214
 Alpha  occ. eigenvalues --   -1.01639  -1.01071  -1.00090  -0.99941  -0.99047
 Alpha  occ. eigenvalues --   -0.96716  -0.94582  -0.91357  -0.83386  -0.83226
 Alpha  occ. eigenvalues --   -0.81065  -0.80889  -0.79378  -0.78964  -0.78452
 Alpha  occ. eigenvalues --   -0.78211  -0.76573  -0.74600  -0.73852  -0.72337
 Alpha  occ. eigenvalues --   -0.71509  -0.69862  -0.69448  -0.68659  -0.67559
 Alpha  occ. eigenvalues --   -0.67313  -0.65709  -0.64673  -0.62407  -0.61965
 Alpha  occ. eigenvalues --   -0.60356  -0.59401  -0.58615  -0.57861  -0.57232
 Alpha  occ. eigenvalues --   -0.56943  -0.56060  -0.55449  -0.54164  -0.53153
 Alpha  occ. eigenvalues --   -0.51895  -0.51420  -0.51315  -0.50793  -0.50442
 Alpha  occ. eigenvalues --   -0.50233  -0.49445  -0.49256  -0.48923  -0.48096
 Alpha  occ. eigenvalues --   -0.47568  -0.46583  -0.46193  -0.46008  -0.45680
 Alpha  occ. eigenvalues --   -0.45328  -0.44776  -0.44439  -0.44287  -0.43920
 Alpha  occ. eigenvalues --   -0.43586  -0.43087  -0.42659  -0.42607  -0.42328
 Alpha  occ. eigenvalues --   -0.42165  -0.41999  -0.41674  -0.41382  -0.41022
 Alpha  occ. eigenvalues --   -0.40578  -0.40310  -0.39893  -0.39822  -0.39671
 Alpha  occ. eigenvalues --   -0.39106  -0.38992  -0.38769  -0.38443  -0.37920
 Alpha  occ. eigenvalues --   -0.37530  -0.37131  -0.36999  -0.36404  -0.36331
 Alpha  occ. eigenvalues --   -0.36251  -0.36069  -0.35476  -0.35038  -0.34402
 Alpha  occ. eigenvalues --   -0.33766  -0.33653  -0.33515  -0.32989  -0.32787
 Alpha  occ. eigenvalues --   -0.32589  -0.31651  -0.30117  -0.29853  -0.29464
 Alpha  occ. eigenvalues --   -0.28297  -0.27271  -0.26462  -0.25789  -0.25709
 Alpha  occ. eigenvalues --   -0.25342  -0.24881  -0.23334  -0.23004  -0.21729
 Alpha  occ. eigenvalues --   -0.18331
 Alpha virt. eigenvalues --   -0.10855  -0.05205  -0.03364  -0.02500  -0.01109
 Alpha virt. eigenvalues --   -0.00439   0.00034   0.01298   0.01996   0.03948
 Alpha virt. eigenvalues --    0.04126   0.04870   0.05065   0.05891   0.06525

 Mulliken charges:
               1
     1  O   -0.267214
     2  O   -0.182644
     3  O   -0.279687
     4  O   -0.274490
     5  O   -0.157926
     6  O   -0.248880
     7  N   -0.124238
     8  N   -0.092434
     9  N   -0.064804
    10  N   -0.288743
    11  C   -0.171391
    12  C    0.110860
    13  C   -0.110086
    14  C    0.043899
    15  C   -0.055068
    16  C    0.016901
    17  C   -0.052236
    18  C   -0.202947
    19  C    0.253453
    20  C   -0.066017
    21  C    0.081507
    22  C    0.170476
    23  C   -0.060308
    24  C    0.021176
    25  C   -0.108016
    26  C    0.061752
    27  C    0.134090
    28  C    0.036722
    29  C    0.127530
    30  C    0.190936
    31  C   -0.047051
    32  C    0.029857
    33  C   -0.074293
    34  C    0.046483
    35  C   -0.061222
    36  C   -0.149433
    37  C    0.088354
    38  C    0.082333
    39  C    0.145391
    40  C    0.029116
    41  C    0.131300
    42  C   -0.000098
    43  C   -0.007017
    44  H    0.203030
    45  H    0.035225
    46  H   -0.032103
    47  H   -0.037948
    48  H    0.059960
    49  H    0.033184
    50  H    0.013824
    51  H   -0.000824
    52  H    0.092807
    53  H    0.014940
    54  H    0.027087
    55  H   -0.003458
    56  H    0.097085
    57  H    0.024118
    58  H    0.052989
    59  H    0.013218
    60  H    0.001285
    61  H    0.038131
    62  H   -0.005636
    63  H   -0.012557
    64  H   -0.075379
    65  H    0.001492
    66  H    0.061629
    67  H    0.030265
    68  H   -0.020852
    69  H    0.052370
    70  H    0.003411
    71  H    0.007099
    72  H    0.011005
    73  H    0.031654
    74  H    0.030070
    75  H    0.023862
    76  H    0.041726
    77  H   -0.007806
    78  H    0.012328
    79  H    0.032159
    80  H    0.275519
    81  H    0.219197
 Sum of Mulliken charges =  -0.00000

 Dipole moment (field-independent basis, Debye):
    X=              4.9952    Y=             -1.3193    Z=             -0.1137  Tot=              5.1678
 Quadrupole moment (field-independent basis, Debye-Ang):
   XX=           -261.8621   YY=           -236.7783   ZZ=           -252.9949
   XY=            -23.9666   XZ=             17.9571   YZ=              8.5710

 Normal termination of Gaussian 16 at Fri Jun 28 17:18:39 2019.
