 Gaussian 16, Revision A.03,
 Gaussian 16:  ES64L-G16RevA.03 25-Dec-2016

 --------------------------
 # td=(NStates=1) B3LYP/SVP
 --------------------------

 --
 TD
 --
 Symbolic Z-matrix:
 Charge =  0 Multiplicity = 1

                         Standard orientation:
 ---------------------------------------------------------------------
 Center     Atomic      Atomic             Coordinates (Angstroms)
 Number     Number       Type             X           Y           Z
 ---------------------------------------------------------------------
      1          8           0        4.650718   -4.777395   -1.739487
      2          8           0       -2.818640   -4.750887   -1.286986
      3          8           0       -6.936282   -1.539097   -1.950115
      4          8           0       -3.788405   -3.127673    0.017179
      5          8           0       -7.718342   -0.510542   -0.134091
      6          8           0        2.997468    2.502925    0.233987
      7          7           0        0.246077   -0.578422    0.619305
      8          7           0       -1.549519    1.848941    0.417790
      9          7           0        3.530507   -3.246645   -0.637300
     10          7           0        0.740194    2.938345    0.276334
     11          6           0       -0.750727   -2.437143    1.405087
     12          6           0       -1.045637   -1.171714    0.942644
     13          6           0        0.776017   -2.621909    1.223362
     14          6           0        1.217654   -1.552123    0.681160
     15          6           0       -3.843786    1.412663    0.247881
     16          6           0       -2.492273    0.790551    0.553461
     17          6           0       -2.244111   -0.510885    0.816898
     18          6           0       -3.581064    2.798581   -0.003864
     19          6           0       -1.703543   -3.440402    1.996163
     20          6           0        5.529815   -2.442072   -1.420964
     21          6           0        3.568317   -1.944996   -0.064496
     22          6           0       -2.131377    2.996047    0.116510
     23          6           0        4.994623   -1.422655   -0.513977
     24          6           0       -5.108059    0.752041    0.381625
     25          6           0        2.656796   -1.153710    0.517449
     26          6           0        1.472819   -3.866743    1.852960
     27          6           0        4.577488   -3.615122   -1.378906
     28          6           0       -2.044210   -4.667091    0.892623
     29          6           0       -5.398884   -0.156290   -0.768786
     30          6           0       -4.425421    3.798536   -0.459490
     31          6           0       -1.320628    4.057293   -0.180956
     32          6           0        7.049777   -2.888159   -1.224789
     33          6           0        5.746029   -0.489513    0.121539
     34          6           0        0.128381    4.047843   -0.086899
     35          6           0        0.989293    5.187294   -0.354962
     36          6           0        2.194691    4.656832   -0.282633
     37          6           0       -3.024583   -4.135261   -0.059238
     38          6           0        5.373032    0.415905    1.232306
     39          6           0       -6.778653   -0.770506   -0.890762
     40          6           0        3.519633    5.284382   -0.533956
     41          6           0        1.994899    3.243338    0.125363
     42          6           0        0.529412    6.538204   -0.758364
     43          6           0        4.254300    5.485393    0.767397
     44          1           0        0.223487   -0.011005   -0.187981
     45          1           0       -3.126058   -1.144493    0.997932
     46          1           0       -2.738881   -3.030097    2.184401
     47          1           0       -1.300656   -3.813637    2.906605
     48          1           0        5.548641   -1.861423   -2.238595
     49          1           0       -5.191350    0.167037    1.611274
     50          1           0       -5.945121    1.400968    0.578760
     51          1           0        2.890491    0.025084    0.613559
     52          1           0       -0.602673    1.678844    0.629834
     53          1           0        1.786827   -4.900224    1.167074
     54          1           0        2.491797   -3.631910    2.147191
     55          1           0        0.932335   -4.432414    2.619037
     56          1           0        2.602948   -3.705420   -0.352240
     57          1           0       -1.167535   -4.947260    0.450661
     58          1           0       -2.550160   -5.505802    1.431777
     59          1           0       -4.761744   -1.002399   -0.942648
     60          1           0       -5.269972    0.573621   -1.611108
     61          1           0       -4.448073    4.991534   -0.008995
     62          1           0       -5.506276    3.486960   -0.213402
     63          1           0       -4.271522    3.877463   -1.501013
     64          1           0       -1.977568    5.072055   -0.174853
     65          1           0        7.880848   -2.272297   -1.515841
     66          1           0        7.313313   -3.803509   -1.986423
     67          1           0        7.158060   -3.274720   -0.234597
     68          1           0        6.723459   -0.193467   -0.359066
     69          1           0        5.023462    1.311211    0.779825
     70          1           0        6.369689    0.430366    1.845334
     71          1           0        4.629983    0.143712    1.841311
     72          1           0        3.611277    6.240570   -1.003831
     73          1           0        4.100805    4.588987   -1.162995
     74          1           0       -0.091719    6.606115   -1.649193
     75          1           0        1.605922    7.124366   -1.058969
     76          1           0        0.059632    7.109656    0.103656
     77          1           0        3.665582    6.447652    1.296856
     78          1           0        5.404377    5.787592    0.547043
     79          1           0        4.281693    4.561385    1.348357
     80          1           0       -3.410067   -4.422590   -1.985565
     81          1           0       -7.888312   -1.858349   -2.118277
 ---------------------------------------------------------------------

 SCF Done:  E(RB3LYP) =  -1949.06337383     A.U. after   16 cycles

 Excitation energies and oscillator strengths:

 Excited State   1:      Singlet-A      2.0453 eV  606.20 nm  f=0.3100  <S**2>=0.000
     155 ->157        -0.15110
     156 ->157         0.69211
 This state for optimization and/or second-order correction.
 Total Energy, E(TD-HF/TD-DFT) =  -1948.98821220
 Copying the excited state density for this state as the 1-particle RhoCI density.

 The electronic state is 1-A.
 Alpha  occ. eigenvalues --  -19.19331 -19.19255 -19.15018 -19.11828 -19.09725
 Alpha  occ. eigenvalues --  -19.09630 -14.36871 -14.36214 -14.35999 -14.28757
 Alpha  occ. eigenvalues --  -10.34672 -10.32206 -10.28728 -10.25660 -10.24264
 Alpha  occ. eigenvalues --  -10.24067 -10.23781 -10.23601 -10.22743 -10.22468
 Alpha  occ. eigenvalues --  -10.22287 -10.22178 -10.22123 -10.21988 -10.21962
 Alpha  occ. eigenvalues --  -10.21350 -10.21242 -10.21039 -10.20906 -10.20862
 Alpha  occ. eigenvalues --  -10.20754 -10.19864 -10.19526 -10.19456 -10.19272
 Alpha  occ. eigenvalues --  -10.19227 -10.19152 -10.19017 -10.18928 -10.18890
 Alpha  occ. eigenvalues --  -10.18279 -10.18052 -10.16265  -1.09912  -1.09036
 Alpha  occ. eigenvalues --   -1.03068  -1.01129  -1.00148  -0.99186  -0.98749
 Alpha  occ. eigenvalues --   -0.97176  -0.94229  -0.93930  -0.83919  -0.82584
 Alpha  occ. eigenvalues --   -0.81564  -0.81305  -0.81120  -0.79812  -0.78627
 Alpha  occ. eigenvalues --   -0.77627  -0.76505  -0.75528  -0.74271  -0.72898
 Alpha  occ. eigenvalues --   -0.72075  -0.69740  -0.69268  -0.68684  -0.68395
 Alpha  occ. eigenvalues --   -0.67732  -0.65753  -0.64556  -0.61763  -0.61549
 Alpha  occ. eigenvalues --   -0.61219  -0.59901  -0.59600  -0.58000  -0.57491
 Alpha  occ. eigenvalues --   -0.56025  -0.55299  -0.54874  -0.53961  -0.53716
 Alpha  occ. eigenvalues --   -0.52583  -0.52472  -0.51580  -0.50900  -0.50087
 Alpha  occ. eigenvalues --   -0.49228  -0.49023  -0.48846  -0.48181  -0.47882
 Alpha  occ. eigenvalues --   -0.47483  -0.47139  -0.46400  -0.46150  -0.45380
 Alpha  occ. eigenvalues --   -0.44862  -0.44749  -0.44089  -0.43916  -0.43707
 Alpha  occ. eigenvalues --   -0.43147  -0.43051  -0.42357  -0.42233  -0.42010
 Alpha  occ. eigenvalues --   -0.41808  -0.41654  -0.41365  -0.41255  -0.41001
 Alpha  occ. eigenvalues --   -0.40816  -0.40654  -0.40186  -0.40025  -0.39668
 Alpha  occ. eigenvalues --   -0.39231  -0.39089  -0.38805  -0.38335  -0.37632
 Alpha  occ. eigenvalues --   -0.37274  -0.37231  -0.36423  -0.36205  -0.36074
 Alpha  occ. eigenvalues --   -0.35943  -0.35798  -0.35369  -0.35009  -0.34140
 Alpha  occ. eigenvalues --   -0.33817  -0.33367  -0.33187  -0.32926  -0.32228
 Alpha  occ. eigenvalues --   -0.32048  -0.31955  -0.31458  -0.30612  -0.30004
 Alpha  occ. eigenvalues --   -0.28226  -0.27479  -0.26313  -0.25478  -0.25399
 Alpha  occ. eigenvalues --   -0.25234  -0.24509  -0.24157  -0.24059  -0.21666
 Alpha  occ. eigenvalues --   -0.18974
 Alpha virt. eigenvalues --   -0.10720  -0.05894  -0.03838  -0.02802  -0.00236
 Alpha virt. eigenvalues --    0.00782   0.00981   0.02591   0.02949   0.03280
 Alpha virt. eigenvalues --    0.03695   0.04058   0.04575   0.04940   0.05613

 Mulliken charges:
               1
     1  O   -0.213863
     2  O   -0.211901
     3  O   -0.190394
     4  O   -0.265828
     5  O   -0.254581
     6  O   -0.244201
     7  N   -0.105251
     8  N   -0.038499
     9  N   -0.113672
    10  N   -0.154478
    11  C   -0.101725
    12  C    0.075724
    13  C   -0.077331
    14  C    0.013667
    15  C   -0.037074
    16  C    0.081321
    17  C   -0.072312
    18  C   -0.051565
    19  C    0.059977
    20  C   -0.006730
    21  C    0.075785
    22  C    0.079977
    23  C   -0.052580
    24  C   -0.002449
    25  C   -0.156675
    26  C   -0.005697
    27  C    0.142928
    28  C    0.058573
    29  C    0.018630
    30  C   -0.014944
    31  C   -0.171305
    32  C    0.027261
    33  C   -0.185182
    34  C    0.056059
    35  C   -0.078208
    36  C   -0.153109
    37  C    0.166081
    38  C    0.130543
    39  C    0.125136
    40  C    0.121845
    41  C    0.089871
    42  C    0.047349
    43  C   -0.081336
    44  H    0.130029
    45  H    0.012275
    46  H    0.033032
    47  H    0.007223
    48  H    0.005502
    49  H    0.042467
    50  H    0.011412
    51  H    0.088051
    52  H    0.112320
    53  H    0.028682
    54  H    0.036199
    55  H    0.021485
    56  H    0.153736
    57  H    0.022871
    58  H    0.058585
    59  H    0.042297
    60  H    0.040044
    61  H    0.052517
    62  H    0.028390
    63  H    0.033526
    64  H    0.009732
    65  H    0.010214
    66  H    0.032155
    67  H    0.014374
    68  H    0.003736
    69  H    0.053727
    70  H    0.019296
    71  H   -0.016212
    72  H   -0.011769
    73  H    0.004360
    74  H    0.032243
    75  H    0.027359
    76  H    0.038761
    77  H    0.022302
    78  H    0.022445
    79  H    0.041449
    80  H    0.189622
    81  H    0.215728
 Sum of Mulliken charges =  -0.00000

 Dipole moment (field-independent basis, Debye):
    X=             -4.5837    Y=              0.5971    Z=             -1.5182  Tot=              4.8654
 Quadrupole moment (field-independent basis, Debye-Ang):
   XX=           -258.3439   YY=           -242.3666   ZZ=           -250.2584
   XY=             20.1303   XZ=             18.2313   YZ=            -15.4981

 Normal termination of Gaussian 16 at Sun Jun 30 23:55:45 2019.
