 Gaussian 16, Revision A.03,
 Gaussian 16:  ES64L-G16RevA.03 25-Dec-2016

 --------------------------
 # td=(NStates=1) B3LYP/SVP
 --------------------------

 --
 TD
 --
 Symbolic Z-matrix:
 Charge =  0 Multiplicity = 1

                         Standard orientation:
 ---------------------------------------------------------------------
 Center     Atomic      Atomic             Coordinates (Angstroms)
 Number     Number       Type             X           Y           Z
 ---------------------------------------------------------------------
      1          8           0       -4.359289   -4.808241    1.980056
      2          8           0        3.215611   -4.745849    1.291859
      3          8           0        6.927366   -1.511401    1.764508
      4          8           0        3.819564   -2.926438    0.083323
      5          8           0        7.704336   -0.342229   -0.053127
      6          8           0       -3.075054    2.454695   -0.533647
      7          7           0       -0.178250   -0.576902   -0.592450
      8          7           0        1.498001    1.856086   -0.478421
      9          7           0       -3.288721   -3.149635    0.742049
     10          7           0       -0.929442    2.982354   -0.310107
     11          6           0        0.745306   -2.481963   -1.405756
     12          6           0        1.015997   -1.170024   -0.916126
     13          6           0       -0.633244   -2.748802   -1.228764
     14          6           0       -1.204109   -1.592638   -0.675381
     15          6           0        3.630053    1.534692   -0.405589
     16          6           0        2.462096    0.865737   -0.645240
     17          6           0        2.218475   -0.421162   -0.970012
     18          6           0        3.490140    2.844354    0.018594
     19          6           0        1.807478   -3.357005   -1.855794
     20          6           0       -5.461009   -2.773681    1.237252
     21          6           0       -3.482349   -1.894222    0.212323
     22          6           0        2.019687    2.994102    0.025349
     23          6           0       -5.010737   -1.780156    0.364620
     24          6           0        5.090766    0.930619   -0.384247
     25          6           0       -2.552853   -1.106105   -0.319277
     26          6           0       -1.426006   -3.917082   -1.672618
     27          6           0       -4.307818   -3.779879    1.344581
     28          6           0        2.209911   -4.474577   -0.789295
     29          6           0        5.376219    0.033313    0.815067
     30          6           0        4.452226    3.991415    0.366577
     31          6           0        1.195729    4.075009    0.255067
     32          6           0       -6.878966   -3.410564    0.976290
     33          6           0       -5.725540   -0.773939   -0.393508
     34          6           0       -0.291630    4.046776    0.135279
     35          6           0       -1.163870    5.109511    0.462898
     36          6           0       -2.453902    4.645482    0.511117
     37          6           0        3.181877   -3.961635    0.161986
     38          6           0       -5.317413    0.256034   -1.284701
     39          6           0        6.783657   -0.549322    0.697352
     40          6           0       -3.809226    5.269435    0.696695
     41          6           0       -2.218333    3.263684   -0.014245
     42          6           0       -0.702449    6.451797    0.856021
     43          6           0       -4.548863    5.661844   -0.628538
     44          1           0       -0.237978    0.420159   -0.218674
     45          1           0        3.239798   -0.993749   -1.118958
     46          1           0        2.603585   -2.991677   -2.193076
     47          1           0        1.430779   -3.946464   -2.721170
     48          1           0       -5.541286   -2.381348    2.168669
     49          1           0        5.045503    0.126065   -1.227655
     50          1           0        5.719051    1.709471   -0.407183
     51          1           0       -2.721577   -0.057233   -0.935687
     52          1           0        0.544771    1.727514   -0.805374
     53          1           0       -1.568206   -4.787718   -0.922409
     54          1           0       -2.485153   -3.648476   -2.044030
     55          1           0       -0.764631   -4.510690   -2.470571
     56          1           0       -2.328765   -3.636959    0.877475
     57          1           0        1.371806   -4.802988   -0.105961
     58          1           0        2.676155   -5.412839   -1.335277
     59          1           0        4.550291   -0.711268    1.051862
     60          1           0        5.093719    0.508382    1.865383
     61          1           0        4.352850    4.877617   -0.319077
     62          1           0        5.470831    3.645100    0.248447
     63          1           0        4.196261    4.508147    1.244335
     64          1           0        1.664627    4.904593    0.592601
     65          1           0       -7.977412   -2.702138    0.865048
     66          1           0       -7.102321   -4.342221    1.606845
     67          1           0       -7.008954   -3.793857    0.041892
     68          1           0       -6.885464   -0.947452   -0.147251
     69          1           0       -4.885102    1.058109   -0.755226
     70          1           0       -6.142259    0.407830   -1.912685
     71          1           0       -4.581917    0.013461   -2.066724
     72          1           0       -3.826140    6.205136    1.276739
     73          1           0       -4.417633    4.478376    1.073514
     74          1           0        0.039112    6.343165    1.842247
     75          1           0       -1.604207    7.104013    1.046509
     76          1           0        0.065717    6.896178    0.187084
     77          1           0       -4.146041    6.733426   -0.963016
     78          1           0       -5.546868    6.030689   -0.408328
     79          1           0       -4.617010    4.948796   -1.524322
     80          1           0        3.982342   -4.493853    1.893601
     81          1           0        7.822515   -1.919200    1.641248
 ---------------------------------------------------------------------

 SCF Done:  E(RB3LYP) =  -1949.07523804     A.U. after   17 cycles

 Excitation energies and oscillator strengths:

 Excited State   1:      Singlet-A      1.8333 eV  676.30 nm  f=0.2739  <S**2>=0.000
     155 ->157        -0.11122
     156 ->157         0.69774
     156 <-157        -0.11017
 This state for optimization and/or second-order correction.
 Total Energy, E(TD-HF/TD-DFT) =  -1949.00786692
 Copying the excited state density for this state as the 1-particle RhoCI density.

 The electronic state is 1-A.
 Alpha  occ. eigenvalues --  -19.18889 -19.16343 -19.14249 -19.14202 -19.10960
 Alpha  occ. eigenvalues --  -19.09781 -14.37903 -14.37601 -14.35983 -14.28806
 Alpha  occ. eigenvalues --  -10.33228 -10.32854 -10.28941 -10.26262 -10.24176
 Alpha  occ. eigenvalues --  -10.23993 -10.23851 -10.23002 -10.22994 -10.22745
 Alpha  occ. eigenvalues --  -10.22654 -10.21735 -10.21716 -10.21574 -10.21035
 Alpha  occ. eigenvalues --  -10.20974 -10.20665 -10.20541 -10.20487 -10.20401
 Alpha  occ. eigenvalues --  -10.20169 -10.20031 -10.20023 -10.19943 -10.19907
 Alpha  occ. eigenvalues --  -10.19893 -10.19790 -10.19751 -10.19541 -10.19265
 Alpha  occ. eigenvalues --  -10.19200 -10.18379 -10.16409  -1.09504  -1.07510
 Alpha  occ. eigenvalues --   -1.03976  -1.01047  -0.99713  -0.99146  -0.98984
 Alpha  occ. eigenvalues --   -0.96882  -0.96410  -0.92405  -0.83009  -0.82487
 Alpha  occ. eigenvalues --   -0.81667  -0.81401  -0.80428  -0.79378  -0.78059
 Alpha  occ. eigenvalues --   -0.77400  -0.76581  -0.75796  -0.74929  -0.73072
 Alpha  occ. eigenvalues --   -0.72146  -0.69906  -0.69222  -0.69064  -0.67801
 Alpha  occ. eigenvalues --   -0.67252  -0.65443  -0.63959  -0.62818  -0.61663
 Alpha  occ. eigenvalues --   -0.60379  -0.59129  -0.58721  -0.58540  -0.57418
 Alpha  occ. eigenvalues --   -0.57184  -0.55627  -0.55284  -0.53824  -0.53063
 Alpha  occ. eigenvalues --   -0.52652  -0.52551  -0.51490  -0.50333  -0.49829
 Alpha  occ. eigenvalues --   -0.49503  -0.49107  -0.48202  -0.47609  -0.47357
 Alpha  occ. eigenvalues --   -0.47299  -0.46430  -0.45942  -0.45761  -0.45217
 Alpha  occ. eigenvalues --   -0.44872  -0.44723  -0.44322  -0.43900  -0.43828
 Alpha  occ. eigenvalues --   -0.43439  -0.43102  -0.42875  -0.42596  -0.42287
 Alpha  occ. eigenvalues --   -0.41991  -0.41726  -0.41447  -0.41139  -0.40693
 Alpha  occ. eigenvalues --   -0.40606  -0.40376  -0.40064  -0.39743  -0.39697
 Alpha  occ. eigenvalues --   -0.39356  -0.38952  -0.38837  -0.38603  -0.38403
 Alpha  occ. eigenvalues --   -0.38187  -0.38054  -0.37996  -0.37516  -0.37108
 Alpha  occ. eigenvalues --   -0.36407  -0.36143  -0.35870  -0.35662  -0.34553
 Alpha  occ. eigenvalues --   -0.34485  -0.33863  -0.33545  -0.33014  -0.32719
 Alpha  occ. eigenvalues --   -0.32125  -0.31605  -0.31329  -0.29905  -0.29429
 Alpha  occ. eigenvalues --   -0.29104  -0.27898  -0.26490  -0.26082  -0.25418
 Alpha  occ. eigenvalues --   -0.25208  -0.24310  -0.23876  -0.23086  -0.21537
 Alpha  occ. eigenvalues --   -0.18056
 Alpha virt. eigenvalues --   -0.10699  -0.06636  -0.03666  -0.02033  -0.01183
 Alpha virt. eigenvalues --    0.00465   0.01898   0.02416   0.03247   0.03565
 Alpha virt. eigenvalues --    0.03983   0.04384   0.04766   0.05078   0.05993

 Mulliken charges:
               1
     1  O   -0.207447
     2  O   -0.230751
     3  O   -0.274398
     4  O   -0.223331
     5  O   -0.199203
     6  O   -0.266546
     7  N   -0.152339
     8  N   -0.098832
     9  N   -0.123694
    10  N   -0.201540
    11  C   -0.105606
    12  C    0.064834
    13  C   -0.110641
    14  C    0.039860
    15  C   -0.129479
    16  C    0.089379
    17  C   -0.099085
    18  C   -0.117196
    19  C    0.242348
    20  C    0.049637
    21  C    0.145764
    22  C    0.091703
    23  C   -0.087973
    24  C    0.167131
    25  C   -0.184240
    26  C   -0.001480
    27  C    0.088330
    28  C   -0.041866
    29  C   -0.073087
    30  C    0.155649
    31  C   -0.079434
    32  C   -0.007154
    33  C   -0.165297
    34  C    0.086686
    35  C   -0.123222
    36  C   -0.142472
    37  C    0.138190
    38  C    0.153979
    39  C    0.207680
    40  C    0.119934
    41  C    0.120340
    42  C    0.059107
    43  C   -0.049995
    44  H    0.152191
    45  H    0.047116
    46  H   -0.076805
    47  H   -0.012130
    48  H    0.018056
    49  H    0.031143
    50  H   -0.023427
    51  H    0.101372
    52  H    0.131156
    53  H    0.027655
    54  H    0.060422
    55  H    0.021078
    56  H    0.154745
    57  H    0.055216
    58  H    0.068634
    59  H    0.053224
    60  H    0.041798
    61  H    0.018172
    62  H    0.015681
    63  H    0.007306
    64  H   -0.098775
    65  H    0.030953
    66  H    0.040833
    67  H   -0.021652
    68  H    0.007648
    69  H    0.061344
    70  H   -0.007668
    71  H    0.013517
    72  H    0.007662
    73  H    0.010314
    74  H    0.037060
    75  H    0.033141
    76  H    0.021595
    77  H    0.001175
    78  H    0.003364
    79  H    0.056472
    80  H    0.207075
    81  H    0.179093
 Sum of Mulliken charges =  -0.00000

 Dipole moment (field-independent basis, Debye):
    X=              2.8725    Y=              1.0867    Z=              0.1596  Tot=              3.0753
 Quadrupole moment (field-independent basis, Debye-Ang):
   XX=           -260.8204   YY=           -232.6809   ZZ=           -256.7114
   XY=            -19.1462   XZ=             14.4135   YZ=             17.7653

 Normal termination of Gaussian 16 at Thu Jun 27 01:53:19 2019.
