 Gaussian 16, Revision A.03,
 Gaussian 16:  ES64L-G16RevA.03 25-Dec-2016

 --------------------------
 # td=(NStates=1) B3LYP/SVP
 --------------------------

 --
 TD
 --
 Symbolic Z-matrix:
 Charge =  0 Multiplicity = 1

                         Standard orientation:
 ---------------------------------------------------------------------
 Center     Atomic      Atomic             Coordinates (Angstroms)
 Number     Number       Type             X           Y           Z
 ---------------------------------------------------------------------
      1          8           0        4.749668   -4.827290   -1.789008
      2          8           0       -2.846862   -4.871957   -1.284625
      3          8           0       -7.191229   -1.556342   -1.887435
      4          8           0       -3.667290   -3.235687   -0.073521
      5          8           0       -7.633679   -0.474303    0.083586
      6          8           0        3.016499    2.632234    0.170004
      7          7           0        0.264559   -0.672997    0.477429
      8          7           0       -1.521740    1.744043    0.338567
      9          7           0        3.561640   -3.150666   -0.678594
     10          7           0        0.645568    3.030073    0.071747
     11          6           0       -0.677518   -2.586121    1.421682
     12          6           0       -0.920935   -1.246887    0.841888
     13          6           0        0.830066   -2.776280    1.214047
     14          6           0        1.295341   -1.567778    0.730344
     15          6           0       -3.812753    1.308352    0.230725
     16          6           0       -2.475901    0.782831    0.514350
     17          6           0       -2.263527   -0.557508    0.663312
     18          6           0       -3.587976    2.651045   -0.013527
     19          6           0       -1.588368   -3.603713    1.959455
     20          6           0        5.669472   -2.579949   -1.334402
     21          6           0        3.665921   -1.832647   -0.184529
     22          6           0       -2.144468    2.991467    0.028045
     23          6           0        5.072549   -1.548536   -0.459647
     24          6           0       -5.035612    0.527295    0.437012
     25          6           0        2.651391   -1.145025    0.422318
     26          6           0        1.430979   -3.904786    1.912509
     27          6           0        4.620395   -3.638533   -1.380179
     28          6           0       -1.978296   -4.667735    0.950309
     29          6           0       -5.352249   -0.269285   -0.804445
     30          6           0       -4.671459    3.786950   -0.252848
     31          6           0       -1.438432    4.154944   -0.119661
     32          6           0        7.077765   -3.094744   -0.959202
     33          6           0        5.839895   -0.455074    0.065357
     34          6           0       -0.012438    4.170917   -0.201140
     35          6           0        0.890826    5.336756   -0.435869
     36          6           0        2.157609    4.825296   -0.196700
     37          6           0       -2.844150   -4.107449   -0.217221
     38          6           0        5.370372    0.553370    1.112050
     39          6           0       -6.819304   -0.825578   -0.745439
     40          6           0        3.433069    5.520107   -0.418648
     41          6           0        2.005513    3.386430    0.073182
     42          6           0        0.447792    6.640267   -0.867598
     43          6           0        4.148121    6.006101    0.929432
     44          1           0        0.203550    0.211227    0.044050
     45          1           0       -3.118088   -1.139160    0.572324
     46          1           0       -2.434762   -3.241495    2.381509
     47          1           0       -1.178346   -4.021799    2.879390
     48          1           0        5.708240   -2.377385   -2.400138
     49          1           0       -4.832382   -0.228590    1.199069
     50          1           0       -5.847394    1.049616    0.631948
     51          1           0        2.993003   -0.050510    0.732260
     52          1           0       -0.544834    1.863929    0.654203
     53          1           0        1.251786   -4.935173    1.595704
     54          1           0        2.532288   -3.852118    2.031087
     55          1           0        1.031874   -4.064393    3.032727
     56          1           0        2.624444   -3.844848   -0.320416
     57          1           0       -1.213804   -5.111897    0.326308
     58          1           0       -2.705939   -5.394622    1.509585
     59          1           0       -4.778416   -1.360781   -1.027429
     60          1           0       -5.109707    0.373250   -1.770685
     61          1           0       -4.589587    4.559704    0.489285
     62          1           0       -5.761370    3.330949   -0.091505
     63          1           0       -4.557191    4.189886   -1.235015
     64          1           0       -1.926588    5.155806   -0.189859
     65          1           0        7.701342   -2.307921   -1.275548
     66          1           0        7.279475   -3.869898   -1.685359
     67          1           0        7.272874   -3.550904    0.107835
     68          1           0        6.886188   -0.474338   -0.336678
     69          1           0        4.605370    1.375800    0.755892
     70          1           0        6.459788    1.233006    1.444914
     71          1           0        4.849957    0.071732    2.020417
     72          1           0        3.342382    6.282387   -1.123837
     73          1           0        4.086451    4.959560   -1.152631
     74          1           0        0.042724    6.825085   -1.912395
     75          1           0        1.248541    7.558879   -0.949746
     76          1           0       -0.317179    7.039756   -0.232468
     77          1           0        3.540781    6.777577    1.371366
     78          1           0        5.174231    6.405968    0.909941
     79          1           0        3.891033    5.286615    1.803311
     80          1           0       -3.694304   -4.358354   -1.833284
     81          1           0       -8.085626   -1.759956   -1.661966
 ---------------------------------------------------------------------

 SCF Done:  E(RB3LYP) =  -1949.10270431     A.U. after   16 cycles

 Excitation energies and oscillator strengths:

 Excited State   1:      Singlet-A      1.7317 eV  715.95 nm  f=0.2421  <S**2>=0.000
     155 ->157         0.11676
     156 ->157         0.69970
 This state for optimization and/or second-order correction.
 Total Energy, E(TD-HF/TD-DFT) =  -1949.03906426
 Copying the excited state density for this state as the 1-particle RhoCI density.

 The electronic state is 1-A.
 Alpha  occ. eigenvalues --  -19.20990 -19.18433 -19.14282 -19.14124 -19.11040
 Alpha  occ. eigenvalues --  -19.09055 -14.37737 -14.37062 -14.36346 -14.29975
 Alpha  occ. eigenvalues --  -10.33194 -10.33165 -10.27692 -10.27251 -10.25373
 Alpha  occ. eigenvalues --  -10.24154 -10.23907 -10.23727 -10.23659 -10.23586
 Alpha  occ. eigenvalues --  -10.23017 -10.22564 -10.21737 -10.21364 -10.21115
 Alpha  occ. eigenvalues --  -10.21073 -10.20933 -10.20899 -10.20555 -10.20509
 Alpha  occ. eigenvalues --  -10.20413 -10.20367 -10.20106 -10.20030 -10.19906
 Alpha  occ. eigenvalues --  -10.19808 -10.19759 -10.19626 -10.19581 -10.19212
 Alpha  occ. eigenvalues --  -10.19029 -10.18791 -10.18403  -1.12001  -1.09504
 Alpha  occ. eigenvalues --   -1.01610  -1.01332  -1.00110  -0.99965  -0.98235
 Alpha  occ. eigenvalues --   -0.97220  -0.93189  -0.92438  -0.83642  -0.82474
 Alpha  occ. eigenvalues --   -0.81047  -0.80461  -0.80141  -0.79095  -0.77385
 Alpha  occ. eigenvalues --   -0.77009  -0.76299  -0.74956  -0.73392  -0.71672
 Alpha  occ. eigenvalues --   -0.70892  -0.69551  -0.69488  -0.68458  -0.67907
 Alpha  occ. eigenvalues --   -0.67504  -0.65723  -0.63495  -0.63003  -0.60724
 Alpha  occ. eigenvalues --   -0.59440  -0.59307  -0.58559  -0.57711  -0.56762
 Alpha  occ. eigenvalues --   -0.56479  -0.55946  -0.55286  -0.54399  -0.53178
 Alpha  occ. eigenvalues --   -0.52224  -0.50889  -0.50824  -0.50386  -0.50139
 Alpha  occ. eigenvalues --   -0.49568  -0.49352  -0.49066  -0.48851  -0.47832
 Alpha  occ. eigenvalues --   -0.47155  -0.46588  -0.46348  -0.45848  -0.45211
 Alpha  occ. eigenvalues --   -0.44925  -0.44639  -0.44315  -0.43959  -0.43476
 Alpha  occ. eigenvalues --   -0.43417  -0.43356  -0.42632  -0.42379  -0.41910
 Alpha  occ. eigenvalues --   -0.41832  -0.41607  -0.41275  -0.41101  -0.40950
 Alpha  occ. eigenvalues --   -0.40805  -0.40413  -0.40218  -0.39848  -0.39501
 Alpha  occ. eigenvalues --   -0.39244  -0.38931  -0.38776  -0.38348  -0.37984
 Alpha  occ. eigenvalues --   -0.37908  -0.37583  -0.37181  -0.37099  -0.36616
 Alpha  occ. eigenvalues --   -0.36322  -0.36259  -0.35441  -0.35135  -0.34785
 Alpha  occ. eigenvalues --   -0.34566  -0.33721  -0.33682  -0.33245  -0.33186
 Alpha  occ. eigenvalues --   -0.32688  -0.31747  -0.31441  -0.29592  -0.29383
 Alpha  occ. eigenvalues --   -0.29051  -0.28787  -0.26355  -0.25761  -0.24711
 Alpha  occ. eigenvalues --   -0.24507  -0.24265  -0.23890  -0.23549  -0.21428
 Alpha  occ. eigenvalues --   -0.18419
 Alpha virt. eigenvalues --   -0.11245  -0.06323  -0.04486  -0.01929  -0.01688
 Alpha virt. eigenvalues --   -0.00212   0.00624   0.01081   0.01708   0.03504
 Alpha virt. eigenvalues --    0.04099   0.04212   0.04864   0.05825   0.05926

 Mulliken charges:
               1
     1  O   -0.273678
     2  O   -0.210021
     3  O   -0.200860
     4  O   -0.249424
     5  O   -0.225842
     6  O   -0.238287
     7  N   -0.023117
     8  N   -0.123359
     9  N   -0.210505
    10  N   -0.307699
    11  C   -0.174767
    12  C    0.016052
    13  C   -0.118016
    14  C    0.104364
    15  C   -0.108917
    16  C    0.088957
    17  C   -0.018396
    18  C   -0.140944
    19  C    0.216443
    20  C   -0.040744
    21  C    0.113864
    22  C    0.146494
    23  C   -0.048778
    24  C    0.271214
    25  C   -0.140018
    26  C    0.013361
    27  C    0.111883
    28  C    0.017098
    29  C   -0.175708
    30  C    0.082186
    31  C   -0.130361
    32  C    0.082570
    33  C   -0.068859
    34  C    0.054700
    35  C   -0.007626
    36  C   -0.172914
    37  C    0.117421
    38  C   -0.088395
    39  C    0.174166
    40  C    0.107132
    41  C    0.189706
    42  C    0.005740
    43  C    0.010455
    44  H    0.111090
    45  H   -0.031125
    46  H   -0.039387
    47  H   -0.015528
    48  H    0.029461
    49  H    0.020680
    50  H   -0.039027
    51  H    0.040387
    52  H    0.155472
    53  H    0.011873
    54  H    0.027984
    55  H    0.033620
    56  H    0.196722
    57  H    0.030009
    58  H    0.062955
    59  H    0.087055
    60  H    0.069728
    61  H    0.024331
    62  H    0.032051
    63  H    0.026017
    64  H   -0.015500
    65  H   -0.002900
    66  H    0.010117
    67  H    0.044076
    68  H    0.002257
    69  H    0.120520
    70  H    0.026269
    71  H    0.050641
    72  H   -0.037548
    73  H    0.010507
    74  H    0.036486
    75  H    0.030069
    76  H    0.019708
    77  H   -0.012704
    78  H    0.030441
    79  H    0.022556
    80  H    0.244034
    81  H    0.160029
 Sum of Mulliken charges =  -0.00000

 Dipole moment (field-independent basis, Debye):
    X=             -4.7362    Y=              2.8513    Z=              0.3605  Tot=              5.5400
 Quadrupole moment (field-independent basis, Debye-Ang):
   XX=           -259.1990   YY=           -236.0697   ZZ=           -253.9727
   XY=             21.6603   XZ=             11.6992   YZ=            -17.9905

 Normal termination of Gaussian 16 at Sat Jul  6 04:35:05 2019.
