 Gaussian 16, Revision A.03,
 Gaussian 16:  ES64L-G16RevA.03 25-Dec-2016

 --------------------------
 # td=(NStates=1) B3LYP/SVP
 --------------------------

 --
 TD
 --
 Symbolic Z-matrix:
 Charge =  0 Multiplicity = 1

                         Standard orientation:
 ---------------------------------------------------------------------
 Center     Atomic      Atomic             Coordinates (Angstroms)
 Number     Number       Type             X           Y           Z
 ---------------------------------------------------------------------
      1          8           0        4.623402   -4.795738   -1.784357
      2          8           0       -2.981679   -4.759443   -1.314406
      3          8           0       -7.198465   -1.238693   -1.805483
      4          8           0       -3.837198   -3.072396   -0.066386
      5          8           0       -7.618004   -0.656652    0.209564
      6          8           0        2.988434    2.424989    0.392094
      7          7           0        0.316651   -0.501976    0.634323
      8          7           0       -1.585749    1.737741    0.365264
      9          7           0        3.487951   -3.107101   -0.721933
     10          7           0        0.810969    2.912341    0.148492
     11          6           0       -0.636640   -2.498047    1.351034
     12          6           0       -0.969566   -1.088892    0.976935
     13          6           0        0.695438   -2.734040    1.130333
     14          6           0        1.313119   -1.431702    0.718789
     15          6           0       -3.718457    1.431903    0.379827
     16          6           0       -2.498753    0.801247    0.625458
     17          6           0       -2.210990   -0.472080    0.827471
     18          6           0       -3.573046    2.712638   -0.050300
     19          6           0       -1.631162   -3.504022    1.911551
     20          6           0        5.566631   -2.529821   -1.354595
     21          6           0        3.621177   -1.781257   -0.172325
     22          6           0       -2.166440    2.883582    0.013951
     23          6           0        5.064432   -1.524563   -0.414604
     24          6           0       -5.103733    0.768971    0.443555
     25          6           0        2.642397   -1.057866    0.353521
     26          6           0        1.440414   -3.968210    1.695281
     27          6           0        4.551674   -3.646378   -1.340449
     28          6           0       -2.093860   -4.579562    0.895735
     29          6           0       -5.421826   -0.162237   -0.693008
     30          6           0       -4.482003    3.844883   -0.451152
     31          6           0       -1.313721    3.982151   -0.468894
     32          6           0        7.004337   -3.015064   -1.168401
     33          6           0        5.761734   -0.536974    0.203719
     34          6           0        0.016343    3.920841   -0.302587
     35          6           0        1.020578    5.090952   -0.593177
     36          6           0        2.281414    4.701998   -0.362460
     37          6           0       -3.099865   -4.036195   -0.215639
     38          6           0        5.433729    0.443449    1.261130
     39          6           0       -6.885243   -0.647516   -0.669097
     40          6           0        3.617947    5.323183   -0.301303
     41          6           0        2.146310    3.264145    0.096413
     42          6           0        0.571291    6.461953   -0.968831
     43          6           0        4.169765    5.589094    1.079170
     44          1           0        0.380548    0.396650    0.058661
     45          1           0       -3.094257   -1.035562    1.106330
     46          1           0       -2.396353   -2.925545    2.222929
     47          1           0       -1.097170   -3.978513    2.809184
     48          1           0        5.463358   -2.375125   -2.420460
     49          1           0       -5.406354    0.197925    1.390858
     50          1           0       -5.934651    1.428466    0.415191
     51          1           0        2.930113   -0.059551    0.421106
     52          1           0       -0.399547    1.808645    0.444321
     53          1           0        1.189157   -4.719522    0.933098
     54          1           0        2.480398   -3.863538    1.706736
     55          1           0        1.271523   -4.355995    2.689201
     56          1           0        2.471829   -3.410059   -0.916089
     57          1           0       -1.102266   -5.049505    0.501491
     58          1           0       -2.731274   -5.300211    1.462964
     59          1           0       -4.731932   -1.004192   -0.634479
     60          1           0       -4.988656    0.286937   -1.812572
     61          1           0       -4.263790    4.923085    0.066584
     62          1           0       -5.468287    3.445726   -0.172013
     63          1           0       -4.494706    3.892712   -1.683251
     64          1           0       -1.587851    4.860595   -0.909565
     65          1           0        7.815015   -2.365402   -1.312782
     66          1           0        7.071700   -3.848149   -1.864813
     67          1           0        7.333210   -3.366023   -0.031259
     68          1           0        6.835841   -0.463976   -0.124387
     69          1           0        4.927450    1.356230    0.939553
     70          1           0        6.388744    0.582383    1.806654
     71          1           0        4.777147   -0.118503    2.144852
     72          1           0        3.978956    6.291199   -0.956181
     73          1           0        4.364498    4.482860   -0.823475
     74          1           0       -0.088810    6.670782   -1.827133
     75          1           0        1.301639    7.134438   -1.067477
     76          1           0        0.028128    7.034795   -0.114739
     77          1           0        3.506427    6.412243    1.530712
     78          1           0        5.327874    6.029805    1.112191
     79          1           0        4.116190    4.679870    1.821531
     80          1           0       -3.787568   -4.514672   -1.882877
     81          1           0       -8.087513   -1.704270   -1.684129
 ---------------------------------------------------------------------

 SCF Done:  E(RB3LYP) =  -1949.13267847     A.U. after   17 cycles

 Excitation energies and oscillator strengths:

 Excited State   1:      Singlet-A      2.0122 eV  616.17 nm  f=0.4172  <S**2>=0.000
     156 ->157         0.70568
     156 <-157        -0.11109
 This state for optimization and/or second-order correction.
 Total Energy, E(TD-HF/TD-DFT) =  -1949.05873218
 Copying the excited state density for this state as the 1-particle RhoCI density.

 The electronic state is 1-A.
 Alpha  occ. eigenvalues --  -19.21553 -19.17503 -19.15206 -19.12586 -19.10691
 Alpha  occ. eigenvalues --  -19.09184 -14.39227 -14.37372 -14.35153 -14.28446
 Alpha  occ. eigenvalues --  -10.34748 -10.31229 -10.29013 -10.25844 -10.25643
 Alpha  occ. eigenvalues --  -10.24548 -10.24190 -10.23417 -10.23182 -10.21864
 Alpha  occ. eigenvalues --  -10.21667 -10.21573 -10.21233 -10.21024 -10.20980
 Alpha  occ. eigenvalues --  -10.20929 -10.20808 -10.20744 -10.20564 -10.20333
 Alpha  occ. eigenvalues --  -10.20139 -10.19988 -10.19967 -10.19782 -10.19695
 Alpha  occ. eigenvalues --  -10.19479 -10.19166 -10.19018 -10.18966 -10.18804
 Alpha  occ. eigenvalues --  -10.18694 -10.18371 -10.17551  -1.12391  -1.12071
 Alpha  occ. eigenvalues --   -1.02805  -1.02792  -1.01980  -1.00515  -0.99689
 Alpha  occ. eigenvalues --   -0.97101  -0.94994  -0.90360  -0.82897  -0.82206
 Alpha  occ. eigenvalues --   -0.81919  -0.81674  -0.79978  -0.79266  -0.77584
 Alpha  occ. eigenvalues --   -0.77024  -0.76707  -0.75485  -0.74340  -0.72657
 Alpha  occ. eigenvalues --   -0.71030  -0.69928  -0.68817  -0.68586  -0.68096
 Alpha  occ. eigenvalues --   -0.66700  -0.66033  -0.64641  -0.62179  -0.61674
 Alpha  occ. eigenvalues --   -0.60176  -0.59562  -0.58865  -0.58226  -0.58046
 Alpha  occ. eigenvalues --   -0.56827  -0.55169  -0.54509  -0.52894  -0.52725
 Alpha  occ. eigenvalues --   -0.52222  -0.52074  -0.51626  -0.51160  -0.50287
 Alpha  occ. eigenvalues --   -0.49614  -0.49333  -0.48414  -0.48083  -0.47674
 Alpha  occ. eigenvalues --   -0.47537  -0.47362  -0.46223  -0.45943  -0.45330
 Alpha  occ. eigenvalues --   -0.45067  -0.44940  -0.44491  -0.43875  -0.43670
 Alpha  occ. eigenvalues --   -0.43318  -0.42889  -0.42686  -0.42562  -0.42180
 Alpha  occ. eigenvalues --   -0.41777  -0.41606  -0.41203  -0.40692  -0.40675
 Alpha  occ. eigenvalues --   -0.40480  -0.40172  -0.39837  -0.39755  -0.39501
 Alpha  occ. eigenvalues --   -0.39274  -0.38976  -0.38873  -0.38383  -0.38324
 Alpha  occ. eigenvalues --   -0.37949  -0.37758  -0.37560  -0.37373  -0.36729
 Alpha  occ. eigenvalues --   -0.36391  -0.36040  -0.35661  -0.34997  -0.34823
 Alpha  occ. eigenvalues --   -0.34530  -0.33983  -0.33379  -0.33090  -0.32927
 Alpha  occ. eigenvalues --   -0.32395  -0.31943  -0.30662  -0.30496  -0.30180
 Alpha  occ. eigenvalues --   -0.28779  -0.26922  -0.26688  -0.26298  -0.26017
 Alpha  occ. eigenvalues --   -0.25358  -0.24765  -0.24042  -0.23794  -0.21672
 Alpha  occ. eigenvalues --   -0.18107
 Alpha virt. eigenvalues --   -0.10158  -0.05336  -0.03627  -0.01837   0.00285
 Alpha virt. eigenvalues --    0.01368   0.01986   0.02173   0.03122   0.03392
 Alpha virt. eigenvalues --    0.03935   0.04336   0.04781   0.05405   0.06264

 Mulliken charges:
               1
     1  O   -0.230528
     2  O   -0.159770
     3  O   -0.188604
     4  O   -0.225442
     5  O   -0.163326
     6  O   -0.219688
     7  N   -0.130646
     8  N   -0.147195
     9  N   -0.150605
    10  N   -0.322532
    11  C   -0.132010
    12  C    0.081918
    13  C   -0.164551
    14  C    0.094028
    15  C   -0.041065
    16  C    0.089896
    17  C   -0.066312
    18  C   -0.120860
    19  C    0.167193
    20  C   -0.014314
    21  C    0.091906
    22  C    0.085485
    23  C    0.031184
    24  C    0.078633
    25  C   -0.059400
    26  C    0.105175
    27  C    0.090925
    28  C   -0.018723
    29  C   -0.100202
    30  C    0.041308
    31  C   -0.064616
    32  C    0.024010
    33  C   -0.167144
    34  C    0.092239
    35  C   -0.088270
    36  C   -0.096350
    37  C    0.135014
    38  C    0.032275
    39  C    0.112694
    40  C   -0.023746
    41  C    0.135269
    42  C    0.111741
    43  C   -0.072706
    44  H    0.164885
    45  H    0.008526
    46  H   -0.030613
    47  H    0.024418
    48  H    0.036725
    49  H    0.023224
    50  H   -0.017960
    51  H   -0.023841
    52  H    0.217627
    53  H    0.016991
    54  H    0.004180
    55  H    0.028554
    56  H    0.151737
    57  H    0.056985
    58  H    0.051218
    59  H    0.041497
    60  H    0.039112
    61  H    0.065478
    62  H    0.012926
    63  H    0.048660
    64  H   -0.083910
    65  H    0.002905
    66  H    0.028445
    67  H    0.020652
    68  H    0.000666
    69  H    0.091612
    70  H    0.013198
    71  H    0.035374
    72  H    0.025913
    73  H    0.028935
    74  H    0.018989
    75  H   -0.042818
    76  H    0.015834
    77  H    0.015704
    78  H    0.031597
    79  H    0.049064
    80  H    0.206275
    81  H    0.188948
 Sum of Mulliken charges =  -0.00000

 Dipole moment (field-independent basis, Debye):
    X=             -3.2761    Y=             -0.9566    Z=             -0.8585  Tot=              3.5192
 Quadrupole moment (field-independent basis, Debye-Ang):
   XX=           -251.5889   YY=           -243.2625   ZZ=           -253.4125
   XY=             23.2852   XZ=             15.8429   YZ=            -12.1347

 Normal termination of Gaussian 16 at Sat Jun 29 16:00:46 2019.
