 Gaussian 16, Revision A.03,
 Gaussian 16:  ES64L-G16RevA.03 25-Dec-2016

 --------------------------
 # td=(NStates=1) B3LYP/SVP
 --------------------------

 --
 TD
 --
 Symbolic Z-matrix:
 Charge =  0 Multiplicity = 1

                         Standard orientation:
 ---------------------------------------------------------------------
 Center     Atomic      Atomic             Coordinates (Angstroms)
 Number     Number       Type             X           Y           Z
 ---------------------------------------------------------------------
      1          8           0       -4.626815   -4.788005    1.740943
      2          8           0        2.842267   -4.794442    1.277931
      3          8           0        6.946237   -1.640415    1.930391
      4          8           0        3.709965   -3.148484    0.047252
      5          8           0        7.556412   -0.632776   -0.022454
      6          8           0       -2.989051    2.502987   -0.340290
      7          7           0       -0.276520   -0.551221   -0.716847
      8          7           0        1.601096    1.810807   -0.315759
      9          7           0       -3.427373   -3.004356    0.703717
     10          7           0       -0.684853    2.908786   -0.016409
     11          6           0        0.653079   -2.459998   -1.293022
     12          6           0        0.875553   -1.103140   -1.025000
     13          6           0       -0.732318   -2.711246   -1.288863
     14          6           0       -1.364337   -1.481081   -0.805419
     15          6           0        3.744453    1.323720   -0.441380
     16          6           0        2.506816    0.750053   -0.576028
     17          6           0        2.139475   -0.540917   -0.868693
     18          6           0        3.606102    2.736297   -0.055211
     19          6           0        1.533499   -3.470259   -1.889014
     20          6           0       -5.600593   -2.545605    1.484545
     21          6           0       -3.660719   -1.793261    0.172953
     22          6           0        2.265083    2.959495   -0.030602
     23          6           0       -5.108840   -1.443373    0.460828
     24          6           0        5.032581    0.644073   -0.394930
     25          6           0       -2.637613   -1.076860   -0.404212
     26          6           0       -1.574579   -3.750851   -1.793569
     27          6           0       -4.565130   -3.585104    1.331957
     28          6           0        2.109476   -4.604601   -0.988168
     29          6           0        5.458548   -0.200110    0.784986
     30          6           0        4.559699    3.757865    0.220141
     31          6           0        1.423751    4.007374    0.236587
     32          6           0       -6.987002   -3.063190    1.247415
     33          6           0       -5.854918   -0.489685   -0.180286
     34          6           0        0.005845    4.001961    0.264029
     35          6           0       -0.986387    5.172214    0.656255
     36          6           0       -2.173278    4.689448    0.408037
     37          6           0        2.989530   -4.110185    0.130691
     38          6           0       -5.389580    0.364962   -1.303318
     39          6           0        6.776985   -0.874500    0.885475
     40          6           0       -3.497472    5.395046    0.352750
     41          6           0       -2.024558    3.247887   -0.038554
     42          6           0       -0.518517    6.528435    0.995606
     43          6           0       -3.962246    5.770903   -1.018830
     44          1           0       -0.478335    0.338624   -0.360396
     45          1           0        3.194181   -0.968928   -0.585580
     46          1           0        2.451505   -2.790300   -2.143374
     47          1           0        1.051539   -4.026152   -2.638449
     48          1           0       -5.561814   -2.265261    2.618768
     49          1           0        5.190334    0.016296   -1.423655
     50          1           0        5.996613    1.231022   -0.435565
     51          1           0       -2.954973   -0.170846   -0.724293
     52          1           0        0.603721    1.812696   -0.330367
     53          1           0       -1.747100   -4.655343   -1.176477
     54          1           0       -2.530285   -3.438259   -2.189325
     55          1           0       -0.981389   -4.069889   -2.740120
     56          1           0       -2.617676   -3.685169    0.186750
     57          1           0        1.147565   -5.089226   -0.736139
     58          1           0        2.781132   -5.282020   -1.684789
     59          1           0        4.890461   -1.242598    0.889242
     60          1           0        5.185099    0.358217    1.642905
     61          1           0        4.309045    4.565706   -0.582636
     62          1           0        5.701977    3.596115    0.104561
     63          1           0        4.567776    4.137170    1.235278
     64          1           0        1.797007    5.132127    0.454627
     65          1           0       -7.712308   -2.164835    1.696162
     66          1           0       -7.110537   -3.942230    1.612896
     67          1           0       -7.312113   -3.300713    0.268479
     68          1           0       -6.973530   -0.260875    0.247620
     69          1           0       -5.268250    1.457928   -0.919031
     70          1           0       -6.108724    0.952853   -1.948784
     71          1           0       -4.946571   -0.088835   -2.073015
     72          1           0       -3.305981    6.300612    0.899191
     73          1           0       -4.072674    4.792957    0.985751
     74          1           0        0.148093    6.233491    1.958413
     75          1           0       -1.303158    7.274495    1.276516
     76          1           0        0.441670    7.154301    0.381083
     77          1           0       -3.277375    6.578141   -1.305221
     78          1           0       -4.854427    6.364889   -0.839988
     79          1           0       -3.971391    5.030193   -1.735121
     80          1           0        3.446131   -4.404311    2.065107
     81          1           0        7.931866   -1.895681    1.972931
 ---------------------------------------------------------------------

 SCF Done:  E(RB3LYP) =  -1949.01360724     A.U. after   17 cycles

 Excitation energies and oscillator strengths:

 Excited State   1:      Singlet-A      1.8523 eV  669.33 nm  f=0.4467  <S**2>=0.000
     156 ->157         0.71206
     156 <-157        -0.13505
 This state for optimization and/or second-order correction.
 Total Energy, E(TD-HF/TD-DFT) =  -1948.94553463
 Copying the excited state density for this state as the 1-particle RhoCI density.

 The electronic state is 1-A.
 Alpha  occ. eigenvalues --  -19.20216 -19.19658 -19.13883 -19.11498 -19.11485
 Alpha  occ. eigenvalues --  -19.09403 -14.38037 -14.37458 -14.33194 -14.28400
 Alpha  occ. eigenvalues --  -10.33325 -10.31709 -10.29855 -10.25710 -10.24579
 Alpha  occ. eigenvalues --  -10.23677 -10.23151 -10.22542 -10.22342 -10.22228
 Alpha  occ. eigenvalues --  -10.22155 -10.22025 -10.21957 -10.21835 -10.21543
 Alpha  occ. eigenvalues --  -10.21122 -10.20959 -10.20437 -10.20089 -10.19979
 Alpha  occ. eigenvalues --  -10.19741 -10.19741 -10.19727 -10.19463 -10.19335
 Alpha  occ. eigenvalues --  -10.19109 -10.18518 -10.18385 -10.18374 -10.17625
 Alpha  occ. eigenvalues --  -10.17180 -10.17099 -10.16776  -1.10942  -1.10194
 Alpha  occ. eigenvalues --   -1.01328  -1.01264  -1.00517  -0.99166  -0.98868
 Alpha  occ. eigenvalues --   -0.97049  -0.95088  -0.91236  -0.83361  -0.82487
 Alpha  occ. eigenvalues --   -0.81606  -0.81217  -0.80222  -0.79712  -0.78296
 Alpha  occ. eigenvalues --   -0.77559  -0.76818  -0.75246  -0.74730  -0.73168
 Alpha  occ. eigenvalues --   -0.71981  -0.70433  -0.68981  -0.68812  -0.68274
 Alpha  occ. eigenvalues --   -0.67834  -0.66061  -0.64532  -0.62537  -0.62102
 Alpha  occ. eigenvalues --   -0.61213  -0.60425  -0.58515  -0.57731  -0.57051
 Alpha  occ. eigenvalues --   -0.55844  -0.55547  -0.54210  -0.53698  -0.52954
 Alpha  occ. eigenvalues --   -0.52358  -0.51834  -0.50890  -0.50364  -0.49801
 Alpha  occ. eigenvalues --   -0.49655  -0.48915  -0.48691  -0.48467  -0.48174
 Alpha  occ. eigenvalues --   -0.47447  -0.47094  -0.46539  -0.46127  -0.45802
 Alpha  occ. eigenvalues --   -0.45262  -0.45014  -0.44949  -0.44552  -0.44006
 Alpha  occ. eigenvalues --   -0.43518  -0.43320  -0.43135  -0.42959  -0.42751
 Alpha  occ. eigenvalues --   -0.42324  -0.41945  -0.41646  -0.41234  -0.41126
 Alpha  occ. eigenvalues --   -0.40879  -0.40488  -0.40140  -0.39733  -0.39293
 Alpha  occ. eigenvalues --   -0.38641  -0.38447  -0.38266  -0.38100  -0.37873
 Alpha  occ. eigenvalues --   -0.37703  -0.37325  -0.36917  -0.36418  -0.36389
 Alpha  occ. eigenvalues --   -0.36244  -0.35194  -0.34949  -0.34451  -0.33927
 Alpha  occ. eigenvalues --   -0.33412  -0.33309  -0.33223  -0.32444  -0.32355
 Alpha  occ. eigenvalues --   -0.31771  -0.31283  -0.31162  -0.29470  -0.29115
 Alpha  occ. eigenvalues --   -0.26910  -0.26459  -0.26325  -0.26005  -0.25374
 Alpha  occ. eigenvalues --   -0.25086  -0.23806  -0.23370  -0.23157  -0.21218
 Alpha  occ. eigenvalues --   -0.17386
 Alpha virt. eigenvalues --   -0.10302  -0.05237  -0.04067  -0.02188  -0.01241
 Alpha virt. eigenvalues --    0.01279   0.01636   0.01887   0.02573   0.02989
 Alpha virt. eigenvalues --    0.03358   0.03906   0.04656   0.05027   0.05662

 Mulliken charges:
               1
     1  O   -0.263341
     2  O   -0.224912
     3  O   -0.168935
     4  O   -0.211716
     5  O   -0.247279
     6  O   -0.250806
     7  N   -0.028853
     8  N   -0.108041
     9  N   -0.175146
    10  N   -0.274932
    11  C   -0.095764
    12  C    0.123621
    13  C   -0.155939
    14  C    0.104084
    15  C   -0.007582
    16  C    0.005742
    17  C   -0.069886
    18  C   -0.078678
    19  C    0.073419
    20  C   -0.039791
    21  C    0.011742
    22  C    0.155240
    23  C    0.003653
    24  C   -0.000433
    25  C   -0.040500
    26  C    0.039648
    27  C    0.138608
    28  C   -0.002183
    29  C   -0.035762
    30  C    0.023440
    31  C   -0.152168
    32  C    0.108179
    33  C   -0.151724
    34  C   -0.006320
    35  C    0.005890
    36  C   -0.250173
    37  C    0.141952
    38  C    0.095221
    39  C    0.124900
    40  C    0.142647
    41  C    0.157541
    42  C   -0.045321
    43  C    0.095504
    44  H    0.109783
    45  H    0.071361
    46  H    0.033397
    47  H   -0.015295
    48  H    0.072408
    49  H    0.029619
    50  H    0.016684
    51  H   -0.027217
    52  H    0.096429
    53  H    0.041796
    54  H    0.032455
    55  H    0.029449
    56  H    0.194370
    57  H    0.026850
    58  H    0.064194
    59  H    0.051241
    60  H    0.015434
    61  H    0.042128
    62  H    0.018803
    63  H    0.023224
    64  H   -0.013203
    65  H    0.033245
    66  H   -0.025741
    67  H   -0.010583
    68  H    0.029416
    69  H    0.071029
    70  H   -0.008043
    71  H    0.006437
    72  H   -0.043188
    73  H   -0.011151
    74  H    0.040848
    75  H    0.031729
    76  H    0.060352
    77  H   -0.011279
    78  H   -0.000963
    79  H    0.015990
    80  H    0.232475
    81  H    0.210672
 Sum of Mulliken charges =  -0.00000

 Dipole moment (field-independent basis, Debye):
    X=              1.3451    Y=             -0.4298    Z=              0.7416  Tot=              1.5950
 Quadrupole moment (field-independent basis, Debye-Ang):
   XX=           -242.3013   YY=           -241.6672   ZZ=           -249.7681
   XY=            -18.8842   XZ=             26.1419   YZ=             12.8770

 Normal termination of Gaussian 16 at Mon Jul  1 11:49:39 2019.
