 Gaussian 16, Revision A.03,
 Gaussian 16:  ES64L-G16RevA.03 25-Dec-2016

 --------------------------
 # td=(NStates=1) B3LYP/SVP
 --------------------------

 --
 TD
 --
 Symbolic Z-matrix:
 Charge =  0 Multiplicity = 1

                         Standard orientation:
 ---------------------------------------------------------------------
 Center     Atomic      Atomic             Coordinates (Angstroms)
 Number     Number       Type             X           Y           Z
 ---------------------------------------------------------------------
      1          8           0        4.752622   -4.732974   -1.839317
      2          8           0       -3.006078   -4.911757   -1.452635
      3          8           0       -7.167947   -1.256674   -1.922472
      4          8           0       -3.704008   -3.240609   -0.109450
      5          8           0       -7.171552   -1.335473    0.645048
      6          8           0        3.009502    2.586681    0.166955
      7          7           0        0.179534   -0.618186    0.363043
      8          7           0       -1.569800    1.737815    0.247148
      9          7           0        3.533403   -3.155839   -0.539427
     10          7           0        0.637404    2.998356   -0.091984
     11          6           0       -0.637004   -2.464646    1.371438
     12          6           0       -0.947508   -1.191872    0.760846
     13          6           0        0.796865   -2.567414    1.218054
     14          6           0        1.250684   -1.445331    0.655321
     15          6           0       -3.863157    1.367731    0.267146
     16          6           0       -2.553565    0.727167    0.515709
     17          6           0       -2.216547   -0.541527    0.829961
     18          6           0       -3.592309    2.669512    0.089351
     19          6           0       -1.567418   -3.513940    1.851318
     20          6           0        5.698673   -2.485657   -1.250898
     21          6           0        3.697402   -1.813597   -0.171058
     22          6           0       -2.118023    2.927402   -0.025721
     23          6           0        5.115149   -1.527517   -0.348069
     24          6           0       -5.041804    0.696799    0.485668
     25          6           0        2.604558   -1.040656    0.311925
     26          6           0        1.558198   -3.733941    1.734494
     27          6           0        4.655660   -3.630682   -1.326753
     28          6           0       -1.907905   -4.524423    0.803516
     29          6           0       -5.427019   -0.027415   -0.800543
     30          6           0       -4.637572    3.685872   -0.219269
     31          6           0       -1.430286    4.171592   -0.236309
     32          6           0        7.008326   -3.102949   -0.855339
     33          6           0        5.806632   -0.593096    0.340159
     34          6           0       -0.021168    4.174472   -0.338737
     35          6           0        0.946885    5.304065   -0.490414
     36          6           0        2.143303    4.819905   -0.341564
     37          6           0       -2.918069   -4.095249   -0.255703
     38          6           0        5.262743    0.453208    1.335410
     39          6           0       -6.668421   -0.962985   -0.600180
     40          6           0        3.405678    5.511279   -0.554124
     41          6           0        2.098415    3.315060   -0.061305
     42          6           0        0.326864    6.614921   -0.793937
     43          6           0        4.015087    5.681399    0.951810
     44          1           0        0.213314    0.251617   -0.015405
     45          1           0       -3.122736   -1.249458    1.198414
     46          1           0       -2.674082   -2.920248    1.815757
     47          1           0       -1.172313   -3.942863    2.683522
     48          1           0        5.679038   -2.210315   -2.431418
     49          1           0       -4.984326    0.195348    1.374877
     50          1           0       -5.751558    1.521510    0.618707
     51          1           0        2.812102    0.019194    0.340647
     52          1           0       -0.544458    1.515874    0.121262
     53          1           0        1.615580   -4.662241    1.035452
     54          1           0        2.674999   -3.589077    2.020131
     55          1           0        1.187538   -4.053805    2.785898
     56          1           0        2.836172   -3.596903   -0.493517
     57          1           0       -1.187243   -5.012545    0.193082
     58          1           0       -2.328078   -5.459785    1.393359
     59          1           0       -4.584430   -0.620806   -1.216450
     60          1           0       -5.667991    0.691129   -1.674895
     61          1           0       -4.605155    4.577386    0.741351
     62          1           0       -5.578893    2.996657   -0.102409
     63          1           0       -4.485746    4.114850   -1.217754
     64          1           0       -1.984936    4.984470   -0.664198
     65          1           0        7.713669   -2.198971   -1.113365
     66          1           0        7.090239   -3.860324   -1.416480
     67          1           0        7.030983   -3.435799    0.123742
     68          1           0        6.905984   -0.493790    0.074945
     69          1           0        4.916070    1.445521    0.742469
     70          1           0        6.058338    0.838892    2.050733
     71          1           0        4.463718    0.019979    2.058610
     72          1           0        3.390044    6.416216   -1.112576
     73          1           0        4.234985    4.921049   -0.984163
     74          1           0       -0.293403    6.863932   -1.603497
     75          1           0        1.065675    7.307207   -0.965868
     76          1           0        0.075590    7.187044    0.223349
     77          1           0        3.413010    6.183092    1.739128
     78          1           0        4.848825    6.325860    1.087745
     79          1           0        4.244550    4.718228    1.467487
     80          1           0       -3.677459   -4.678948   -2.033280
     81          1           0       -8.051786   -1.862653   -1.715126
 ---------------------------------------------------------------------

 SCF Done:  E(RB3LYP) =  -1948.97866035     A.U. after   17 cycles

 Excitation energies and oscillator strengths:

 Excited State   1:      Singlet-A      1.9902 eV  622.97 nm  f=0.3331  <S**2>=0.000
     156 ->157         0.70431
 This state for optimization and/or second-order correction.
 Total Energy, E(TD-HF/TD-DFT) =  -1948.90552169
 Copying the excited state density for this state as the 1-particle RhoCI density.

 The electronic state is 1-A.
 Alpha  occ. eigenvalues --  -19.21162 -19.16631 -19.14920 -19.14370 -19.12259
 Alpha  occ. eigenvalues --  -19.11996 -14.37353 -14.36626 -14.34933 -14.28294
 Alpha  occ. eigenvalues --  -10.34976 -10.33492 -10.29534 -10.27480 -10.24728
 Alpha  occ. eigenvalues --  -10.24335 -10.22966 -10.22816 -10.22796 -10.22598
 Alpha  occ. eigenvalues --  -10.22228 -10.22150 -10.21885 -10.21614 -10.21192
 Alpha  occ. eigenvalues --  -10.21055 -10.20967 -10.20443 -10.19922 -10.19624
 Alpha  occ. eigenvalues --  -10.19594 -10.19582 -10.19514 -10.19340 -10.19324
 Alpha  occ. eigenvalues --  -10.19188 -10.19052 -10.18785 -10.18690 -10.18560
 Alpha  occ. eigenvalues --  -10.18555 -10.17811 -10.17354  -1.10221  -1.04641
 Alpha  occ. eigenvalues --   -1.03892  -1.03418  -1.01311  -1.00138  -0.97338
 Alpha  occ. eigenvalues --   -0.95735  -0.94487  -0.89927  -0.85079  -0.83524
 Alpha  occ. eigenvalues --   -0.83058  -0.81416  -0.80077  -0.78863  -0.77756
 Alpha  occ. eigenvalues --   -0.77059  -0.75957  -0.75196  -0.73540  -0.72106
 Alpha  occ. eigenvalues --   -0.71185  -0.70607  -0.69833  -0.69040  -0.68329
 Alpha  occ. eigenvalues --   -0.67638  -0.65128  -0.64671  -0.63174  -0.61753
 Alpha  occ. eigenvalues --   -0.60878  -0.58702  -0.58607  -0.57988  -0.57563
 Alpha  occ. eigenvalues --   -0.56504  -0.56073  -0.55094  -0.53941  -0.53511
 Alpha  occ. eigenvalues --   -0.52612  -0.52086  -0.51762  -0.50567  -0.50268
 Alpha  occ. eigenvalues --   -0.49176  -0.48841  -0.48388  -0.48007  -0.47411
 Alpha  occ. eigenvalues --   -0.47095  -0.46732  -0.46201  -0.45664  -0.45288
 Alpha  occ. eigenvalues --   -0.45107  -0.44682  -0.44578  -0.44140  -0.43753
 Alpha  occ. eigenvalues --   -0.43640  -0.43252  -0.42953  -0.42706  -0.42026
 Alpha  occ. eigenvalues --   -0.41973  -0.41663  -0.41238  -0.41129  -0.40817
 Alpha  occ. eigenvalues --   -0.40635  -0.40497  -0.40327  -0.39772  -0.39482
 Alpha  occ. eigenvalues --   -0.39339  -0.39185  -0.38763  -0.38529  -0.38090
 Alpha  occ. eigenvalues --   -0.37243  -0.37211  -0.37135  -0.36982  -0.36735
 Alpha  occ. eigenvalues --   -0.36467  -0.36066  -0.35748  -0.35286  -0.35099
 Alpha  occ. eigenvalues --   -0.34232  -0.34163  -0.33517  -0.33235  -0.33128
 Alpha  occ. eigenvalues --   -0.32994  -0.32472  -0.31007  -0.30192  -0.29563
 Alpha  occ. eigenvalues --   -0.28104  -0.27972  -0.26977  -0.26309  -0.25364
 Alpha  occ. eigenvalues --   -0.25091  -0.24824  -0.23687  -0.23166  -0.20893
 Alpha  occ. eigenvalues --   -0.17796
 Alpha virt. eigenvalues --   -0.09614  -0.05497  -0.05055  -0.03765  -0.01723
 Alpha virt. eigenvalues --   -0.00320   0.01042   0.02104   0.03344   0.03973
 Alpha virt. eigenvalues --    0.04125   0.04420   0.05042   0.05448   0.06109

 Mulliken charges:
               1
     1  O   -0.207295
     2  O   -0.242509
     3  O   -0.279203
     4  O   -0.170881
     5  O   -0.344853
     6  O   -0.156208
     7  N    0.044957
     8  N   -0.096132
     9  N   -0.031750
    10  N   -0.402455
    11  C   -0.140236
    12  C   -0.011320
    13  C   -0.102113
    14  C    0.099628
    15  C   -0.079926
    16  C    0.055487
    17  C   -0.083021
    18  C   -0.147915
    19  C    0.145801
    20  C   -0.126770
    21  C    0.048676
    22  C    0.103341
    23  C    0.028265
    24  C    0.202356
    25  C   -0.084115
    26  C   -0.034149
    27  C    0.123317
    28  C    0.007322
    29  C   -0.040796
    30  C    0.005275
    31  C   -0.074234
    32  C    0.187010
    33  C   -0.139860
    34  C    0.060817
    35  C   -0.057939
    36  C   -0.174659
    37  C    0.135080
    38  C   -0.025669
    39  C    0.275853
    40  C    0.110129
    41  C    0.206007
    42  C    0.162762
    43  C   -0.046197
    44  H    0.056432
    45  H    0.058800
    46  H    0.056614
    47  H   -0.031567
    48  H    0.060010
    49  H    0.007293
    50  H   -0.009461
    51  H    0.004494
    52  H    0.142836
    53  H    0.042766
    54  H    0.035609
    55  H    0.030120
    56  H   -0.010985
    57  H    0.011583
    58  H    0.060735
    59  H    0.062228
    60  H    0.051185
    61  H    0.054186
    62  H    0.023773
    63  H    0.046602
    64  H   -0.026250
    65  H    0.033140
    66  H   -0.039001
    67  H   -0.006798
    68  H    0.003739
    69  H    0.099839
    70  H    0.009677
    71  H    0.048894
    72  H   -0.004413
    73  H    0.015548
    74  H    0.023712
    75  H   -0.056670
    76  H    0.026741
    77  H   -0.004974
    78  H   -0.009422
    79  H    0.033205
    80  H    0.157711
    81  H    0.240191
 Sum of Mulliken charges =  -0.00000

 Dipole moment (field-independent basis, Debye):
    X=             -2.5001    Y=              1.9185    Z=             -1.2372  Tot=              3.3855
 Quadrupole moment (field-independent basis, Debye-Ang):
   XX=           -246.9722   YY=           -241.5557   ZZ=           -253.6114
   XY=             13.5187   XZ=             21.8950   YZ=            -13.5431

 Normal termination of Gaussian 16 at Tue Jul  2 06:22:09 2019.
