 Gaussian 16, Revision A.03,
 Gaussian 16:  ES64L-G16RevA.03 25-Dec-2016

 --------------------------
 # td=(NStates=1) B3LYP/SVP
 --------------------------

 --
 TD
 --
 Symbolic Z-matrix:
 Charge =  0 Multiplicity = 1

                         Standard orientation:
 ---------------------------------------------------------------------
 Center     Atomic      Atomic             Coordinates (Angstroms)
 Number     Number       Type             X           Y           Z
 ---------------------------------------------------------------------
      1          8           0       -4.578867   -4.586170    2.018599
      2          8           0        3.006471   -4.908064    1.235403
      3          8           0        7.043485   -1.483992    1.769640
      4          8           0        3.860661   -3.332374    0.058408
      5          8           0        7.665936   -0.405907   -0.115837
      6          8           0       -3.117996    2.477432   -0.325816
      7          7           0       -0.360024   -0.578485   -0.602813
      8          7           0        1.537156    1.746945   -0.326832
      9          7           0       -3.492131   -3.069619    0.656895
     10          7           0       -0.720263    2.878481   -0.005690
     11          6           0        0.588840   -2.426795   -1.339215
     12          6           0        0.870984   -1.087603   -0.932480
     13          6           0       -0.781684   -2.697411   -1.256513
     14          6           0       -1.358735   -1.515872   -0.750850
     15          6           0        3.752790    1.448977   -0.362458
     16          6           0        2.527978    0.816851   -0.561238
     17          6           0        2.260874   -0.566014   -0.868608
     18          6           0        3.620754    2.669317    0.035270
     19          6           0        1.531708   -3.507619   -1.788728
     20          6           0       -5.641409   -2.541881    1.401835
     21          6           0       -3.746240   -1.765510    0.057936
     22          6           0        2.120881    2.923580    0.107364
     23          6           0       -5.119650   -1.445677    0.393303
     24          6           0        5.133754    0.769311   -0.509830
     25          6           0       -2.712622   -0.995447   -0.451877
     26          6           0       -1.490755   -3.830046   -1.752478
     27          6           0       -4.503530   -3.600967    1.425913
     28          6           0        2.047666   -4.626647   -0.815631
     29          6           0        5.423416   -0.193791    0.675386
     30          6           0        4.592213    3.748720    0.324139
     31          6           0        1.341712    4.031564    0.399879
     32          6           0       -6.994128   -3.190435    0.940222
     33          6           0       -5.885300   -0.469069   -0.214377
     34          6           0       -0.092370    3.979820    0.365608
     35          6           0       -0.972568    5.151552    0.663976
     36          6           0       -2.232990    4.731030    0.262061
     37          6           0        2.990432   -4.183286    0.203745
     38          6           0       -5.372717    0.465968   -1.221237
     39          6           0        6.854657   -0.672525    0.689622
     40          6           0       -3.498283    5.411505    0.355475
     41          6           0       -2.039504    3.164329   -0.043177
     42          6           0       -0.484069    6.492782    0.933439
     43          6           0       -4.095340    5.715845   -1.077230
     44          1           0       -0.736444    0.577288   -0.443717
     45          1           0        3.144701   -1.107320   -0.901697
     46          1           0        2.465773   -3.161652   -2.178144
     47          1           0        1.267006   -4.133935   -2.496622
     48          1           0       -5.634534   -2.052490    2.321976
     49          1           0        5.139130    0.232196   -1.558711
     50          1           0        6.094371    1.386132   -0.569936
     51          1           0       -2.897695   -0.016514   -0.761304
     52          1           0        0.524107    1.730718   -0.548805
     53          1           0       -1.637226   -4.729398   -1.202513
     54          1           0       -2.424740   -3.633786   -1.996012
     55          1           0       -1.108142   -4.168553   -2.790503
     56          1           0       -2.520943   -3.297223    0.763677
     57          1           0        1.125701   -5.133410   -0.428328
     58          1           0        2.730046   -5.197633   -1.444524
     59          1           0        4.792901   -1.142944    0.912716
     60          1           0        5.401847    0.304012    1.485669
     61          1           0        4.313184    4.850026   -0.154776
     62          1           0        5.679688    3.606996   -0.278375
     63          1           0        4.760693    4.012485    1.461412
     64          1           0        1.827887    5.198465    0.494937
     65          1           0       -7.965157   -2.518010    1.150209
     66          1           0       -6.966839   -4.074654    1.697479
     67          1           0       -6.861497   -3.539950   -0.112808
     68          1           0       -6.784083   -0.294056    0.190259
     69          1           0       -4.968271    1.408455   -0.761206
     70          1           0       -6.224127    0.626692   -1.767381
     71          1           0       -4.707549   -0.210913   -1.782047
     72          1           0       -3.376783    6.298703    1.021549
     73          1           0       -4.181078    4.608425    0.962237
     74          1           0        0.103440    6.370125    2.001322
     75          1           0       -1.344151    7.365476    1.057937
     76          1           0        0.340916    6.843086    0.376008
     77          1           0       -3.435294    6.504934   -1.403571
     78          1           0       -5.174574    6.156356   -1.110043
     79          1           0       -4.147882    4.780584   -1.678006
     80          1           0        3.740805   -4.806848    1.831123
     81          1           0        8.033540   -1.797843    1.730936
 ---------------------------------------------------------------------

 SCF Done:  E(RB3LYP) =  -1949.06785970     A.U. after   17 cycles

 Excitation energies and oscillator strengths:

 Excited State   1:      Singlet-A      1.8309 eV  677.17 nm  f=0.3165  <S**2>=0.000
     156 ->157         0.70562
     156 <-157        -0.10759
 This state for optimization and/or second-order correction.
 Total Energy, E(TD-HF/TD-DFT) =  -1949.00057480
 Copying the excited state density for this state as the 1-particle RhoCI density.

 The electronic state is 1-A.
 Alpha  occ. eigenvalues --  -19.19528 -19.18202 -19.12846 -19.11883 -19.11324
 Alpha  occ. eigenvalues --  -19.10765 -14.38734 -14.36454 -14.36088 -14.30996
 Alpha  occ. eigenvalues --  -10.32167 -10.31266 -10.28560 -10.27904 -10.24966
 Alpha  occ. eigenvalues --  -10.24208 -10.24068 -10.23908 -10.23291 -10.23256
 Alpha  occ. eigenvalues --  -10.22880 -10.22150 -10.21380 -10.21279 -10.21255
 Alpha  occ. eigenvalues --  -10.20717 -10.20325 -10.19954 -10.19835 -10.19782
 Alpha  occ. eigenvalues --  -10.19780 -10.19547 -10.19325 -10.19313 -10.19016
 Alpha  occ. eigenvalues --  -10.19004 -10.18907 -10.18902 -10.18863 -10.18710
 Alpha  occ. eigenvalues --  -10.18170 -10.17969 -10.16164  -1.13830  -1.09525
 Alpha  occ. eigenvalues --   -1.06523  -1.01232  -1.00332  -0.98922  -0.98006
 Alpha  occ. eigenvalues --   -0.97484  -0.94292  -0.92907  -0.83006  -0.82479
 Alpha  occ. eigenvalues --   -0.80743  -0.80520  -0.80349  -0.79188  -0.78053
 Alpha  occ. eigenvalues --   -0.77836  -0.76181  -0.75319  -0.74162  -0.72816
 Alpha  occ. eigenvalues --   -0.71145  -0.70051  -0.69206  -0.68248  -0.67291
 Alpha  occ. eigenvalues --   -0.66856  -0.65328  -0.63921  -0.63227  -0.62025
 Alpha  occ. eigenvalues --   -0.61379  -0.59239  -0.58466  -0.58081  -0.57023
 Alpha  occ. eigenvalues --   -0.56479  -0.55605  -0.55022  -0.53291  -0.52632
 Alpha  occ. eigenvalues --   -0.52498  -0.51673  -0.50984  -0.50379  -0.49796
 Alpha  occ. eigenvalues --   -0.49080  -0.48629  -0.48262  -0.48095  -0.47474
 Alpha  occ. eigenvalues --   -0.46982  -0.46584  -0.46126  -0.45474  -0.45008
 Alpha  occ. eigenvalues --   -0.44757  -0.44559  -0.44243  -0.44082  -0.43857
 Alpha  occ. eigenvalues --   -0.43504  -0.43263  -0.42927  -0.42666  -0.42316
 Alpha  occ. eigenvalues --   -0.41889  -0.41711  -0.41246  -0.41047  -0.40843
 Alpha  occ. eigenvalues --   -0.40635  -0.40404  -0.39788  -0.39561  -0.39201
 Alpha  occ. eigenvalues --   -0.39090  -0.38707  -0.38426  -0.38207  -0.37930
 Alpha  occ. eigenvalues --   -0.37630  -0.37118  -0.36996  -0.36901  -0.36752
 Alpha  occ. eigenvalues --   -0.36426  -0.35993  -0.35428  -0.35061  -0.34842
 Alpha  occ. eigenvalues --   -0.34386  -0.34054  -0.33744  -0.33258  -0.32740
 Alpha  occ. eigenvalues --   -0.32414  -0.32305  -0.31360  -0.29403  -0.29066
 Alpha  occ. eigenvalues --   -0.28349  -0.28171  -0.26930  -0.26567  -0.25703
 Alpha  occ. eigenvalues --   -0.24960  -0.24660  -0.24072  -0.23311  -0.21753
 Alpha  occ. eigenvalues --   -0.18011
 Alpha virt. eigenvalues --   -0.10652  -0.06023  -0.03901  -0.00221   0.01743
 Alpha virt. eigenvalues --    0.01982   0.02166   0.02910   0.03132   0.03524
 Alpha virt. eigenvalues --    0.04131   0.04503   0.04674   0.04978   0.05462

 Mulliken charges:
               1
     1  O   -0.138218
     2  O   -0.082526
     3  O   -0.240140
     4  O   -0.262453
     5  O   -0.188940
     6  O   -0.307998
     7  N   -0.190159
     8  N   -0.099743
     9  N   -0.159822
    10  N   -0.260822
    11  C   -0.079530
    12  C    0.124046
    13  C   -0.132951
    14  C    0.053384
    15  C   -0.048006
    16  C    0.024282
    17  C    0.005520
    18  C   -0.033711
    19  C    0.186013
    20  C   -0.052443
    21  C    0.068433
    22  C    0.103288
    23  C   -0.049673
    24  C    0.030715
    25  C   -0.063622
    26  C    0.156462
    27  C    0.110945
    28  C   -0.000696
    29  C    0.068130
    30  C   -0.061547
    31  C   -0.177014
    32  C   -0.006610
    33  C   -0.126168
    34  C    0.055161
    35  C   -0.066416
    36  C   -0.163131
    37  C    0.063411
    38  C    0.136284
    39  C    0.105339
    40  C    0.004932
    41  C    0.200535
    42  C    0.029260
    43  C   -0.013450
    44  H    0.235587
    45  H   -0.023733
    46  H   -0.021259
    47  H   -0.066069
    48  H    0.017648
    49  H    0.033639
    50  H    0.030030
    51  H   -0.004036
    52  H    0.144233
    53  H    0.003161
    54  H   -0.041731
    55  H    0.014323
    56  H    0.121734
    57  H    0.036266
    58  H    0.040562
    59  H    0.074219
    60  H   -0.045372
    61  H    0.040135
    62  H    0.049516
    63  H    0.054951
    64  H    0.030967
    65  H    0.043791
    66  H    0.046633
    67  H    0.030790
    68  H   -0.062140
    69  H    0.095858
    70  H   -0.024962
    71  H    0.020310
    72  H    0.006546
    73  H    0.042426
    74  H    0.023428
    75  H    0.049458
    76  H    0.019903
    77  H    0.011996
    78  H    0.020501
    79  H    0.046451
    80  H    0.179964
    81  H    0.203927
 Sum of Mulliken charges =  -0.00000

 Dipole moment (field-independent basis, Debye):
    X=              3.5886    Y=              0.3861    Z=              0.4229  Tot=              3.6340
 Quadrupole moment (field-independent basis, Debye-Ang):
   XX=           -254.0660   YY=           -232.9310   ZZ=           -254.7031
   XY=            -18.5995   XZ=             18.0303   YZ=             10.0557

 Normal termination of Gaussian 16 at Fri Jun 28 21:48:18 2019.
