 Gaussian 16, Revision A.03,
 Gaussian 16:  ES64L-G16RevA.03 25-Dec-2016

 --------------------------
 # td=(NStates=1) B3LYP/SVP
 --------------------------

 --
 TD
 --
 Symbolic Z-matrix:
 Charge =  0 Multiplicity = 1

                         Standard orientation:
 ---------------------------------------------------------------------
 Center     Atomic      Atomic             Coordinates (Angstroms)
 Number     Number       Type             X           Y           Z
 ---------------------------------------------------------------------
      1          8           0       -4.484396   -4.697159    1.990163
      2          8           0        3.002360   -4.737855    1.061744
      3          8           0        6.931844   -1.605169    1.899059
      4          8           0        3.679724   -3.038568   -0.096127
      5          8           0        7.564124   -0.526204    0.052894
      6          8           0       -3.003808    2.430673   -0.307488
      7          7           0       -0.192652   -0.557815   -0.622752
      8          7           0        1.519050    1.785777   -0.282622
      9          7           0       -3.425482   -2.955258    0.894069
     10          7           0       -0.793782    2.915530   -0.045412
     11          6           0        0.731550   -2.496313   -1.430721
     12          6           0        0.996363   -1.166527   -0.991785
     13          6           0       -0.752825   -2.697020   -1.406952
     14          6           0       -1.303480   -1.454702   -0.810026
     15          6           0        3.756647    1.419021   -0.260042
     16          6           0        2.469619    0.832823   -0.616957
     17          6           0        2.269558   -0.546118   -0.930564
     18          6           0        3.575502    2.753947    0.023899
     19          6           0        1.685513   -3.504170   -1.982307
     20          6           0       -5.571906   -2.550742    1.491981
     21          6           0       -3.616059   -1.830740    0.220692
     22          6           0        2.095671    2.993294    0.008552
     23          6           0       -5.073062   -1.478702    0.395600
     24          6           0        5.100500    0.761143   -0.325431
     25          6           0       -2.596705   -1.121358   -0.460629
     26          6           0       -1.512397   -3.885053   -1.706783
     27          6           0       -4.521451   -3.592897    1.522959
     28          6           0        2.004689   -4.548326   -1.065175
     29          6           0        5.403336   -0.148924    0.956902
     30          6           0        4.512599    3.743423    0.372624
     31          6           0        1.353676    4.169557    0.332052
     32          6           0       -6.989134   -3.104715    1.157494
     33          6           0       -5.696651   -0.559711   -0.177082
     34          6           0       -0.161799    4.026761    0.341076
     35          6           0       -1.013631    5.171358    0.417524
     36          6           0       -2.278646    4.651133    0.184126
     37          6           0        3.072348   -4.056926   -0.017619
     38          6           0       -5.378120    0.303587   -1.311294
     39          6           0        6.686764   -0.739991    0.880086
     40          6           0       -3.610104    5.358812    0.281686
     41          6           0       -2.089103    3.190899   -0.081639
     42          6           0       -0.477464    6.507553    0.969191
     43          6           0       -4.199226    5.574656   -1.106414
     44          1           0       -0.416730    0.458781   -0.282620
     45          1           0        3.077682   -0.906685   -1.427063
     46          1           0        2.641291   -2.896490   -2.286852
     47          1           0        1.286593   -3.860437   -2.955576
     48          1           0       -5.601402   -2.197737    2.683334
     49          1           0        5.377828    0.251210   -1.238009
     50          1           0        5.901989    1.458701   -0.187674
     51          1           0       -2.872465    0.018166   -0.756622
     52          1           0        0.538426    1.616365   -0.934705
     53          1           0       -1.655159   -4.673448   -0.815090
     54          1           0       -2.506157   -3.763703   -1.980809
     55          1           0       -0.886493   -4.492083   -2.430364
     56          1           0       -2.584009   -3.514905    0.980487
     57          1           0        1.174744   -4.751066   -0.500896
     58          1           0        2.595824   -5.482059   -1.503983
     59          1           0        4.760939   -1.225882    0.912848
     60          1           0        5.282253    0.520401    1.821234
     61          1           0        4.326312    4.643538   -0.240770
     62          1           0        5.613569    3.560373    0.106198
     63          1           0        4.624862    4.086936    1.536986
     64          1           0        1.646186    5.180958    0.611159
     65          1           0       -7.819361   -2.393285    1.419876
     66          1           0       -7.237855   -3.750337    1.928148
     67          1           0       -7.220362   -3.472343    0.140963
     68          1           0       -6.828571   -0.542528    0.170192
     69          1           0       -4.895876    1.280309   -0.830026
     70          1           0       -6.001109    0.521279   -2.164294
     71          1           0       -4.576946   -0.102899   -1.972133
     72          1           0       -3.692269    6.258207    1.119801
     73          1           0       -4.174557    4.297879    0.917179
     74          1           0        0.264747    6.451739    1.860337
     75          1           0       -1.198376    7.263284    1.237135
     76          1           0        0.067535    7.194430    0.292093
     77          1           0       -3.661459    6.492152   -1.719201
     78          1           0       -5.377654    5.652275   -1.077118
     79          1           0       -3.959593    4.597296   -1.711438
     80          1           0        3.585144   -4.480086    1.747508
     81          1           0        7.896319   -2.071886    1.874660
 ---------------------------------------------------------------------

 SCF Done:  E(RB3LYP) =  -1949.04595639     A.U. after   17 cycles

 Excitation energies and oscillator strengths:

 Excited State   1:      Singlet-A      1.6921 eV  732.71 nm  f=0.3262  <S**2>=0.000
     156 ->157         0.71007
     156 <-157        -0.13114
 This state for optimization and/or second-order correction.
 Total Energy, E(TD-HF/TD-DFT) =  -1948.98377150
 Copying the excited state density for this state as the 1-particle RhoCI density.

 The electronic state is 1-A.
 Alpha  occ. eigenvalues --  -19.19772 -19.17275 -19.13373 -19.12572 -19.11197
 Alpha  occ. eigenvalues --  -19.10027 -14.37495 -14.37347 -14.36812 -14.27799
 Alpha  occ. eigenvalues --  -10.32636 -10.30833 -10.29936 -10.25439 -10.25010
 Alpha  occ. eigenvalues --  -10.24619 -10.23445 -10.23155 -10.22995 -10.22697
 Alpha  occ. eigenvalues --  -10.22600 -10.21647 -10.21010 -10.20923 -10.20403
 Alpha  occ. eigenvalues --  -10.20309 -10.20268 -10.20246 -10.20101 -10.20097
 Alpha  occ. eigenvalues --  -10.19991 -10.19986 -10.19923 -10.19875 -10.19720
 Alpha  occ. eigenvalues --  -10.19683 -10.19618 -10.19419 -10.19291 -10.19059
 Alpha  occ. eigenvalues --  -10.18929 -10.18824 -10.18278  -1.14006  -1.07279
 Alpha  occ. eigenvalues --   -1.05447  -1.03116  -1.02072  -0.97914  -0.97103
 Alpha  occ. eigenvalues --   -0.96986  -0.95053  -0.92762  -0.82854  -0.82159
 Alpha  occ. eigenvalues --   -0.81676  -0.80517  -0.78662  -0.78503  -0.77539
 Alpha  occ. eigenvalues --   -0.77467  -0.76262  -0.74718  -0.73483  -0.71788
 Alpha  occ. eigenvalues --   -0.71158  -0.70162  -0.69071  -0.68221  -0.68177
 Alpha  occ. eigenvalues --   -0.67057  -0.66247  -0.65359  -0.62742  -0.62233
 Alpha  occ. eigenvalues --   -0.59674  -0.58418  -0.57564  -0.57166  -0.55984
 Alpha  occ. eigenvalues --   -0.55745  -0.54965  -0.53814  -0.53072  -0.52850
 Alpha  occ. eigenvalues --   -0.52057  -0.51757  -0.51345  -0.50231  -0.49950
 Alpha  occ. eigenvalues --   -0.49614  -0.48779  -0.48195  -0.47976  -0.46861
 Alpha  occ. eigenvalues --   -0.46495  -0.46095  -0.45761  -0.45627  -0.45332
 Alpha  occ. eigenvalues --   -0.44770  -0.44334  -0.44026  -0.43679  -0.43629
 Alpha  occ. eigenvalues --   -0.43438  -0.43116  -0.43002  -0.42404  -0.42190
 Alpha  occ. eigenvalues --   -0.41622  -0.41074  -0.40717  -0.40432  -0.40390
 Alpha  occ. eigenvalues --   -0.39974  -0.39704  -0.39553  -0.39361  -0.39237
 Alpha  occ. eigenvalues --   -0.39181  -0.38788  -0.38239  -0.38021  -0.37881
 Alpha  occ. eigenvalues --   -0.37716  -0.37418  -0.37156  -0.37035  -0.36398
 Alpha  occ. eigenvalues --   -0.36143  -0.35821  -0.35326  -0.34469  -0.34453
 Alpha  occ. eigenvalues --   -0.34228  -0.33576  -0.33086  -0.32942  -0.32376
 Alpha  occ. eigenvalues --   -0.31090  -0.30928  -0.29753  -0.29254  -0.28639
 Alpha  occ. eigenvalues --   -0.27710  -0.27210  -0.26743  -0.26660  -0.25342
 Alpha  occ. eigenvalues --   -0.25272  -0.23949  -0.23583  -0.22592  -0.21098
 Alpha  occ. eigenvalues --   -0.17008
 Alpha virt. eigenvalues --   -0.10359  -0.06086  -0.03779  -0.00995   0.00211
 Alpha virt. eigenvalues --    0.01010   0.01871   0.02277   0.02768   0.03382
 Alpha virt. eigenvalues --    0.04378   0.04675   0.04775   0.05514   0.05712

 Mulliken charges:
               1
     1  O   -0.178024
     2  O   -0.094604
     3  O   -0.265733
     4  O   -0.202396
     5  O   -0.250752
     6  O   -0.202531
     7  N   -0.182671
     8  N   -0.141199
     9  N   -0.090829
    10  N   -0.233256
    11  C   -0.152759
    12  C    0.121814
    13  C   -0.116730
    14  C    0.093250
    15  C   -0.071258
    16  C   -0.002131
    17  C    0.037886
    18  C   -0.051845
    19  C    0.077651
    20  C   -0.112087
    21  C    0.085747
    22  C    0.141428
    23  C    0.067807
    24  C    0.110639
    25  C   -0.187522
    26  C    0.056212
    27  C    0.121336
    28  C    0.071803
    29  C   -0.070292
    30  C    0.001181
    31  C   -0.102106
    32  C    0.079185
    33  C   -0.199687
    34  C   -0.002048
    35  C   -0.047469
    36  C   -0.162993
    37  C    0.045389
    38  C    0.012673
    39  C    0.141064
    40  C   -0.072663
    41  C    0.113945
    42  C    0.052939
    43  C   -0.044609
    44  H    0.178681
    45  H   -0.031337
    46  H    0.021592
    47  H    0.018672
    48  H    0.078631
    49  H    0.017552
    50  H   -0.014113
    51  H    0.074822
    52  H    0.218058
    53  H    0.019084
    54  H    0.008176
    55  H    0.013829
    56  H    0.124464
    57  H    0.006262
    58  H    0.050474
    59  H    0.100342
    60  H    0.050756
    61  H    0.023165
    62  H    0.018971
    63  H    0.044875
    64  H   -0.021148
    65  H    0.004795
    66  H   -0.006469
    67  H    0.032529
    68  H    0.007244
    69  H    0.098864
    70  H    0.013634
    71  H    0.011999
    72  H    0.042315
    73  H    0.041779
    74  H    0.038141
    75  H   -0.006420
    76  H    0.009772
    77  H    0.038090
    78  H    0.036496
    79  H    0.043402
    80  H    0.169482
    81  H    0.228781
 Sum of Mulliken charges =  -0.00000

 Dipole moment (field-independent basis, Debye):
    X=              1.5404    Y=             -0.9860    Z=              0.7754  Tot=              1.9865
 Quadrupole moment (field-independent basis, Debye-Ang):
   XX=           -249.8890   YY=           -236.5527   ZZ=           -250.8105
   XY=            -12.5710   XZ=             15.3725   YZ=              7.7065

 Normal termination of Gaussian 16 at Wed Jul  3 05:39:50 2019.
