 Gaussian 16, Revision A.03,
 Gaussian 16:  ES64L-G16RevA.03 25-Dec-2016

 --------------------------
 # td=(NStates=1) B3LYP/SVP
 --------------------------

 --
 TD
 --
 Symbolic Z-matrix:
 Charge =  0 Multiplicity = 1

                         Standard orientation:
 ---------------------------------------------------------------------
 Center     Atomic      Atomic             Coordinates (Angstroms)
 Number     Number       Type             X           Y           Z
 ---------------------------------------------------------------------
      1          8           0        4.549522   -4.643273   -1.812017
      2          8           0       -2.820468   -4.731477   -1.340812
      3          8           0       -7.000605   -1.720004   -1.720365
      4          8           0       -3.843769   -3.271781    0.104895
      5          8           0       -7.794478   -0.458564    0.007731
      6          8           0        3.047626    2.535864    0.156547
      7          7           0        0.387833   -0.676838    0.574263
      8          7           0       -1.575863    1.733215    0.308520
      9          7           0        3.505254   -3.134426   -0.597340
     10          7           0        0.714746    2.856319   -0.002385
     11          6           0       -0.613839   -2.479429    1.390387
     12          6           0       -0.923041   -1.164506    0.880350
     13          6           0        0.836770   -2.647153    1.384263
     14          6           0        1.362706   -1.414970    0.857436
     15          6           0       -3.822576    1.378627    0.305918
     16          6           0       -2.481944    0.737171    0.492085
     17          6           0       -2.150686   -0.582012    0.747230
     18          6           0       -3.587017    2.683541    0.055239
     19          6           0       -1.538230   -3.539073    1.954194
     20          6           0        5.546329   -2.537821   -1.456035
     21          6           0        3.754638   -1.810099   -0.110161
     22          6           0       -2.166973    2.876849   -0.001508
     23          6           0        5.182960   -1.463114   -0.511519
     24          6           0       -5.189238    0.660311    0.289511
     25          6           0        2.722941   -1.030306    0.391979
     26          6           0        1.580587   -3.808855    1.918889
     27          6           0        4.526934   -3.640112   -1.286688
     28          6           0       -1.961060   -4.602841    0.880035
     29          6           0       -5.476370   -0.199388   -0.815300
     30          6           0       -4.592600    3.812195   -0.331546
     31          6           0       -1.438793    4.079613   -0.388909
     32          6           0        7.034119   -3.039390   -1.273282
     33          6           0        5.934538   -0.436344    0.043341
     34          6           0        0.012312    4.003184   -0.274069
     35          6           0        0.960831    5.151496   -0.616673
     36          6           0        2.200599    4.696444   -0.336822
     37          6           0       -3.089436   -4.165301   -0.115042
     38          6           0        5.507224    0.488480    1.187323
     39          6           0       -6.885766   -0.769560   -0.749616
     40          6           0        3.572628    5.470244   -0.220860
     41          6           0        2.045072    3.289024    0.021935
     42          6           0        0.415444    6.529663   -0.868322
     43          6           0        3.917800    5.733163    1.174444
     44          1           0        0.265313    0.027977   -0.255797
     45          1           0       -3.044108   -1.239778    1.042761
     46          1           0       -2.490487   -3.027974    2.442376
     47          1           0       -1.249279   -3.955409    2.948417
     48          1           0        5.538989   -2.367542   -2.641306
     49          1           0       -5.026037    0.129979    1.148714
     50          1           0       -5.920370    1.479542    0.395983
     51          1           0        3.193437   -0.048790    0.256443
     52          1           0       -0.464851    1.804276    0.551227
     53          1           0        1.344498   -4.742560    1.241977
     54          1           0        2.653356   -3.487755    2.120866
     55          1           0        1.282495   -3.978032    3.168024
     56          1           0        2.302389   -3.390430   -0.579504
     57          1           0       -1.060697   -4.707146    0.427740
     58          1           0       -2.400606   -5.361393    1.472821
     59          1           0       -4.739824   -1.084240   -0.902000
     60          1           0       -5.510449    0.413230   -1.582650
     61          1           0       -4.520735    4.638785    0.548233
     62          1           0       -5.745318    3.565139   -0.354232
     63          1           0       -4.201659    4.358756   -1.268838
     64          1           0       -2.107482    4.979831   -0.567136
     65          1           0        7.688609   -2.163460   -1.245080
     66          1           0        7.295910   -4.052069   -1.861616
     67          1           0        7.373182   -3.282892   -0.259892
     68          1           0        6.964230   -0.220417   -0.345729
     69          1           0        4.744984    1.247441    0.831697
     70          1           0        6.288599    0.904615    1.781501
     71          1           0        4.881254   -0.102667    1.820778
     72          1           0        3.564101    6.352116   -0.982612
     73          1           0        4.327084    4.780848   -0.699943
     74          1           0       -0.477607    6.607124   -1.734093
     75          1           0        1.141842    7.227716   -1.224725
     76          1           0        0.023772    7.062498    0.000029
     77          1           0        3.307909    6.509698    1.615256
     78          1           0        5.002281    6.035242    1.219045
     79          1           0        3.973251    4.931522    2.102330
     80          1           0       -3.621326   -4.614941   -1.842870
     81          1           0       -8.084235   -1.921223   -1.646672
 ---------------------------------------------------------------------

 SCF Done:  E(RB3LYP) =  -1949.05406289     A.U. after   16 cycles

 Excitation energies and oscillator strengths:

 Excited State   1:      Singlet-A      2.0115 eV  616.38 nm  f=0.4052  <S**2>=0.000
     156 ->157         0.70627
     156 <-157        -0.10979
 This state for optimization and/or second-order correction.
 Total Energy, E(TD-HF/TD-DFT) =  -1948.98014248
 Copying the excited state density for this state as the 1-particle RhoCI density.

 The electronic state is 1-A.
 Alpha  occ. eigenvalues --  -19.19934 -19.19317 -19.15811 -19.13428 -19.09786
 Alpha  occ. eigenvalues --  -19.09410 -14.38699 -14.36581 -14.35738 -14.29585
 Alpha  occ. eigenvalues --  -10.34279 -10.32275 -10.27367 -10.26050 -10.24765
 Alpha  occ. eigenvalues --  -10.24456 -10.23541 -10.23506 -10.23295 -10.23187
 Alpha  occ. eigenvalues --  -10.22326 -10.22214 -10.21728 -10.21677 -10.21078
 Alpha  occ. eigenvalues --  -10.21051 -10.20909 -10.20885 -10.20794 -10.20485
 Alpha  occ. eigenvalues --  -10.20170 -10.20106 -10.20055 -10.20012 -10.19837
 Alpha  occ. eigenvalues --  -10.19766 -10.19602 -10.19072 -10.19005 -10.18982
 Alpha  occ. eigenvalues --  -10.18721 -10.18663 -10.17324  -1.11569  -1.08590
 Alpha  occ. eigenvalues --   -1.07107  -1.04005  -1.00571  -0.99816  -0.99105
 Alpha  occ. eigenvalues --   -0.98625  -0.94456  -0.90731  -0.83146  -0.82438
 Alpha  occ. eigenvalues --   -0.81239  -0.80487  -0.79307  -0.78447  -0.77862
 Alpha  occ. eigenvalues --   -0.77273  -0.75924  -0.74946  -0.73755  -0.71759
 Alpha  occ. eigenvalues --   -0.70200  -0.68893  -0.68815  -0.67698  -0.67602
 Alpha  occ. eigenvalues --   -0.67063  -0.64896  -0.64102  -0.61574  -0.61272
 Alpha  occ. eigenvalues --   -0.60397  -0.59102  -0.58096  -0.57289  -0.56183
 Alpha  occ. eigenvalues --   -0.55705  -0.55310  -0.54703  -0.53569  -0.52508
 Alpha  occ. eigenvalues --   -0.52285  -0.52119  -0.51344  -0.50773  -0.50187
 Alpha  occ. eigenvalues --   -0.49472  -0.49276  -0.48943  -0.48492  -0.47717
 Alpha  occ. eigenvalues --   -0.46806  -0.46318  -0.45981  -0.45794  -0.44939
 Alpha  occ. eigenvalues --   -0.44777  -0.44389  -0.43899  -0.43779  -0.43532
 Alpha  occ. eigenvalues --   -0.43259  -0.42998  -0.42530  -0.42472  -0.41783
 Alpha  occ. eigenvalues --   -0.41543  -0.41383  -0.41161  -0.40942  -0.40419
 Alpha  occ. eigenvalues --   -0.40341  -0.40197  -0.39960  -0.39548  -0.39458
 Alpha  occ. eigenvalues --   -0.39076  -0.38895  -0.38726  -0.38524  -0.38372
 Alpha  occ. eigenvalues --   -0.37343  -0.37153  -0.37102  -0.36906  -0.36776
 Alpha  occ. eigenvalues --   -0.36089  -0.35943  -0.35476  -0.34903  -0.34777
 Alpha  occ. eigenvalues --   -0.34743  -0.33799  -0.33118  -0.32760  -0.32581
 Alpha  occ. eigenvalues --   -0.32306  -0.31889  -0.31149  -0.30445  -0.30281
 Alpha  occ. eigenvalues --   -0.28604  -0.27671  -0.26283  -0.25805  -0.25740
 Alpha  occ. eigenvalues --   -0.24876  -0.24406  -0.23921  -0.23504  -0.21611
 Alpha  occ. eigenvalues --   -0.18006
 Alpha virt. eigenvalues --   -0.10053  -0.05848  -0.04082  -0.02658  -0.00240
 Alpha virt. eigenvalues --    0.00039   0.01273   0.01773   0.02158   0.03364
 Alpha virt. eigenvalues --    0.03820   0.04242   0.04723   0.04950   0.05145

 Mulliken charges:
               1
     1  O   -0.122598
     2  O   -0.179444
     3  O   -0.251833
     4  O   -0.181102
     5  O   -0.236663
     6  O   -0.252777
     7  N   -0.026655
     8  N   -0.101821
     9  N   -0.194204
    10  N   -0.320647
    11  C   -0.068255
    12  C    0.049221
    13  C   -0.203978
    14  C    0.080892
    15  C   -0.135907
    16  C    0.036965
    17  C   -0.102659
    18  C   -0.099961
    19  C   -0.005565
    20  C   -0.120086
    21  C   -0.005612
    22  C    0.013216
    23  C    0.045454
    24  C    0.166961
    25  C   -0.074767
    26  C   -0.006382
    27  C    0.082679
    28  C    0.125953
    29  C    0.097592
    30  C   -0.008439
    31  C   -0.097094
    32  C    0.010625
    33  C   -0.148941
    34  C    0.082638
    35  C   -0.070662
    36  C   -0.165220
    37  C    0.120995
    38  C    0.041662
    39  C    0.134444
    40  C    0.097903
    41  C    0.166614
    42  C    0.049782
    43  C   -0.028252
    44  H    0.184677
    45  H    0.039240
    46  H    0.011039
    47  H    0.014873
    48  H    0.070824
    49  H   -0.017085
    50  H    0.007183
    51  H    0.007755
    52  H    0.201670
    53  H    0.061823
    54  H    0.049639
    55  H    0.038022
    56  H    0.203666
    57  H    0.005303
    58  H    0.026987
    59  H    0.065070
    60  H   -0.021046
    61  H    0.038866
    62  H    0.045892
    63  H    0.049357
    64  H    0.000612
    65  H    0.002096
    66  H    0.058993
    67  H   -0.013881
    68  H    0.011620
    69  H    0.095999
    70  H    0.007746
    71  H    0.009348
    72  H    0.018024
    73  H    0.014146
    74  H    0.032769
    75  H   -0.003595
    76  H    0.030744
    77  H    0.005927
    78  H    0.012328
    79  H    0.042637
    80  H    0.171836
    81  H    0.224825
 Sum of Mulliken charges =  -0.00000

 Dipole moment (field-independent basis, Debye):
    X=             -3.5090    Y=              0.2947    Z=             -0.1714  Tot=              3.5255
 Quadrupole moment (field-independent basis, Debye-Ang):
   XX=           -252.9249   YY=           -238.9290   ZZ=           -253.7428
   XY=             21.6888   XZ=             19.1255   YZ=             -9.7968

 Normal termination of Gaussian 16 at Mon Jul  1 12:30:31 2019.
