 Gaussian 16, Revision A.03,
 Gaussian 16:  ES64L-G16RevA.03 25-Dec-2016

 --------------------------
 # td=(NStates=1) B3LYP/SVP
 --------------------------

 --
 TD
 --
 Symbolic Z-matrix:
 Charge =  0 Multiplicity = 1

                         Standard orientation:
 ---------------------------------------------------------------------
 Center     Atomic      Atomic             Coordinates (Angstroms)
 Number     Number       Type             X           Y           Z
 ---------------------------------------------------------------------
      1          8           0        4.623023   -4.753099   -1.705060
      2          8           0       -2.963438   -4.819362   -1.246580
      3          8           0       -6.946594   -1.613691   -1.794078
      4          8           0       -3.760223   -3.055655   -0.117531
      5          8           0       -7.448507   -0.833402    0.226546
      6          8           0        2.931377    2.439319    0.161544
      7          7           0        0.193775   -0.572200    0.501213
      8          7           0       -1.568883    1.840301    0.222775
      9          7           0        3.492711   -3.023167   -0.648492
     10          7           0        0.708838    3.013483    0.100315
     11          6           0       -0.644054   -2.422947    1.207048
     12          6           0       -1.015698   -1.093790    0.816018
     13          6           0        0.780692   -2.591926    1.063032
     14          6           0        1.249558   -1.389744    0.607219
     15          6           0       -3.790810    1.366526    0.456587
     16          6           0       -2.445073    0.830154    0.600789
     17          6           0       -2.266154   -0.502544    0.885461
     18          6           0       -3.632188    2.735497    0.042022
     19          6           0       -1.552171   -3.475647    1.827131
     20          6           0        5.662320   -2.658433   -1.299491
     21          6           0        3.714294   -1.822672   -0.139341
     22          6           0       -2.202782    3.027545   -0.024520
     23          6           0        5.159433   -1.627469   -0.310159
     24          6           0       -5.081791    0.597046    0.484480
     25          6           0        2.663144   -1.030515    0.348488
     26          6           0        1.489455   -3.743763    1.622018
     27          6           0        4.534329   -3.643326   -1.294856
     28          6           0       -2.137632   -4.585204    0.976746
     29          6           0       -5.388800   -0.170016   -0.830752
     30          6           0       -4.682780    3.772214   -0.317128
     31          6           0       -1.428211    4.107072   -0.337517
     32          6           0        7.102475   -3.122877   -0.948487
     33          6           0        5.884562   -0.573746    0.322330
     34          6           0       -0.040334    4.113894   -0.231345
     35          6           0        0.947660    5.173598   -0.511606
     36          6           0        2.203366    4.660982   -0.313246
     37          6           0       -3.066810   -4.111673   -0.155083
     38          6           0        5.475355    0.480978    1.275261
     39          6           0       -6.698003   -0.942356   -0.738775
     40          6           0        3.595473    5.412444   -0.468923
     41          6           0        1.962345    3.262068    0.080541
     42          6           0        0.465941    6.583850   -0.785130
     43          6           0        4.271746    5.585735    0.856631
     44          1           0        0.211298    0.390082   -0.025767
     45          1           0       -3.325793   -1.128278    1.044661
     46          1           0       -2.423390   -2.826284    2.456909
     47          1           0       -1.071372   -3.889936    2.651640
     48          1           0        5.709368   -2.284556   -2.446943
     49          1           0       -5.119449   -0.114903    1.114950
     50          1           0       -5.993200    1.354867    0.655612
     51          1           0        2.766821    0.034945    0.409627
     52          1           0       -0.435437    2.052378    0.447796
     53          1           0        1.336548   -4.789658    1.089765
     54          1           0        2.598343   -3.633302    1.845200
     55          1           0        1.194172   -3.996597    2.705130
     56          1           0        2.552614   -3.463185   -0.861810
     57          1           0       -1.335851   -5.049169    0.387695
     58          1           0       -2.848110   -5.270038    1.520421
     59          1           0       -4.476658   -0.823417   -1.341177
     60          1           0       -5.636443    0.819284   -1.622492
     61          1           0       -4.656016    4.588298    0.511733
     62          1           0       -5.652338    3.333467   -0.027425
     63          1           0       -4.701992    4.228977   -1.304875
     64          1           0       -1.975361    5.089358   -0.472880
     65          1           0        7.804017   -2.462204   -0.961278
     66          1           0        7.360949   -3.821398   -1.647149
     67          1           0        7.204970   -3.642402    0.099868
     68          1           0        7.028453   -0.377233   -0.037124
     69          1           0        4.925802    1.243451    0.603759
     70          1           0        6.111275    0.649383    2.007913
     71          1           0        4.553039    0.034191    1.739973
     72          1           0        3.386793    6.401436   -1.049686
     73          1           0        4.226115    4.568255   -0.953629
     74          1           0       -0.094520    6.579550   -1.772175
     75          1           0        1.215444    7.418744   -1.284915
     76          1           0       -0.119521    7.060151    0.023568
     77          1           0        3.813024    6.329339    1.665123
     78          1           0        5.118874    6.134825    0.682414
     79          1           0        4.513744    4.704791    1.439474
     80          1           0       -3.607412   -4.327271   -1.728172
     81          1           0       -7.962139   -2.043484   -1.587795
 ---------------------------------------------------------------------

 SCF Done:  E(RB3LYP) =  -1949.06676234     A.U. after   19 cycles

 Excitation energies and oscillator strengths:

 Excited State   1:      Singlet-A      1.8655 eV  664.63 nm  f=0.3856  <S**2>=0.000
     156 ->157         0.70772
     156 <-157        -0.11724
 This state for optimization and/or second-order correction.
 Total Energy, E(TD-HF/TD-DFT) =  -1948.99820771
 Copying the excited state density for this state as the 1-particle RhoCI density.

 The electronic state is 1-A.
 Alpha  occ. eigenvalues --  -19.21419 -19.20461 -19.14145 -19.11855 -19.11522
 Alpha  occ. eigenvalues --  -19.08422 -14.38048 -14.37585 -14.34521 -14.28850
 Alpha  occ. eigenvalues --  -10.33996 -10.31787 -10.29056 -10.24965 -10.24852
 Alpha  occ. eigenvalues --  -10.23581 -10.23245 -10.22963 -10.22764 -10.22740
 Alpha  occ. eigenvalues --  -10.22730 -10.22680 -10.22257 -10.21876 -10.21424
 Alpha  occ. eigenvalues --  -10.21421 -10.20788 -10.20682 -10.20663 -10.20314
 Alpha  occ. eigenvalues --  -10.20275 -10.20152 -10.20044 -10.19997 -10.19692
 Alpha  occ. eigenvalues --  -10.19286 -10.19194 -10.18898 -10.18729 -10.18188
 Alpha  occ. eigenvalues --  -10.17438 -10.17437 -10.16900  -1.14581  -1.11396
 Alpha  occ. eigenvalues --   -1.05567  -1.00511  -0.99823  -0.99608  -0.99122
 Alpha  occ. eigenvalues --   -0.98000  -0.96273  -0.92036  -0.82405  -0.81898
 Alpha  occ. eigenvalues --   -0.80957  -0.80674  -0.78932  -0.78307  -0.77728
 Alpha  occ. eigenvalues --   -0.77037  -0.76276  -0.75026  -0.74213  -0.72536
 Alpha  occ. eigenvalues --   -0.70546  -0.70335  -0.68823  -0.68712  -0.68227
 Alpha  occ. eigenvalues --   -0.66686  -0.66081  -0.64435  -0.62976  -0.61320
 Alpha  occ. eigenvalues --   -0.60622  -0.59565  -0.58279  -0.58056  -0.56400
 Alpha  occ. eigenvalues --   -0.55970  -0.54995  -0.54744  -0.52822  -0.52758
 Alpha  occ. eigenvalues --   -0.52401  -0.51982  -0.51262  -0.50469  -0.49689
 Alpha  occ. eigenvalues --   -0.49563  -0.48979  -0.48731  -0.48427  -0.47996
 Alpha  occ. eigenvalues --   -0.46990  -0.46844  -0.46410  -0.45481  -0.45080
 Alpha  occ. eigenvalues --   -0.44686  -0.44453  -0.44332  -0.43928  -0.43727
 Alpha  occ. eigenvalues --   -0.43538  -0.43261  -0.43008  -0.42570  -0.42377
 Alpha  occ. eigenvalues --   -0.41961  -0.41594  -0.41376  -0.41161  -0.40926
 Alpha  occ. eigenvalues --   -0.40849  -0.40398  -0.40107  -0.39846  -0.39562
 Alpha  occ. eigenvalues --   -0.39218  -0.38908  -0.38665  -0.38256  -0.37901
 Alpha  occ. eigenvalues --   -0.37770  -0.37082  -0.37022  -0.36437  -0.36089
 Alpha  occ. eigenvalues --   -0.35699  -0.35428  -0.35091  -0.34949  -0.34845
 Alpha  occ. eigenvalues --   -0.33924  -0.33488  -0.33304  -0.33081  -0.32614
 Alpha  occ. eigenvalues --   -0.32026  -0.31960  -0.30718  -0.29804  -0.29335
 Alpha  occ. eigenvalues --   -0.27819  -0.26899  -0.26660  -0.25921  -0.24878
 Alpha  occ. eigenvalues --   -0.24510  -0.24232  -0.23447  -0.22761  -0.21590
 Alpha  occ. eigenvalues --   -0.17928
 Alpha virt. eigenvalues --   -0.10605  -0.05864  -0.04175  -0.02080  -0.00783
 Alpha virt. eigenvalues --   -0.00148   0.00181   0.02534   0.03395   0.04059
 Alpha virt. eigenvalues --    0.04461   0.04593   0.05194   0.05323   0.05863

 Mulliken charges:
               1
     1  O   -0.170064
     2  O   -0.090523
     3  O   -0.178349
     4  O   -0.295667
     5  O   -0.268014
     6  O   -0.293903
     7  N   -0.051921
     8  N   -0.213745
     9  N   -0.088242
    10  N   -0.223001
    11  C   -0.130963
    12  C    0.076250
    13  C   -0.115939
    14  C    0.015873
    15  C   -0.098602
    16  C    0.121988
    17  C   -0.157852
    18  C   -0.141083
    19  C    0.089045
    20  C   -0.102722
    21  C    0.117656
    22  C    0.095354
    23  C   -0.031765
    24  C    0.186589
    25  C   -0.084597
    26  C   -0.015345
    27  C    0.088592
    28  C    0.070094
    29  C   -0.152739
    30  C    0.094460
    31  C   -0.112148
    32  C    0.158693
    33  C   -0.213361
    34  C    0.076234
    35  C   -0.073619
    36  C   -0.158422
    37  C    0.093028
    38  C    0.125333
    39  C    0.154129
    40  C    0.082919
    41  C    0.102605
    42  C    0.012065
    43  C    0.009969
    44  H    0.173592
    45  H    0.104420
    46  H    0.025671
    47  H   -0.021079
    48  H    0.064964
    49  H   -0.057551
    50  H    0.043815
    51  H   -0.007602
    52  H    0.210708
    53  H    0.031608
    54  H    0.035588
    55  H    0.025930
    56  H    0.151603
    57  H    0.032969
    58  H    0.054485
    59  H    0.084094
    60  H    0.056581
    61  H    0.024417
    62  H   -0.009445
    63  H    0.040340
    64  H   -0.004937
    65  H   -0.038648
    66  H   -0.012325
    67  H    0.017469
    68  H    0.023593
    69  H    0.102984
    70  H   -0.010206
    71  H    0.010045
    72  H    0.022998
    73  H    0.030589
    74  H    0.017408
    75  H    0.017287
    76  H    0.046622
    77  H   -0.001451
    78  H   -0.019767
    79  H    0.030226
    80  H    0.156660
    81  H    0.238062
 Sum of Mulliken charges =  -0.00000

 Dipole moment (field-independent basis, Debye):
    X=             -3.0040    Y=             -0.9081    Z=             -1.0379  Tot=              3.3055
 Quadrupole moment (field-independent basis, Debye-Ang):
   XX=           -244.7411   YY=           -241.0146   ZZ=           -252.9197
   XY=             16.3969   XZ=             16.8197   YZ=             -9.6427

 Normal termination of Gaussian 16 at Fri Jun 28 09:17:11 2019.
