 Gaussian 16, Revision A.03,
 Gaussian 16:  ES64L-G16RevA.03 25-Dec-2016

 --------------------------
 # td=(NStates=1) B3LYP/SVP
 --------------------------

 --
 TD
 --
 Symbolic Z-matrix:
 Charge =  0 Multiplicity = 1

                         Standard orientation:
 ---------------------------------------------------------------------
 Center     Atomic      Atomic             Coordinates (Angstroms)
 Number     Number       Type             X           Y           Z
 ---------------------------------------------------------------------
      1          8           0        4.646294   -4.884112   -1.637439
      2          8           0       -2.938275   -4.679480   -1.609289
      3          8           0       -7.176802   -1.502885   -1.690971
      4          8           0       -3.693124   -2.903831   -0.365090
      5          8           0       -7.577889   -0.653617    0.266394
      6          8           0        3.019112    2.455351    0.115913
      7          7           0        0.233271   -0.691688    0.546517
      8          7           0       -1.555827    1.843077    0.429472
      9          7           0        3.518644   -3.257460   -0.522031
     10          7           0        0.849372    2.921223    0.029974
     11          6           0       -0.786305   -2.428213    1.331232
     12          6           0       -0.994642   -1.207724    0.824483
     13          6           0        0.651926   -2.734288    1.296584
     14          6           0        1.270065   -1.594498    0.812093
     15          6           0       -3.725431    1.467530    0.286078
     16          6           0       -2.425971    0.898737    0.607378
     17          6           0       -2.226975   -0.451479    0.808109
     18          6           0       -3.539631    2.765935   -0.000389
     19          6           0       -1.825232   -3.379248    1.858495
     20          6           0        5.740186   -2.562866   -1.318659
     21          6           0        3.707259   -1.948667   -0.079821
     22          6           0       -2.122195    3.028943    0.036518
     23          6           0        5.107457   -1.577375   -0.249139
     24          6           0       -5.164098    0.778082    0.435788
     25          6           0        2.661479   -1.190558    0.519798
     26          6           0        1.359307   -3.910183    1.867047
     27          6           0        4.568051   -3.686127   -1.241204
     28          6           0       -2.250798   -4.597873    0.690521
     29          6           0       -5.471492   -0.187304   -0.749805
     30          6           0       -4.565746    3.862809   -0.255643
     31          6           0       -1.301252    4.118537   -0.180226
     32          6           0        6.990785   -2.984963   -1.191859
     33          6           0        5.856188   -0.631607    0.383117
     34          6           0        0.153132    4.017353   -0.229888
     35          6           0        1.079307    5.183399   -0.487185
     36          6           0        2.287920    4.695333   -0.374585
     37          6           0       -3.018431   -3.979859   -0.415114
     38          6           0        5.215769    0.318561    1.325602
     39          6           0       -6.849670   -0.809697   -0.632968
     40          6           0        3.536216    5.399101   -0.491681
     41          6           0        2.111621    3.278111   -0.041618
     42          6           0        0.635229    6.645269   -0.884547
     43          6           0        4.337323    5.660935    0.778302
     44          1           0        0.376382    0.234465   -0.021592
     45          1           0       -3.171796   -0.916300    0.975179
     46          1           0       -2.861373   -2.967770    2.061767
     47          1           0       -1.318319   -4.143776    2.723237
     48          1           0        5.613812   -1.980142   -2.356438
     49          1           0       -5.226114    0.157664    1.362754
     50          1           0       -5.959906    1.506505    0.443707
     51          1           0        2.931379   -0.035317    0.771104
     52          1           0       -0.521936    1.884277    0.530806
     53          1           0        1.531913   -4.662269    1.113880
     54          1           0        2.394279   -3.684941    2.401963
     55          1           0        0.739502   -4.524761    2.514090
     56          1           0        2.654826   -3.819757   -0.393200
     57          1           0       -1.222875   -4.888832    0.239896
     58          1           0       -2.737793   -5.426881    1.305915
     59          1           0       -4.753728   -0.943049   -0.715098
     60          1           0       -5.231945    0.500889   -1.708331
     61          1           0       -4.417598    4.533107    0.562980
     62          1           0       -5.611690    3.343318   -0.118050
     63          1           0       -4.343746    4.323273   -1.307652
     64          1           0       -1.766324    4.997932   -0.598334
     65          1           0        7.910595   -2.257273   -1.468091
     66          1           0        7.305287   -3.718706   -1.873204
     67          1           0        7.118212   -3.521317   -0.282405
     68          1           0        6.846666   -0.373860   -0.062779
     69          1           0        4.678310    1.058094    1.011602
     70          1           0        5.934822    1.082301    1.924153
     71          1           0        4.715191   -0.178104    2.280451
     72          1           0        3.467623    6.318272   -1.114655
     73          1           0        4.133822    4.700635   -1.298542
     74          1           0        0.185312    6.732937   -1.915141
     75          1           0        1.610764    7.430262   -0.524739
     76          1           0       -0.225393    6.819075   -0.242644
     77          1           0        3.557831    6.143634    1.368463
     78          1           0        5.341477    6.039490    0.725634
     79          1           0        4.235625    4.609882    1.222046
     80          1           0       -3.450223   -4.446720   -2.216129
     81          1           0       -8.023732   -1.820351   -1.567159
 ---------------------------------------------------------------------

 SCF Done:  E(RB3LYP) =  -1949.06545803     A.U. after   16 cycles

 Excitation energies and oscillator strengths:

 Excited State   1:      Singlet-A      1.9354 eV  640.62 nm  f=0.3269  <S**2>=0.000
     155 ->157        -0.12443
     156 ->157         0.69933
 This state for optimization and/or second-order correction.
 Total Energy, E(TD-HF/TD-DFT) =  -1948.99433436
 Copying the excited state density for this state as the 1-particle RhoCI density.

 The electronic state is 1-A.
 Alpha  occ. eigenvalues --  -19.18234 -19.17996 -19.14597 -19.12414 -19.09845
 Alpha  occ. eigenvalues --  -19.09819 -14.37644 -14.37425 -14.36218 -14.29557
 Alpha  occ. eigenvalues --  -10.34932 -10.31501 -10.28876 -10.25930 -10.24789
 Alpha  occ. eigenvalues --  -10.24306 -10.24274 -10.23560 -10.23553 -10.23333
 Alpha  occ. eigenvalues --  -10.23321 -10.22544 -10.22056 -10.21273 -10.21158
 Alpha  occ. eigenvalues --  -10.21107 -10.20866 -10.20782 -10.20395 -10.20358
 Alpha  occ. eigenvalues --  -10.20169 -10.20168 -10.20072 -10.20018 -10.19904
 Alpha  occ. eigenvalues --  -10.19574 -10.19550 -10.19503 -10.19380 -10.18095
 Alpha  occ. eigenvalues --  -10.18091 -10.17415 -10.17373  -1.12889  -1.11001
 Alpha  occ. eigenvalues --   -1.02854  -1.01917  -1.01501  -1.00724  -1.00652
 Alpha  occ. eigenvalues --   -0.97828  -0.94157  -0.93940  -0.82468  -0.82272
 Alpha  occ. eigenvalues --   -0.81840  -0.81206  -0.80732  -0.79008  -0.77654
 Alpha  occ. eigenvalues --   -0.77461  -0.77062  -0.75184  -0.74186  -0.72795
 Alpha  occ. eigenvalues --   -0.71233  -0.70111  -0.69576  -0.68792  -0.68406
 Alpha  occ. eigenvalues --   -0.68176  -0.65867  -0.64165  -0.62789  -0.62515
 Alpha  occ. eigenvalues --   -0.62090  -0.60770  -0.59704  -0.57774  -0.56724
 Alpha  occ. eigenvalues --   -0.56455  -0.55672  -0.54662  -0.53922  -0.53787
 Alpha  occ. eigenvalues --   -0.53153  -0.51822  -0.51318  -0.50577  -0.49623
 Alpha  occ. eigenvalues --   -0.49055  -0.48647  -0.48550  -0.48450  -0.48006
 Alpha  occ. eigenvalues --   -0.47715  -0.47392  -0.46286  -0.46193  -0.45362
 Alpha  occ. eigenvalues --   -0.45186  -0.45148  -0.44046  -0.43930  -0.43729
 Alpha  occ. eigenvalues --   -0.43176  -0.43109  -0.42943  -0.42676  -0.42374
 Alpha  occ. eigenvalues --   -0.41990  -0.41848  -0.41622  -0.41346  -0.41009
 Alpha  occ. eigenvalues --   -0.40647  -0.40532  -0.40275  -0.39972  -0.39818
 Alpha  occ. eigenvalues --   -0.39095  -0.38952  -0.38714  -0.38640  -0.37903
 Alpha  occ. eigenvalues --   -0.37759  -0.37553  -0.37104  -0.36831  -0.36623
 Alpha  occ. eigenvalues --   -0.35779  -0.35662  -0.35156  -0.34892  -0.34855
 Alpha  occ. eigenvalues --   -0.34665  -0.33585  -0.33425  -0.33307  -0.33253
 Alpha  occ. eigenvalues --   -0.31575  -0.31197  -0.31030  -0.29851  -0.29533
 Alpha  occ. eigenvalues --   -0.28627  -0.28407  -0.26584  -0.26276  -0.25801
 Alpha  occ. eigenvalues --   -0.24670  -0.24618  -0.24222  -0.24117  -0.21611
 Alpha  occ. eigenvalues --   -0.18455
 Alpha virt. eigenvalues --   -0.10710  -0.05792  -0.04331  -0.03967  -0.00315
 Alpha virt. eigenvalues --    0.01340   0.02208   0.02962   0.03186   0.03944
 Alpha virt. eigenvalues --    0.04286   0.04986   0.05810   0.06290   0.06483

 Mulliken charges:
               1
     1  O   -0.268960
     2  O   -0.115147
     3  O   -0.106094
     4  O   -0.263405
     5  O   -0.192432
     6  O   -0.210235
     7  N   -0.124930
     8  N   -0.016659
     9  N   -0.059701
    10  N   -0.188914
    11  C   -0.077390
    12  C    0.100097
    13  C   -0.162296
    14  C    0.081069
    15  C   -0.097173
    16  C    0.013306
    17  C   -0.021532
    18  C   -0.133325
    19  C   -0.002873
    20  C   -0.055395
    21  C    0.067737
    22  C    0.066395
    23  C   -0.047062
    24  C    0.089378
    25  C   -0.143687
    26  C    0.082668
    27  C    0.104363
    28  C   -0.061728
    29  C   -0.050983
    30  C    0.087093
    31  C   -0.104890
    32  C    0.090018
    33  C   -0.065365
    34  C    0.034566
    35  C   -0.095093
    36  C   -0.158246
    37  C    0.191621
    38  C    0.038777
    39  C    0.104225
    40  C   -0.012753
    41  C    0.086661
    42  C    0.039999
    43  C    0.059269
    44  H    0.169160
    45  H   -0.025245
    46  H    0.044348
    47  H    0.040043
    48  H    0.050194
    49  H    0.026561
    50  H    0.002286
    51  H    0.082896
    52  H    0.133001
    53  H    0.000488
    54  H    0.061795
    55  H   -0.016156
    56  H    0.143818
    57  H    0.059830
    58  H    0.081227
    59  H    0.029903
    60  H    0.049897
    61  H    0.028266
    62  H    0.031135
    63  H    0.051391
    64  H   -0.031852
    65  H    0.023122
    66  H   -0.002995
    67  H   -0.004775
    68  H    0.009304
    69  H    0.002393
    70  H   -0.010547
    71  H    0.039325
    72  H   -0.006422
    73  H    0.017473
    74  H    0.044956
    75  H    0.062243
    76  H    0.018751
    77  H   -0.005294
    78  H    0.033705
    79  H    0.021012
    80  H    0.103923
    81  H    0.139868
 Sum of Mulliken charges =  -0.00000

 Dipole moment (field-independent basis, Debye):
    X=             -4.0242    Y=              1.4822    Z=             -0.7213  Tot=              4.3487
 Quadrupole moment (field-independent basis, Debye-Ang):
   XX=           -253.9126   YY=           -240.1521   ZZ=           -254.6976
   XY=             20.9808   XZ=             13.7041   YZ=            -13.2561

 Normal termination of Gaussian 16 at Wed Jul  3 07:18:10 2019.
