 Gaussian 16, Revision A.03,
 Gaussian 16:  ES64L-G16RevA.03 25-Dec-2016

 --------------------------
 # td=(NStates=1) B3LYP/SVP
 --------------------------

 --
 TD
 --
 Symbolic Z-matrix:
 Charge =  0 Multiplicity = 1

                         Standard orientation:
 ---------------------------------------------------------------------
 Center     Atomic      Atomic             Coordinates (Angstroms)
 Number     Number       Type             X           Y           Z
 ---------------------------------------------------------------------
      1          8           0       -4.400605   -4.749957    1.810777
      2          8           0        2.701235   -4.631050    1.443963
      3          8           0        7.007835   -1.530443    1.793285
      4          8           0        3.561032   -2.990576    0.241746
      5          8           0        7.547524   -0.836301   -0.249709
      6          8           0       -3.016429    2.406345   -0.293663
      7          7           0       -0.238232   -0.583506   -0.633908
      8          7           0        1.561323    1.789055   -0.423107
      9          7           0       -3.355270   -3.133065    0.634510
     10          7           0       -0.805100    2.945690   -0.110331
     11          6           0        0.660949   -2.455007   -1.319442
     12          6           0        0.969354   -1.118389   -1.044595
     13          6           0       -0.772139   -2.629954   -1.255657
     14          6           0       -1.252890   -1.432525   -0.807199
     15          6           0        3.796106    1.463519   -0.282471
     16          6           0        2.509843    0.758939   -0.538650
     17          6           0        2.178576   -0.516438   -0.851083
     18          6           0        3.569944    2.749857    0.140168
     19          6           0        1.606275   -3.431587   -1.819038
     20          6           0       -5.500793   -2.530120    1.290846
     21          6           0       -3.561242   -1.808190    0.205150
     22          6           0        2.121403    2.893682    0.013193
     23          6           0       -5.009300   -1.554587    0.284714
     24          6           0        5.161361    0.685048   -0.486616
     25          6           0       -2.594520   -1.077379   -0.533241
     26          6           0       -1.488715   -3.813866   -1.772172
     27          6           0       -4.460701   -3.584716    1.327862
     28          6           0        2.074743   -4.603767   -0.890591
     29          6           0        5.424157   -0.171867    0.724280
     30          6           0        4.529543    3.869080    0.342825
     31          6           0        1.342583    4.092588    0.266838
     32          6           0       -6.887578   -3.092081    1.237175
     33          6           0       -5.806012   -0.668526   -0.271985
     34          6           0       -0.067694    4.080956    0.235134
     35          6           0       -1.000932    5.225741    0.574289
     36          6           0       -2.253732    4.655373    0.400861
     37          6           0        2.875243   -3.946969    0.314182
     38          6           0       -5.376861    0.445345   -1.298675
     39          6           0        6.794547   -0.857143    0.685325
     40          6           0       -3.613161    5.257700    0.428626
     41          6           0       -2.110627    3.211442   -0.044419
     42          6           0       -0.531626    6.552903    0.960304
     43          6           0       -4.121942    5.697341   -0.919254
     44          1           0       -0.351098    0.091387   -0.120640
     45          1           0        2.907325   -1.255437   -1.007015
     46          1           0        2.640859   -2.944770   -2.237541
     47          1           0        1.093897   -3.988169   -2.628235
     48          1           0       -5.488789   -1.994673    2.379901
     49          1           0        5.172458    0.150812   -1.491273
     50          1           0        6.011355    1.331215   -0.833494
     51          1           0       -2.972521   -0.106398   -0.833649
     52          1           0        0.546397    1.865911   -0.394779
     53          1           0       -1.558646   -4.601278   -0.988482
     54          1           0       -2.465985   -3.595376   -2.087242
     55          1           0       -0.864172   -4.560577   -2.423789
     56          1           0       -2.418901   -3.499481    0.338991
     57          1           0        1.163093   -5.028115   -0.443098
     58          1           0        2.895084   -5.144482   -1.351539
     59          1           0        4.737663   -1.037578    0.805827
     60          1           0        5.223033    0.491685    1.624147
     61          1           0        4.317863    4.782793   -0.479471
     62          1           0        5.589580    3.406748    0.119207
     63          1           0        4.494882    4.378417    1.254794
     64          1           0        1.774990    5.051334    0.579412
     65          1           0       -7.716844   -2.364106    1.568223
     66          1           0       -7.101185   -3.954030    1.883416
     67          1           0       -7.031825   -3.338593    0.230127
     68          1           0       -6.947328   -0.856168   -0.253644
     69          1           0       -4.749549    1.154858   -0.922372
     70          1           0       -6.327130    0.752722   -1.759104
     71          1           0       -5.008592   -0.130833   -2.343138
     72          1           0       -3.629819    6.220761    1.305127
     73          1           0       -4.068616    4.360564    1.024575
     74          1           0        0.303408    6.251247    1.701251
     75          1           0       -1.266288    7.263431    1.490709
     76          1           0       -0.149650    6.962634    0.092516
     77          1           0       -3.379474    6.458494   -1.129520
     78          1           0       -5.244589    6.155710   -0.804305
     79          1           0       -3.878790    4.847202   -1.750623
     80          1           0        3.281806   -4.137970    2.157820
     81          1           0        7.897336   -1.989685    1.705466
 ---------------------------------------------------------------------

 SCF Done:  E(RB3LYP) =  -1949.11836260     A.U. after   17 cycles

 Excitation energies and oscillator strengths:

 Excited State   1:      Singlet-A      2.0385 eV  608.20 nm  f=0.3609  <S**2>=0.000
     156 ->157         0.70114
 This state for optimization and/or second-order correction.
 Total Energy, E(TD-HF/TD-DFT) =  -1949.04344741
 Copying the excited state density for this state as the 1-particle RhoCI density.

 The electronic state is 1-A.
 Alpha  occ. eigenvalues --  -19.20369 -19.19255 -19.14914 -19.12604 -19.09958
 Alpha  occ. eigenvalues --  -19.08799 -14.36861 -14.36286 -14.36160 -14.27588
 Alpha  occ. eigenvalues --  -10.33420 -10.31962 -10.29158 -10.24946 -10.24665
 Alpha  occ. eigenvalues --  -10.24428 -10.24021 -10.22989 -10.22857 -10.22660
 Alpha  occ. eigenvalues --  -10.22649 -10.21958 -10.21871 -10.21613 -10.21458
 Alpha  occ. eigenvalues --  -10.20978 -10.20925 -10.20764 -10.20722 -10.20716
 Alpha  occ. eigenvalues --  -10.20148 -10.20138 -10.19810 -10.19765 -10.19607
 Alpha  occ. eigenvalues --  -10.19566 -10.19533 -10.19310 -10.19218 -10.18650
 Alpha  occ. eigenvalues --  -10.18493 -10.18300 -10.18046  -1.12363  -1.11106
 Alpha  occ. eigenvalues --   -1.03236  -1.01445  -1.01285  -1.01003  -0.99565
 Alpha  occ. eigenvalues --   -0.99162  -0.94012  -0.90103  -0.83953  -0.82981
 Alpha  occ. eigenvalues --   -0.82411  -0.81996  -0.79408  -0.78961  -0.78172
 Alpha  occ. eigenvalues --   -0.77524  -0.76746  -0.75525  -0.74043  -0.73216
 Alpha  occ. eigenvalues --   -0.71391  -0.70118  -0.69526  -0.68667  -0.68107
 Alpha  occ. eigenvalues --   -0.67570  -0.66240  -0.64848  -0.62308  -0.61588
 Alpha  occ. eigenvalues --   -0.60627  -0.59787  -0.58857  -0.58269  -0.58142
 Alpha  occ. eigenvalues --   -0.56261  -0.55973  -0.55361  -0.54435  -0.52224
 Alpha  occ. eigenvalues --   -0.52186  -0.51538  -0.51114  -0.50801  -0.50312
 Alpha  occ. eigenvalues --   -0.50005  -0.49491  -0.48894  -0.48609  -0.48555
 Alpha  occ. eigenvalues --   -0.47930  -0.47152  -0.46775  -0.46299  -0.45411
 Alpha  occ. eigenvalues --   -0.45231  -0.45015  -0.44757  -0.44348  -0.43813
 Alpha  occ. eigenvalues --   -0.43485  -0.42995  -0.42749  -0.42378  -0.42127
 Alpha  occ. eigenvalues --   -0.42053  -0.41752  -0.41674  -0.41087  -0.40848
 Alpha  occ. eigenvalues --   -0.40527  -0.40345  -0.40259  -0.40144  -0.39821
 Alpha  occ. eigenvalues --   -0.39632  -0.39369  -0.38978  -0.38834  -0.38270
 Alpha  occ. eigenvalues --   -0.37919  -0.37647  -0.37162  -0.37050  -0.36802
 Alpha  occ. eigenvalues --   -0.36771  -0.35700  -0.35425  -0.34827  -0.34709
 Alpha  occ. eigenvalues --   -0.34080  -0.33961  -0.33318  -0.32933  -0.32595
 Alpha  occ. eigenvalues --   -0.32385  -0.32124  -0.30409  -0.30203  -0.29914
 Alpha  occ. eigenvalues --   -0.28559  -0.26527  -0.26217  -0.26048  -0.25222
 Alpha  occ. eigenvalues --   -0.25128  -0.24760  -0.23167  -0.22486  -0.21241
 Alpha  occ. eigenvalues --   -0.18628
 Alpha virt. eigenvalues --   -0.10349  -0.05632  -0.04043  -0.01276  -0.00125
 Alpha virt. eigenvalues --    0.00932   0.01470   0.02158   0.03215   0.03426
 Alpha virt. eigenvalues --    0.03746   0.04027   0.04510   0.05381   0.05914

 Mulliken charges:
               1
     1  O   -0.258185
     2  O   -0.193058
     3  O   -0.170233
     4  O   -0.191956
     5  O   -0.223469
     6  O   -0.229658
     7  N    0.082106
     8  N   -0.025829
     9  N   -0.114263
    10  N   -0.294510
    11  C   -0.048354
    12  C    0.030017
    13  C   -0.157528
    14  C    0.054874
    15  C   -0.078755
    16  C    0.130986
    17  C   -0.012452
    18  C   -0.115659
    19  C   -0.023261
    20  C   -0.094499
    21  C    0.045006
    22  C    0.046365
    23  C    0.049571
    24  C    0.061524
    25  C   -0.118332
    26  C    0.105267
    27  C    0.143532
    28  C    0.071422
    29  C   -0.016452
    30  C    0.051303
    31  C   -0.096643
    32  C    0.058405
    33  C   -0.203490
    34  C    0.045417
    35  C   -0.068251
    36  C   -0.230299
    37  C    0.073942
    38  C    0.040801
    39  C    0.120559
    40  C   -0.029614
    41  C    0.141116
    42  C    0.098692
    43  C    0.005170
    44  H    0.021407
    45  H   -0.031911
    46  H    0.043481
    47  H    0.015324
    48  H    0.075545
    49  H    0.017290
    50  H    0.014593
    51  H    0.013552
    52  H    0.111773
    53  H    0.014859
    54  H    0.031586
    55  H    0.015108
    56  H    0.141197
    57  H    0.033953
    58  H    0.045443
    59  H    0.054388
    60  H    0.044084
    61  H    0.045847
    62  H    0.040395
    63  H    0.015239
    64  H   -0.032880
    65  H    0.021622
    66  H    0.034524
    67  H   -0.001002
    68  H    0.022683
    69  H    0.069325
    70  H   -0.000733
    71  H    0.029691
    72  H    0.003137
    73  H    0.035170
    74  H    0.035147
    75  H    0.034533
    76  H    0.015894
    77  H    0.003983
    78  H    0.048267
    79  H    0.050944
    80  H    0.211949
    81  H    0.193268
 Sum of Mulliken charges =  -0.00000

 Dipole moment (field-independent basis, Debye):
    X=              4.1347    Y=             -0.2998    Z=              0.6343  Tot=              4.1938
 Quadrupole moment (field-independent basis, Debye-Ang):
   XX=           -247.5139   YY=           -245.2490   ZZ=           -254.0116
   XY=            -13.3051   XZ=             18.5722   YZ=             13.3903

 Normal termination of Gaussian 16 at Sun Jun 30 16:03:48 2019.
