 Gaussian 16, Revision A.03,
 Gaussian 16:  ES64L-G16RevA.03 25-Dec-2016

 --------------------------
 # td=(NStates=1) B3LYP/SVP
 --------------------------

 --
 TD
 --
 Symbolic Z-matrix:
 Charge =  0 Multiplicity = 1

                         Standard orientation:
 ---------------------------------------------------------------------
 Center     Atomic      Atomic             Coordinates (Angstroms)
 Number     Number       Type             X           Y           Z
 ---------------------------------------------------------------------
      1          8           0        4.372301   -4.708354   -1.885414
      2          8           0       -2.926138   -4.717708   -1.361267
      3          8           0       -6.990105   -1.389456   -1.896231
      4          8           0       -3.701311   -3.038944   -0.047469
      5          8           0       -7.619308   -0.675075    0.037798
      6          8           0        3.004646    2.549143    0.113127
      7          7           0        0.296500   -0.592081    0.582738
      8          7           0       -1.591785    1.781303    0.424816
      9          7           0        3.286028   -3.067219   -0.656331
     10          7           0        0.704161    2.869470    0.080007
     11          6           0       -0.598199   -2.500982    1.433194
     12          6           0       -0.889791   -1.177461    0.941206
     13          6           0        0.871183   -2.697187    1.296352
     14          6           0        1.402293   -1.463863    0.836929
     15          6           0       -3.800370    1.358614    0.448045
     16          6           0       -2.501664    0.813722    0.648377
     17          6           0       -2.166195   -0.469939    0.926174
     18          6           0       -3.513070    2.665718    0.013568
     19          6           0       -1.614643   -3.547224    1.903923
     20          6           0        5.495804   -2.561971   -1.334913
     21          6           0        3.681299   -1.732790   -0.135508
     22          6           0       -2.126576    2.941918   -0.072243
     23          6           0        5.135682   -1.525274   -0.371206
     24          6           0       -5.073381    0.642992    0.539343
     25          6           0        2.641669   -0.977056    0.496397
     26          6           0        1.600669   -3.903976    1.847629
     27          6           0        4.408789   -3.594059   -1.255203
     28          6           0       -1.965312   -4.662698    0.784937
     29          6           0       -5.328967   -0.307724   -0.667928
     30          6           0       -4.583419    3.785927   -0.344536
     31          6           0       -1.372204    4.045179   -0.268399
     32          6           0        7.035539   -3.159897   -1.176422
     33          6           0        5.863111   -0.531997    0.203618
     34          6           0        0.041669    4.014261   -0.187471
     35          6           0        0.875873    5.076284   -0.489480
     36          6           0        2.236114    4.697686   -0.455436
     37          6           0       -2.989948   -4.004939   -0.248542
     38          6           0        5.438757    0.566428    1.200539
     39          6           0       -6.752421   -0.771791   -0.778967
     40          6           0        3.497001    5.389693   -0.464529
     41          6           0        2.011497    3.279988   -0.057906
     42          6           0        0.413694    6.501811   -0.874991
     43          6           0        4.123880    5.673353    0.927257
     44          1           0        0.337708    0.270794    0.017007
     45          1           0       -2.879554   -1.265520    1.185730
     46          1           0       -2.612806   -2.964656    2.153823
     47          1           0       -1.239081   -4.040328    2.782169
     48          1           0        5.409793   -2.324711   -2.241017
     49          1           0       -5.033628    0.042933    1.417566
     50          1           0       -5.994952    1.269896    0.688743
     51          1           0        2.632235    0.211262    0.333865
     52          1           0       -0.621406    1.890824    0.534804
     53          1           0        1.599929   -4.594406    0.939692
     54          1           0        2.591722   -3.333900    2.102489
     55          1           0        1.091939   -4.399019    2.531527
     56          1           0        2.355608   -3.643036   -0.500875
     57          1           0       -1.056339   -4.932319    0.308696
     58          1           0       -2.561924   -5.324531    1.359316
     59          1           0       -4.738619   -1.280145   -0.423522
     60          1           0       -5.082109   -0.027902   -1.728239
     61          1           0       -4.208091    4.711671    0.092389
     62          1           0       -5.666900    3.419618   -0.071113
     63          1           0       -4.448143    4.217964   -1.322205
     64          1           0       -1.806336    5.165403   -0.486995
     65          1           0        7.717597   -2.503919   -1.673048
     66          1           0        7.237437   -4.107498   -1.698706
     67          1           0        7.052343   -3.447755   -0.287215
     68          1           0        6.851561   -0.485918   -0.104144
     69          1           0        4.942546    1.400754    0.859869
     70          1           0        6.459870    0.904427    1.712603
     71          1           0        4.810646    0.111561    1.897619
     72          1           0        3.471515    6.257876   -1.131759
     73          1           0        4.270549    4.706043   -0.851396
     74          1           0       -0.504009    6.514940   -1.653938
     75          1           0        1.069131    7.228537   -1.365419
     76          1           0        0.112578    6.951463    0.153972
     77          1           0        3.587964    6.335384    1.734174
     78          1           0        5.186370    6.186818    0.987379
     79          1           0        4.192855    4.582052    1.378356
     80          1           0       -3.564684   -4.384071   -1.952679
     81          1           0       -7.938527   -1.594223   -1.965307
 ---------------------------------------------------------------------

 SCF Done:  E(RB3LYP) =  -1949.08077222     A.U. after   19 cycles

 Excitation energies and oscillator strengths:

 Excited State   1:      Singlet-A      1.7108 eV  724.72 nm  f=0.3363  <S**2>=0.000
     156 ->157         0.70839
     156 <-157        -0.12718
 This state for optimization and/or second-order correction.
 Total Energy, E(TD-HF/TD-DFT) =  -1949.01790152
 Copying the excited state density for this state as the 1-particle RhoCI density.

 The electronic state is 1-A.
 Alpha  occ. eigenvalues --  -19.21207 -19.18000 -19.15798 -19.11177 -19.09768
 Alpha  occ. eigenvalues --  -19.09364 -14.37600 -14.36884 -14.34968 -14.28955
 Alpha  occ. eigenvalues --  -10.34938 -10.30793 -10.28474 -10.25846 -10.25491
 Alpha  occ. eigenvalues --  -10.23483 -10.23330 -10.23300 -10.23246 -10.22411
 Alpha  occ. eigenvalues --  -10.22390 -10.22102 -10.21143 -10.20878 -10.20809
 Alpha  occ. eigenvalues --  -10.20750 -10.20713 -10.20528 -10.20463 -10.20385
 Alpha  occ. eigenvalues --  -10.20308 -10.20231 -10.20133 -10.19974 -10.19961
 Alpha  occ. eigenvalues --  -10.19951 -10.19871 -10.19713 -10.19550 -10.19326
 Alpha  occ. eigenvalues --  -10.19128 -10.17770 -10.17678  -1.13574  -1.11528
 Alpha  occ. eigenvalues --   -1.04004  -1.00488  -1.00256  -0.99804  -0.99400
 Alpha  occ. eigenvalues --   -0.96483  -0.92716  -0.92138  -0.82772  -0.82106
 Alpha  occ. eigenvalues --   -0.81252  -0.81074  -0.79968  -0.79217  -0.77399
 Alpha  occ. eigenvalues --   -0.77067  -0.76372  -0.75367  -0.74113  -0.72574
 Alpha  occ. eigenvalues --   -0.71304  -0.70376  -0.69161  -0.68725  -0.68518
 Alpha  occ. eigenvalues --   -0.67776  -0.66385  -0.65276  -0.62920  -0.62723
 Alpha  occ. eigenvalues --   -0.61588  -0.60498  -0.58944  -0.57832  -0.56848
 Alpha  occ. eigenvalues --   -0.55903  -0.55436  -0.54662  -0.53653  -0.53163
 Alpha  occ. eigenvalues --   -0.52782  -0.52403  -0.51617  -0.51198  -0.50385
 Alpha  occ. eigenvalues --   -0.50092  -0.49114  -0.48962  -0.48660  -0.47925
 Alpha  occ. eigenvalues --   -0.47698  -0.47098  -0.46479  -0.45997  -0.45248
 Alpha  occ. eigenvalues --   -0.45092  -0.44877  -0.44577  -0.44320  -0.43792
 Alpha  occ. eigenvalues --   -0.43558  -0.43298  -0.42921  -0.42784  -0.42594
 Alpha  occ. eigenvalues --   -0.41946  -0.41689  -0.41129  -0.40922  -0.40637
 Alpha  occ. eigenvalues --   -0.40350  -0.40248  -0.39827  -0.39717  -0.39281
 Alpha  occ. eigenvalues --   -0.38864  -0.38520  -0.38484  -0.38327  -0.38067
 Alpha  occ. eigenvalues --   -0.37814  -0.37639  -0.37378  -0.37129  -0.36598
 Alpha  occ. eigenvalues --   -0.36039  -0.35659  -0.35571  -0.35329  -0.34949
 Alpha  occ. eigenvalues --   -0.34353  -0.34240  -0.33710  -0.33476  -0.33334
 Alpha  occ. eigenvalues --   -0.32310  -0.31985  -0.31896  -0.30862  -0.29881
 Alpha  occ. eigenvalues --   -0.28803  -0.27319  -0.26567  -0.26001  -0.24818
 Alpha  occ. eigenvalues --   -0.24482  -0.24161  -0.23748  -0.22916  -0.21475
 Alpha  occ. eigenvalues --   -0.17710
 Alpha virt. eigenvalues --   -0.11016  -0.06790  -0.04811  -0.01815  -0.00024
 Alpha virt. eigenvalues --    0.01714   0.02093   0.02712   0.03730   0.04148
 Alpha virt. eigenvalues --    0.04315   0.04994   0.05527   0.05771   0.06068

 Mulliken charges:
               1
     1  O   -0.293262
     2  O   -0.112259
     3  O   -0.148581
     4  O   -0.214929
     5  O   -0.228923
     6  O   -0.243404
     7  N   -0.115744
     8  N   -0.035037
     9  N   -0.184335
    10  N   -0.275503
    11  C   -0.107215
    12  C   -0.021470
    13  C   -0.234530
    14  C    0.127104
    15  C   -0.066396
    16  C    0.153803
    17  C   -0.047133
    18  C   -0.163818
    19  C    0.024565
    20  C    0.045295
    21  C    0.053934
    22  C    0.142040
    23  C    0.035820
    24  C    0.148807
    25  C   -0.185746
    26  C    0.159103
    27  C    0.114221
    28  C    0.070924
    29  C   -0.059356
    30  C    0.118166
    31  C   -0.188507
    32  C    0.142313
    33  C   -0.126521
    34  C    0.086489
    35  C   -0.114459
    36  C   -0.122303
    37  C    0.116698
    38  C    0.106463
    39  C    0.069690
    40  C    0.132360
    41  C    0.117147
    42  C    0.016045
    43  C   -0.109574
    44  H    0.145481
    45  H   -0.007525
    46  H    0.037871
    47  H    0.004891
    48  H   -0.023529
    49  H   -0.003926
    50  H    0.021981
    51  H    0.083502
    52  H    0.090470
    53  H    0.015309
    54  H    0.074576
    55  H   -0.032376
    56  H    0.181770
    57  H    0.032086
    58  H    0.039387
    59  H    0.082197
    60  H    0.035606
    61  H   -0.004617
    62  H    0.049169
    63  H   -0.006882
    64  H    0.022120
    65  H    0.020487
    66  H    0.015189
    67  H   -0.045479
    68  H   -0.031554
    69  H    0.048321
    70  H    0.014245
    71  H    0.009090
    72  H   -0.000662
    73  H    0.011402
    74  H    0.037255
    75  H    0.020094
    76  H    0.041749
    77  H    0.020404
    78  H    0.028409
    79  H    0.050777
    80  H    0.162083
    81  H    0.178647
 Sum of Mulliken charges =  -0.00000

 Dipole moment (field-independent basis, Debye):
    X=             -2.6458    Y=              0.0076    Z=             -0.8193  Tot=              2.7698
 Quadrupole moment (field-independent basis, Debye-Ang):
   XX=           -252.9827   YY=           -238.6875   ZZ=           -253.6029
   XY=             21.2130   XZ=             18.8000   YZ=            -14.2874

 Normal termination of Gaussian 16 at Thu Jul  4 09:35:43 2019.
