 Gaussian 16, Revision A.03,
 Gaussian 16:  ES64L-G16RevA.03 25-Dec-2016

 --------------------------
 # td=(NStates=1) B3LYP/SVP
 --------------------------

 --
 TD
 --
 Symbolic Z-matrix:
 Charge =  0 Multiplicity = 1

                         Standard orientation:
 ---------------------------------------------------------------------
 Center     Atomic      Atomic             Coordinates (Angstroms)
 Number     Number       Type             X           Y           Z
 ---------------------------------------------------------------------
      1          8           0       -4.670974   -4.693587    1.925219
      2          8           0        2.736349   -4.954327    1.105577
      3          8           0        7.131893   -1.638214    1.939220
      4          8           0        3.850641   -3.288981   -0.043187
      5          8           0        7.664107   -0.567192    0.002480
      6          8           0       -2.989610    2.548497   -0.236451
      7          7           0       -0.249282   -0.563525   -0.577567
      8          7           0        1.555530    1.800552   -0.481994
      9          7           0       -3.530349   -3.185097    0.552782
     10          7           0       -0.623145    3.018310   -0.220722
     11          6           0        0.601679   -2.466149   -1.353174
     12          6           0        0.884186   -1.204797   -0.850772
     13          6           0       -0.735317   -2.614091   -1.181568
     14          6           0       -1.327827   -1.517777   -0.771098
     15          6           0        3.755147    1.336321   -0.291870
     16          6           0        2.364391    0.880553   -0.633753
     17          6           0        2.143834   -0.470479   -0.831038
     18          6           0        3.585965    2.706757   -0.057689
     19          6           0        1.715850   -3.378779   -1.965384
     20          6           0       -5.655325   -2.475929    1.366236
     21          6           0       -3.724622   -1.799909    0.107782
     22          6           0        2.143345    2.965675   -0.118108
     23          6           0       -5.082331   -1.447649    0.419037
     24          6           0        5.076794    0.586440   -0.242260
     25          6           0       -2.674246   -1.120093   -0.365947
     26          6           0       -1.413892   -3.920141   -1.578446
     27          6           0       -4.613124   -3.630140    1.315286
     28          6           0        2.083593   -4.545492   -1.037448
     29          6           0        5.453426   -0.274419    0.946924
     30          6           0        4.425204    3.818286    0.376654
     31          6           0        1.430058    4.096727    0.116106
     32          6           0       -7.137898   -2.943698    1.194657
     33          6           0       -5.803452   -0.559301   -0.297094
     34          6           0        0.061021    4.101602   -0.009121
     35          6           0       -0.857482    5.264629    0.382058
     36          6           0       -2.150109    4.710535    0.333995
     37          6           0        2.970978   -4.191615    0.075289
     38          6           0       -5.308081    0.425135   -1.314790
     39          6           0        6.839164   -0.735627    0.893142
     40          6           0       -3.507780    5.323073    0.597486
     41          6           0       -2.043528    3.258921   -0.010698
     42          6           0       -0.441488    6.642216    0.797344
     43          6           0       -4.148715    5.584748   -0.821874
     44          1           0       -0.328832    0.193565    0.151287
     45          1           0        3.164822   -1.112794   -0.967998
     46          1           0        2.500373   -2.845138   -2.441689
     47          1           0        1.256551   -3.845074   -2.842196
     48          1           0       -5.850942   -1.931371    2.435550
     49          1           0        5.159985    0.026942   -1.210121
     50          1           0        5.710486    1.319692   -0.334651
     51          1           0       -2.873789    0.028075   -0.293451
     52          1           0        0.521955    1.970034   -0.665235
     53          1           0       -1.531181   -4.691754   -0.874632
     54          1           0       -2.502058   -3.778675   -2.031790
     55          1           0       -0.964945   -4.329056   -2.523610
     56          1           0       -2.551722   -3.737991    0.265267
     57          1           0        1.265761   -4.963387   -0.620384
     58          1           0        2.574104   -5.196230   -1.584338
     59          1           0        4.737294   -1.227546    1.184756
     60          1           0        5.411873    0.462493    1.867227
     61          1           0        4.143188    4.563781   -0.405274
     62          1           0        5.484469    3.544936    0.481544
     63          1           0        4.098529    4.450206    1.544072
     64          1           0        1.992637    4.984943    0.563858
     65          1           0       -7.878623   -2.188767    1.700833
     66          1           0       -7.246939   -3.947249    1.633895
     67          1           0       -7.512713   -3.009417    0.110650
     68          1           0       -6.759493   -0.599137    0.208267
     69          1           0       -5.060820    1.382890   -0.644447
     70          1           0       -6.154427    0.629609   -1.942728
     71          1           0       -4.596447    0.103328   -1.752857
     72          1           0       -3.355884    6.197923    1.165316
     73          1           0       -4.171590    4.743654    1.075519
     74          1           0        0.431077    6.705786    1.677373
     75          1           0       -1.169454    7.311024    1.099020
     76          1           0        0.153907    7.087243   -0.076305
     77          1           0       -3.578454    6.424590   -1.483736
     78          1           0       -5.086071    6.076182   -0.512004
     79          1           0       -4.311978    4.497808   -1.280546
     80          1           0        3.528832   -4.701766    1.730139
     81          1           0        8.045474   -1.773787    2.003877
 ---------------------------------------------------------------------

 SCF Done:  E(RB3LYP) =  -1949.03950008     A.U. after   16 cycles

 Excitation energies and oscillator strengths:

 Excited State   1:      Singlet-A      1.8688 eV  663.45 nm  f=0.3370  <S**2>=0.000
     156 ->157         0.70401
     156 <-157        -0.10735
 This state for optimization and/or second-order correction.
 Total Energy, E(TD-HF/TD-DFT) =  -1948.97082321
 Copying the excited state density for this state as the 1-particle RhoCI density.

 The electronic state is 1-A.
 Alpha  occ. eigenvalues --  -19.22052 -19.16508 -19.13639 -19.13052 -19.12143
 Alpha  occ. eigenvalues --  -19.09912 -14.36879 -14.36482 -14.35195 -14.29249
 Alpha  occ. eigenvalues --  -10.33296 -10.32346 -10.28738 -10.27672 -10.23118
 Alpha  occ. eigenvalues --  -10.23111 -10.23013 -10.22853 -10.22608 -10.22389
 Alpha  occ. eigenvalues --  -10.22128 -10.22008 -10.21411 -10.21192 -10.21101
 Alpha  occ. eigenvalues --  -10.20965 -10.20767 -10.20764 -10.20717 -10.20149
 Alpha  occ. eigenvalues --  -10.19703 -10.19690 -10.19682 -10.19362 -10.19091
 Alpha  occ. eigenvalues --  -10.19070 -10.18932 -10.18922 -10.18913 -10.18808
 Alpha  occ. eigenvalues --  -10.18661 -10.17953 -10.16991  -1.12452  -1.07795
 Alpha  occ. eigenvalues --   -1.03369  -1.01646  -1.01267  -1.00179  -0.99642
 Alpha  occ. eigenvalues --   -0.98407  -0.92592  -0.92293  -0.82926  -0.82496
 Alpha  occ. eigenvalues --   -0.81848  -0.81090  -0.80347  -0.79428  -0.78265
 Alpha  occ. eigenvalues --   -0.77804  -0.75988  -0.75094  -0.74183  -0.72769
 Alpha  occ. eigenvalues --   -0.71674  -0.69988  -0.69451  -0.68902  -0.68199
 Alpha  occ. eigenvalues --   -0.67607  -0.65337  -0.64302  -0.61727  -0.61361
 Alpha  occ. eigenvalues --   -0.61198  -0.59919  -0.58828  -0.57665  -0.56211
 Alpha  occ. eigenvalues --   -0.56044  -0.55638  -0.54702  -0.54046  -0.53163
 Alpha  occ. eigenvalues --   -0.51813  -0.51670  -0.51537  -0.51015  -0.50282
 Alpha  occ. eigenvalues --   -0.49987  -0.49082  -0.48806  -0.47901  -0.47261
 Alpha  occ. eigenvalues --   -0.47115  -0.46540  -0.46299  -0.45571  -0.45389
 Alpha  occ. eigenvalues --   -0.45301  -0.45080  -0.44449  -0.44289  -0.43555
 Alpha  occ. eigenvalues --   -0.43531  -0.42885  -0.42621  -0.42328  -0.42194
 Alpha  occ. eigenvalues --   -0.42070  -0.41950  -0.41481  -0.40947  -0.40770
 Alpha  occ. eigenvalues --   -0.40544  -0.40005  -0.39929  -0.39551  -0.39294
 Alpha  occ. eigenvalues --   -0.39117  -0.39051  -0.38729  -0.38278  -0.38199
 Alpha  occ. eigenvalues --   -0.37897  -0.37628  -0.37038  -0.36491  -0.36407
 Alpha  occ. eigenvalues --   -0.36201  -0.36069  -0.35791  -0.35522  -0.35310
 Alpha  occ. eigenvalues --   -0.34735  -0.34256  -0.34153  -0.33466  -0.33223
 Alpha  occ. eigenvalues --   -0.33132  -0.32874  -0.31888  -0.29532  -0.29003
 Alpha  occ. eigenvalues --   -0.28658  -0.28142  -0.26794  -0.25887  -0.25467
 Alpha  occ. eigenvalues --   -0.25288  -0.24507  -0.24405  -0.22888  -0.21389
 Alpha  occ. eigenvalues --   -0.17681
 Alpha virt. eigenvalues --   -0.10251  -0.05815  -0.03303  -0.01677  -0.01087
 Alpha virt. eigenvalues --   -0.00243   0.01595   0.01819   0.02790   0.03472
 Alpha virt. eigenvalues --    0.04167   0.04717   0.05358   0.05908   0.06508

 Mulliken charges:
               1
     1  O   -0.233445
     2  O   -0.149723
     3  O   -0.216349
     4  O   -0.289467
     5  O   -0.227533
     6  O   -0.186765
     7  N   -0.105337
     8  N    0.069407
     9  N   -0.243357
    10  N   -0.335764
    11  C   -0.123341
    12  C    0.009023
    13  C   -0.152990
    14  C    0.127641
    15  C   -0.162149
    16  C    0.032037
    17  C   -0.148487
    18  C   -0.053568
    19  C    0.148284
    20  C   -0.113325
    21  C    0.081469
    22  C    0.028366
    23  C   -0.033161
    24  C    0.193346
    25  C   -0.144431
    26  C    0.007367
    27  C    0.193200
    28  C    0.193650
    29  C   -0.034848
    30  C   -0.010305
    31  C   -0.145812
    32  C   -0.018525
    33  C   -0.143025
    34  C    0.103184
    35  C   -0.080096
    36  C   -0.212151
    37  C    0.106685
    38  C    0.239985
    39  C    0.152523
    40  C    0.181935
    41  C    0.193126
    42  C    0.065831
    43  C   -0.086363
    44  H    0.162718
    45  H    0.061710
    46  H    0.002704
    47  H   -0.021249
    48  H    0.065992
    49  H    0.026055
    50  H   -0.060832
    51  H    0.043658
    52  H    0.150953
    53  H    0.031955
    54  H    0.039341
    55  H    0.022540
    56  H    0.178876
    57  H   -0.020878
    58  H   -0.007706
    59  H    0.097409
    60  H    0.049304
    61  H    0.046881
    62  H    0.026129
    63  H    0.045573
    64  H   -0.005922
    65  H    0.027807
    66  H    0.043687
    67  H    0.020382
    68  H   -0.023595
    69  H    0.087001
    70  H    0.004087
    71  H   -0.071416
    72  H   -0.025308
    73  H   -0.028619
    74  H    0.035118
    75  H    0.001004
    76  H    0.029757
    77  H    0.035543
    78  H    0.010866
    79  H    0.069080
    80  H    0.215974
    81  H    0.156681
 Sum of Mulliken charges =  -0.00000

 Dipole moment (field-independent basis, Debye):
    X=              2.6506    Y=              1.4498    Z=              0.6849  Tot=              3.0979
 Quadrupole moment (field-independent basis, Debye-Ang):
   XX=           -260.0020   YY=           -236.2682   ZZ=           -253.4580
   XY=            -20.0354   XZ=             18.4786   YZ=             17.3905

 Normal termination of Gaussian 16 at Sat Jun 29 10:17:05 2019.
