 Gaussian 16, Revision A.03,
 Gaussian 16:  ES64L-G16RevA.03 25-Dec-2016

 --------------------------
 # td=(NStates=1) B3LYP/SVP
 --------------------------

 --
 TD
 --
 Symbolic Z-matrix:
 Charge =  0 Multiplicity = 1

                         Standard orientation:
 ---------------------------------------------------------------------
 Center     Atomic      Atomic             Coordinates (Angstroms)
 Number     Number       Type             X           Y           Z
 ---------------------------------------------------------------------
      1          8           0       -4.612183   -4.631370    1.852489
      2          8           0        3.077152   -5.003551    1.176153
      3          8           0        7.128023   -1.415480    1.934115
      4          8           0        3.727434   -3.243841   -0.014636
      5          8           0        7.649057   -0.525192   -0.075185
      6          8           0       -2.957099    2.473170   -0.210001
      7          7           0       -0.315473   -0.591807   -0.784742
      8          7           0        1.528566    1.746293   -0.388604
      9          7           0       -3.499273   -3.152582    0.625636
     10          7           0       -0.718054    2.939959   -0.113077
     11          6           0        0.646838   -2.489412   -1.371880
     12          6           0        0.942565   -1.152518   -1.001519
     13          6           0       -0.754211   -2.636644   -1.300844
     14          6           0       -1.360131   -1.505666   -0.815907
     15          6           0        3.810535    1.415572   -0.310881
     16          6           0        2.509322    0.775262   -0.607603
     17          6           0        2.189462   -0.536211   -0.917985
     18          6           0        3.564600    2.712523    0.067733
     19          6           0        1.601014   -3.508725   -1.931231
     20          6           0       -5.597308   -2.474288    1.493705
     21          6           0       -3.676030   -1.841201    0.185534
     22          6           0        2.067193    3.018686   -0.033306
     23          6           0       -5.104138   -1.421718    0.449954
     24          6           0        5.018690    0.583241   -0.352101
     25          6           0       -2.667528   -1.066967   -0.494357
     26          6           0       -1.654382   -3.847714   -1.770437
     27          6           0       -4.654561   -3.632911    1.355710
     28          6           0        2.078715   -4.553073   -0.906208
     29          6           0        5.391361   -0.101932    0.881580
     30          6           0        4.374965    3.783150    0.587578
     31          6           0        1.364286    4.127155    0.246761
     32          6           0       -6.927554   -3.026432    1.309888
     33          6           0       -5.819610   -0.540649   -0.111337
     34          6           0        0.017526    4.079294    0.138425
     35          6           0       -0.922112    5.203137    0.439418
     36          6           0       -2.143702    4.739116    0.313563
     37          6           0        3.034857   -4.198186    0.145185
     38          6           0       -5.447779    0.417769   -1.237063
     39          6           0        6.832220   -0.671110    0.824284
     40          6           0       -3.486853    5.379004    0.430187
     41          6           0       -2.020108    3.239236   -0.069941
     42          6           0       -0.412179    6.557292    0.728311
     43          6           0       -4.124534    5.715860   -0.995211
     44          1           0       -0.432248    0.374708   -0.404569
     45          1           0        3.033973   -1.243594   -1.184101
     46          1           0        2.612355   -3.262491   -2.208918
     47          1           0        1.340783   -4.029863   -2.801736
     48          1           0       -5.539078   -2.212778    2.537824
     49          1           0        4.889314    0.053045   -1.272953
     50          1           0        5.858526    1.321712   -0.543024
     51          1           0       -2.764574   -0.045347   -0.515952
     52          1           0        0.577337    1.867970   -0.595867
     53          1           0       -1.951755   -4.752976   -1.156212
     54          1           0       -2.488020   -3.305356   -2.530898
     55          1           0       -1.204299   -4.282095   -2.633655
     56          1           0       -2.770525   -3.648615    0.694659
     57          1           0        1.179751   -5.404318   -0.666834
     58          1           0        2.685231   -5.403202   -1.216718
     59          1           0        4.765837   -1.006666    0.951547
     60          1           0        5.209585    0.499244    1.751477
     61          1           0        4.301309    4.720669   -0.058438
     62          1           0        5.560267    3.488603    0.223029
     63          1           0        4.389443    4.067404    1.682748
     64          1           0        1.827539    5.152733    0.631597
     65          1           0       -7.754845   -2.426833    1.728143
     66          1           0       -7.199354   -3.773488    2.096733
     67          1           0       -7.166894   -3.439154    0.291631
     68          1           0       -6.800860   -0.591209    0.199931
     69          1           0       -4.804538    1.270011   -0.823523
     70          1           0       -6.271156    0.809988   -1.665334
     71          1           0       -4.766311   -0.026894   -1.883485
     72          1           0       -3.566910    6.244055    0.957766
     73          1           0       -3.936448    4.658228    1.028759
     74          1           0        0.293291    6.651388    1.515238
     75          1           0       -1.309901    7.030185    1.354612
     76          1           0       -0.026696    7.099041   -0.100848
     77          1           0       -3.627821    6.566262   -1.244927
     78          1           0       -5.129169    5.930369   -0.971021
     79          1           0       -3.915885    4.818587   -1.561102
     80          1           0        3.760474   -4.818721    1.758681
     81          1           0        8.044255   -2.019162    1.737756
 ---------------------------------------------------------------------

 SCF Done:  E(RB3LYP) =  -1949.07198748     A.U. after   16 cycles

 Excitation energies and oscillator strengths:

 Excited State   1:      Singlet-A      1.9315 eV  641.90 nm  f=0.4257  <S**2>=0.000
     156 ->157         0.70913
     156 <-157        -0.11787
 This state for optimization and/or second-order correction.
 Total Energy, E(TD-HF/TD-DFT) =  -1949.00100554
 Copying the excited state density for this state as the 1-particle RhoCI density.

 The electronic state is 1-A.
 Alpha  occ. eigenvalues --  -19.19494 -19.18390 -19.13099 -19.12699 -19.12567
 Alpha  occ. eigenvalues --  -19.09469 -14.36442 -14.35154 -14.34982 -14.27878
 Alpha  occ. eigenvalues --  -10.32899 -10.32048 -10.28943 -10.25380 -10.25081
 Alpha  occ. eigenvalues --  -10.23907 -10.23179 -10.22459 -10.22256 -10.22015
 Alpha  occ. eigenvalues --  -10.21829 -10.21084 -10.20995 -10.20393 -10.20385
 Alpha  occ. eigenvalues --  -10.20335 -10.20297 -10.20230 -10.20040 -10.19798
 Alpha  occ. eigenvalues --  -10.19416 -10.19117 -10.18985 -10.18921 -10.18879
 Alpha  occ. eigenvalues --  -10.18860 -10.18193 -10.18065 -10.17974 -10.17534
 Alpha  occ. eigenvalues --  -10.16682 -10.16330 -10.16067  -1.13044  -1.10174
 Alpha  occ. eigenvalues --   -1.07309  -1.03397  -1.00836  -0.98563  -0.97268
 Alpha  occ. eigenvalues --   -0.95825  -0.95041  -0.91202  -0.83218  -0.82911
 Alpha  occ. eigenvalues --   -0.81822  -0.81086  -0.79526  -0.78926  -0.77802
 Alpha  occ. eigenvalues --   -0.77733  -0.77530  -0.75519  -0.74424  -0.72411
 Alpha  occ. eigenvalues --   -0.71166  -0.70415  -0.68932  -0.68653  -0.67303
 Alpha  occ. eigenvalues --   -0.66711  -0.66581  -0.65207  -0.63274  -0.62935
 Alpha  occ. eigenvalues --   -0.61871  -0.59285  -0.58419  -0.57891  -0.56496
 Alpha  occ. eigenvalues --   -0.55647  -0.55136  -0.54596  -0.54315  -0.52701
 Alpha  occ. eigenvalues --   -0.51990  -0.51663  -0.51217  -0.50349  -0.49925
 Alpha  occ. eigenvalues --   -0.49855  -0.49607  -0.49154  -0.48673  -0.47339
 Alpha  occ. eigenvalues --   -0.47092  -0.46620  -0.46209  -0.45925  -0.45550
 Alpha  occ. eigenvalues --   -0.45151  -0.44856  -0.44810  -0.44358  -0.43981
 Alpha  occ. eigenvalues --   -0.43813  -0.43387  -0.43206  -0.42757  -0.42464
 Alpha  occ. eigenvalues --   -0.42352  -0.41479  -0.41349  -0.41152  -0.40828
 Alpha  occ. eigenvalues --   -0.40745  -0.40476  -0.40132  -0.39953  -0.39629
 Alpha  occ. eigenvalues --   -0.39298  -0.39159  -0.38844  -0.38576  -0.38035
 Alpha  occ. eigenvalues --   -0.37768  -0.37382  -0.37143  -0.36498  -0.36049
 Alpha  occ. eigenvalues --   -0.35793  -0.35263  -0.34955  -0.34297  -0.33910
 Alpha  occ. eigenvalues --   -0.33568  -0.33408  -0.33356  -0.33171  -0.32594
 Alpha  occ. eigenvalues --   -0.32281  -0.31821  -0.31651  -0.29742  -0.29144
 Alpha  occ. eigenvalues --   -0.28019  -0.27882  -0.26409  -0.26183  -0.26067
 Alpha  occ. eigenvalues --   -0.25191  -0.24620  -0.23514  -0.23103  -0.21663
 Alpha  occ. eigenvalues --   -0.17330
 Alpha virt. eigenvalues --   -0.09827  -0.04904  -0.02837  -0.00267   0.00641
 Alpha virt. eigenvalues --    0.00885   0.01616   0.02883   0.03642   0.04069
 Alpha virt. eigenvalues --    0.04652   0.04986   0.05547   0.06012   0.07224

 Mulliken charges:
               1
     1  O   -0.082591
     2  O   -0.110229
     3  O   -0.275319
     4  O   -0.217164
     5  O   -0.234083
     6  O   -0.213698
     7  N   -0.122475
     8  N   -0.111455
     9  N   -0.073808
    10  N   -0.294227
    11  C   -0.020966
    12  C    0.054512
    13  C   -0.175756
    14  C    0.121831
    15  C   -0.090985
    16  C    0.094842
    17  C   -0.057022
    18  C   -0.101622
    19  C    0.196582
    20  C   -0.018574
    21  C    0.088802
    22  C    0.125430
    23  C    0.043412
    24  C    0.116047
    25  C   -0.061477
    26  C    0.033868
    27  C    0.057879
    28  C   -0.116355
    29  C    0.061343
    30  C   -0.007116
    31  C   -0.178384
    32  C    0.031526
    33  C   -0.149663
    34  C    0.091907
    35  C   -0.091303
    36  C   -0.225284
    37  C    0.115620
    38  C    0.141269
    39  C    0.155628
    40  C    0.135174
    41  C    0.128568
    42  C    0.116109
    43  C    0.075424
    44  H    0.144555
    45  H    0.026096
    46  H   -0.009106
    47  H   -0.018962
    48  H    0.029226
    49  H    0.012896
    50  H    0.006763
    51  H   -0.036284
    52  H    0.108809
    53  H    0.048279
    54  H    0.035738
    55  H   -0.020865
    56  H    0.049794
    57  H    0.028135
    58  H    0.026950
    59  H    0.041510
    60  H    0.030324
    61  H    0.031684
    62  H    0.015610
    63  H    0.055895
    64  H    0.018259
    65  H   -0.003046
    66  H    0.007582
    67  H    0.027555
    68  H   -0.048452
    69  H    0.075447
    70  H   -0.020463
    71  H   -0.000908
    72  H   -0.050478
    73  H   -0.008883
    74  H   -0.004286
    75  H    0.015559
    76  H    0.026813
    77  H   -0.012440
    78  H   -0.008076
    79  H    0.024813
    80  H    0.156487
    81  H    0.241249
 Sum of Mulliken charges =  -0.00000

 Dipole moment (field-independent basis, Debye):
    X=              1.5410    Y=             -1.5475    Z=              1.4439  Tot=              2.6180
 Quadrupole moment (field-independent basis, Debye-Ang):
   XX=           -246.6847   YY=           -227.3123   ZZ=           -250.0503
   XY=            -15.3752   XZ=             11.0543   YZ=              8.5212

 Normal termination of Gaussian 16 at Thu Jun 27 05:55:56 2019.
