 Gaussian 16, Revision A.03,
 Gaussian 16:  ES64L-G16RevA.03 25-Dec-2016

 --------------------------
 # td=(NStates=1) B3LYP/SVP
 --------------------------

 --
 TD
 --
 Symbolic Z-matrix:
 Charge =  0 Multiplicity = 1

                         Standard orientation:
 ---------------------------------------------------------------------
 Center     Atomic      Atomic             Coordinates (Angstroms)
 Number     Number       Type             X           Y           Z
 ---------------------------------------------------------------------
      1          8           0       -4.713583   -4.698258    1.649262
      2          8           0        2.515033   -4.800869    1.460838
      3          8           0        7.142580   -1.569631    1.887175
      4          8           0        3.624535   -3.246828    0.249645
      5          8           0        7.457891   -0.980947   -0.246702
      6          8           0       -2.877374    2.611253   -0.222453
      7          7           0       -0.335180   -0.614525   -0.525793
      8          7           0        1.617373    1.759388   -0.360188
      9          7           0       -3.664030   -3.033857    0.653603
     10          7           0       -0.663826    3.001207   -0.139909
     11          6           0        0.560278   -2.532479   -1.349590
     12          6           0        0.864950   -1.202894   -0.996478
     13          6           0       -0.939846   -2.686613   -1.224400
     14          6           0       -1.423156   -1.391539   -0.771334
     15          6           0        3.897792    1.270085   -0.378445
     16          6           0        2.483933    0.732221   -0.627377
     17          6           0        2.089732   -0.613662   -0.908400
     18          6           0        3.744413    2.577084   -0.002507
     19          6           0        1.527267   -3.505487   -1.843645
     20          6           0       -5.615067   -2.320510    1.343641
     21          6           0       -3.755818   -1.802329    0.059508
     22          6           0        2.210743    2.904894    0.066375
     23          6           0       -5.110387   -1.377690    0.330227
     24          6           0        5.123095    0.435163   -0.520085
     25          6           0       -2.734160   -0.963375   -0.397732
     26          6           0       -1.709156   -3.874989   -1.713587
     27          6           0       -4.689268   -3.627101    1.214541
     28          6           0        1.932946   -4.599813   -0.960365
     29          6           0        5.476147   -0.284998    0.811329
     30          6           0        4.845465    3.586081    0.220622
     31          6           0        1.542992    4.085960    0.245471
     32          6           0       -7.075771   -2.755467    1.234333
     33          6           0       -5.754325   -0.263094   -0.152788
     34          6           0        0.153458    4.079432    0.253451
     35          6           0       -0.676604    5.207202    0.476761
     36          6           0       -2.042694    4.813556    0.320101
     37          6           0        2.756297   -4.112743    0.315819
     38          6           0       -5.416902    0.675500   -1.278075
     39          6           0        6.812061   -0.992338    0.738996
     40          6           0       -3.340599    5.487454    0.522764
     41          6           0       -1.921881    3.361871   -0.041446
     42          6           0       -0.215242    6.524331    0.839823
     43          6           0       -3.954097    5.813751   -0.791756
     44          1           0       -0.430511    0.242560   -0.215282
     45          1           0        3.119506   -1.335030   -1.031079
     46          1           0        2.485182   -2.901731   -2.167434
     47          1           0        1.123724   -4.012911   -2.895098
     48          1           0       -5.478198   -1.809464    2.605595
     49          1           0        4.905862   -0.406604   -1.162554
     50          1           0        5.986600    0.981887   -0.758099
     51          1           0       -3.154725   -0.070181   -0.633499
     52          1           0        0.558854    1.775984   -0.585456
     53          1           0       -1.842717   -4.659620   -1.021328
     54          1           0       -2.889938   -3.803125   -1.901768
     55          1           0       -1.276867   -4.407899   -2.734237
     56          1           0       -2.779519   -3.555802    0.548607
     57          1           0        0.933661   -5.473605   -0.656152
     58          1           0        2.622298   -5.433964   -1.651676
     59          1           0        4.613764   -0.998439    1.279910
     60          1           0        5.781593    0.354813    1.477378
     61          1           0        4.797204    4.397354   -0.448681
     62          1           0        5.842065    3.030961    0.056829
     63          1           0        4.891937    3.964157    1.288214
     64          1           0        2.145457    5.064135    0.412768
     65          1           0       -7.574150   -1.807932    1.250004
     66          1           0       -7.534938   -3.668349    1.878620
     67          1           0       -7.343826   -3.253173    0.179073
     68          1           0       -6.760010   -0.079737    0.324135
     69          1           0       -4.822924    1.544510   -0.947627
     70          1           0       -6.389807    1.050462   -1.648175
     71          1           0       -4.790027    0.059725   -2.054717
     72          1           0       -3.251854    6.320376    1.005727
     73          1           0       -3.976431    4.760950    1.044674
     74          1           0        0.289833    6.466943    1.773536
     75          1           0       -0.940219    7.267483    0.888412
     76          1           0        0.621771    6.888193    0.135689
     77          1           0       -3.237370    6.425247   -1.394578
     78          1           0       -4.823072    6.379811   -0.764391
     79          1           0       -4.109070    4.868587   -1.362246
     80          1           0        2.956414   -4.302044    2.203868
     81          1           0        7.977854   -2.052543    1.850422
 ---------------------------------------------------------------------

 SCF Done:  E(RB3LYP) =  -1949.07590541     A.U. after   24 cycles

 Excitation energies and oscillator strengths:

 Excited State   1:      Singlet-A      1.9098 eV  649.18 nm  f=0.3792  <S**2>=0.000
     154 ->157        -0.10249
     156 ->157         0.70385
     156 <-157        -0.11841
 This state for optimization and/or second-order correction.
 Total Energy, E(TD-HF/TD-DFT) =  -1949.00571971
 Copying the excited state density for this state as the 1-particle RhoCI density.

 The electronic state is 1-A.
 Alpha  occ. eigenvalues --  -19.20207 -19.18580 -19.14867 -19.12233 -19.11633
 Alpha  occ. eigenvalues --  -19.08638 -14.37144 -14.36877 -14.36812 -14.27571
 Alpha  occ. eigenvalues --  -10.34642 -10.31471 -10.28601 -10.25589 -10.24911
 Alpha  occ. eigenvalues --  -10.24401 -10.24375 -10.24373 -10.24210 -10.23347
 Alpha  occ. eigenvalues --  -10.22510 -10.22505 -10.22478 -10.22047 -10.21564
 Alpha  occ. eigenvalues --  -10.21112 -10.21067 -10.21034 -10.20877 -10.20668
 Alpha  occ. eigenvalues --  -10.20470 -10.19816 -10.19792 -10.19751 -10.19683
 Alpha  occ. eigenvalues --  -10.19547 -10.18931 -10.18812 -10.18556 -10.18360
 Alpha  occ. eigenvalues --  -10.18229 -10.16855 -10.16569  -1.10870  -1.10558
 Alpha  occ. eigenvalues --   -1.07238  -1.02227  -1.01601  -1.00087  -0.98684
 Alpha  occ. eigenvalues --   -0.97779  -0.97396  -0.90869  -0.83035  -0.82218
 Alpha  occ. eigenvalues --   -0.81758  -0.80984  -0.79933  -0.79230  -0.77671
 Alpha  occ. eigenvalues --   -0.77438  -0.76909  -0.76072  -0.74323  -0.72522
 Alpha  occ. eigenvalues --   -0.71218  -0.70099  -0.68579  -0.68110  -0.67798
 Alpha  occ. eigenvalues --   -0.67650  -0.66146  -0.64399  -0.63460  -0.62027
 Alpha  occ. eigenvalues --   -0.61243  -0.60810  -0.59800  -0.57541  -0.56762
 Alpha  occ. eigenvalues --   -0.55927  -0.55154  -0.54654  -0.53817  -0.53075
 Alpha  occ. eigenvalues --   -0.52299  -0.51225  -0.50642  -0.50200  -0.49468
 Alpha  occ. eigenvalues --   -0.49379  -0.48797  -0.48167  -0.47987  -0.47889
 Alpha  occ. eigenvalues --   -0.47357  -0.47100  -0.46467  -0.46084  -0.45600
 Alpha  occ. eigenvalues --   -0.45296  -0.44517  -0.44278  -0.44069  -0.43617
 Alpha  occ. eigenvalues --   -0.43452  -0.43192  -0.42872  -0.42666  -0.42530
 Alpha  occ. eigenvalues --   -0.42276  -0.41924  -0.41456  -0.41274  -0.40910
 Alpha  occ. eigenvalues --   -0.40698  -0.40624  -0.40304  -0.39749  -0.39691
 Alpha  occ. eigenvalues --   -0.39381  -0.39187  -0.38682  -0.38279  -0.38208
 Alpha  occ. eigenvalues --   -0.37856  -0.37744  -0.37111  -0.36753  -0.36497
 Alpha  occ. eigenvalues --   -0.36291  -0.36201  -0.35581  -0.35526  -0.35102
 Alpha  occ. eigenvalues --   -0.34775  -0.33788  -0.33685  -0.33302  -0.33236
 Alpha  occ. eigenvalues --   -0.32815  -0.32443  -0.31757  -0.29846  -0.29757
 Alpha  occ. eigenvalues --   -0.27853  -0.26832  -0.26221  -0.25891  -0.25543
 Alpha  occ. eigenvalues --   -0.25231  -0.24432  -0.23137  -0.22113  -0.21190
 Alpha  occ. eigenvalues --   -0.18057
 Alpha virt. eigenvalues --   -0.10618  -0.06203  -0.04532  -0.03045  -0.01018
 Alpha virt. eigenvalues --    0.01207   0.02048   0.02235   0.03073   0.03551
 Alpha virt. eigenvalues --    0.03719   0.04158   0.04918   0.05211   0.05970

 Mulliken charges:
               1
     1  O   -0.143035
     2  O   -0.185851
     3  O   -0.172251
     4  O   -0.239622
     5  O   -0.198343
     6  O   -0.229736
     7  N   -0.003603
     8  N   -0.098730
     9  N   -0.053282
    10  N   -0.285976
    11  C   -0.079696
    12  C    0.116368
    13  C   -0.120676
    14  C    0.084667
    15  C   -0.068956
    16  C    0.010432
    17  C   -0.122977
    18  C   -0.158202
    19  C    0.013028
    20  C   -0.189565
    21  C    0.028951
    22  C    0.120516
    23  C   -0.003491
    24  C    0.177421
    25  C    0.019593
    26  C   -0.014110
    27  C    0.108490
    28  C   -0.101677
    29  C    0.002969
    30  C    0.089004
    31  C   -0.179586
    32  C    0.003549
    33  C   -0.156418
    34  C    0.142151
    35  C   -0.139577
    36  C   -0.220523
    37  C    0.182265
    38  C    0.041262
    39  C    0.099350
    40  C    0.236541
    41  C    0.100646
    42  C    0.152137
    43  C    0.002511
    44  H    0.050109
    45  H    0.086619
    46  H    0.040603
    47  H    0.039317
    48  H    0.070063
    49  H    0.005415
    50  H   -0.006161
    51  H   -0.052901
    52  H    0.174339
    53  H    0.010080
    54  H    0.035450
    55  H    0.044262
    56  H    0.117924
    57  H    0.061491
    58  H    0.075744
    59  H    0.074251
    60  H   -0.035415
    61  H    0.022728
    62  H    0.014912
    63  H    0.031324
    64  H    0.011349
    65  H    0.006910
    66  H    0.054682
    67  H    0.011098
    68  H    0.006735
    69  H    0.086116
    70  H    0.017249
    71  H    0.046166
    72  H   -0.075112
    73  H    0.008896
    74  H    0.001424
    75  H   -0.008143
    76  H    0.013481
    77  H   -0.003774
    78  H   -0.010609
    79  H    0.025568
    80  H    0.202155
    81  H    0.179688
 Sum of Mulliken charges =  -0.00000

 Dipole moment (field-independent basis, Debye):
    X=              3.6062    Y=              0.5980    Z=              1.0672  Tot=              3.8081
 Quadrupole moment (field-independent basis, Debye-Ang):
   XX=           -247.9003   YY=           -239.4324   ZZ=           -254.0117
   XY=            -12.0828   XZ=             19.8531   YZ=             11.1685

 Normal termination of Gaussian 16 at Tue Jul  2 18:19:24 2019.
