 Gaussian 16, Revision A.03,
 Gaussian 16:  ES64L-G16RevA.03 25-Dec-2016

 --------------------------
 # td=(NStates=1) B3LYP/SVP
 --------------------------

 --
 TD
 --
 Symbolic Z-matrix:
 Charge =  0 Multiplicity = 1

                         Standard orientation:
 ---------------------------------------------------------------------
 Center     Atomic      Atomic             Coordinates (Angstroms)
 Number     Number       Type             X           Y           Z
 ---------------------------------------------------------------------
      1          8           0       -4.487221   -4.672737    1.948339
      2          8           0        2.801551   -4.691752    1.334428
      3          8           0        7.015923   -1.392892    2.049386
      4          8           0        3.750394   -3.153345    0.047707
      5          8           0        7.662485   -0.587267    0.054565
      6          8           0       -2.894207    2.459805   -0.427675
      7          7           0       -0.324020   -0.570190   -0.738739
      8          7           0        1.557232    1.746879   -0.506936
      9          7           0       -3.382124   -3.062021    0.657422
     10          7           0       -0.640894    2.936036   -0.032357
     11          6           0        0.557357   -2.535722   -1.440550
     12          6           0        0.900430   -1.265706   -1.068860
     13          6           0       -0.878598   -2.686293   -1.335515
     14          6           0       -1.337132   -1.463525   -0.839134
     15          6           0        3.784940    1.291555   -0.356992
     16          6           0        2.447409    0.758186   -0.785604
     17          6           0        2.135624   -0.554069   -1.059514
     18          6           0        3.560558    2.673688    0.051830
     19          6           0        1.581604   -3.425349   -1.918377
     20          6           0       -5.590799   -2.438184    1.380003
     21          6           0       -3.606706   -1.848103    0.109403
     22          6           0        2.164610    2.910709   -0.127938
     23          6           0       -5.029353   -1.467679    0.388766
     24          6           0        5.105949    0.492926   -0.498665
     25          6           0       -2.684024   -1.094313   -0.436157
     26          6           0       -1.571301   -3.933728   -1.798078
     27          6           0       -4.476014   -3.610267    1.348762
     28          6           0        1.956447   -4.432890   -0.852792
     29          6           0        5.395235   -0.281802    0.767586
     30          6           0        4.620270    3.644694    0.423298
     31          6           0        1.375907    4.096049    0.121256
     32          6           0       -7.013908   -3.092532    1.293653
     33          6           0       -5.820285   -0.524724   -0.223501
     34          6           0        0.008801    4.103498    0.197495
     35          6           0       -0.808722    5.219310    0.502560
     36          6           0       -2.161176    4.718288    0.371654
     37          6           0        2.947762   -4.028844    0.209092
     38          6           0       -5.516480    0.554011   -1.174293
     39          6           0        6.840147   -0.787790    0.913921
     40          6           0       -3.467370    5.435936    0.589307
     41          6           0       -1.955013    3.256173   -0.130560
     42          6           0       -0.462582    6.556811    0.847222
     43          6           0       -4.294594    5.645710   -0.806235
     44          1           0       -0.460796    0.242859   -0.149054
     45          1           0        2.894953   -1.291505   -1.223802
     46          1           0        2.483466   -3.004797   -2.436050
     47          1           0        1.142280   -4.015952   -2.822070
     48          1           0       -5.578528   -2.208042    2.565584
     49          1           0        4.935062   -0.050555   -1.460478
     50          1           0        5.971903    1.231100   -0.773824
     51          1           0       -3.038340   -0.124064   -0.364080
     52          1           0        0.566343    1.775890   -0.709744
     53          1           0       -1.683033   -4.848042   -1.246637
     54          1           0       -2.423768   -3.635822   -2.208816
     55          1           0       -1.020696   -4.136847   -2.649510
     56          1           0       -2.359084   -3.480766    0.739254
     57          1           0        1.025178   -4.915211   -0.250663
     58          1           0        2.440150   -5.340002   -1.167896
     59          1           0        4.688357   -1.060403    0.733351
     60          1           0        5.422027    0.598893    1.664795
     61          1           0        4.580679    4.646566   -0.241323
     62          1           0        5.674806    3.275406    0.377880
     63          1           0        4.599033    3.918141    1.486090
     64          1           0        1.999715    4.864025    0.475692
     65          1           0       -7.762637   -2.221918    1.579697
     66          1           0       -7.316550   -3.972778    2.152932
     67          1           0       -7.239681   -3.463619    0.153492
     68          1           0       -6.754606   -0.369800    0.214667
     69          1           0       -4.918399    1.365660   -0.540982
     70          1           0       -6.192009    0.952375   -1.657056
     71          1           0       -4.634864    0.292845   -1.986845
     72          1           0       -3.369110    6.444750    1.021299
     73          1           0       -4.124740    4.912932    1.403512
     74          1           0        0.040190    6.470656    1.998197
     75          1           0       -1.249828    7.171088    0.731685
     76          1           0        0.292766    6.801632    0.107557
     77          1           0       -3.614349    6.141128   -1.506345
     78          1           0       -5.211363    6.353386   -0.378212
     79          1           0       -4.789408    4.637691   -1.130713
     80          1           0        3.605342   -4.504692    1.848719
     81          1           0        7.862828   -1.817786    1.961692
 ---------------------------------------------------------------------

 SCF Done:  E(RB3LYP) =  -1949.10008802     A.U. after   17 cycles

 Excitation energies and oscillator strengths:

 Excited State   1:      Singlet-A      1.8968 eV  653.65 nm  f=0.3298  <S**2>=0.000
     156 ->157         0.69979
     156 <-157        -0.10787
 This state for optimization and/or second-order correction.
 Total Energy, E(TD-HF/TD-DFT) =  -1949.03038158
 Copying the excited state density for this state as the 1-particle RhoCI density.

 The electronic state is 1-A.
 Alpha  occ. eigenvalues --  -19.20677 -19.19823 -19.14301 -19.12427 -19.11368
 Alpha  occ. eigenvalues --  -19.08290 -14.37422 -14.37021 -14.35602 -14.27048
 Alpha  occ. eigenvalues --  -10.33558 -10.31937 -10.29394 -10.25109 -10.23958
 Alpha  occ. eigenvalues --  -10.23776 -10.23546 -10.23539 -10.22915 -10.22625
 Alpha  occ. eigenvalues --  -10.22071 -10.22030 -10.21917 -10.21767 -10.21462
 Alpha  occ. eigenvalues --  -10.21290 -10.20988 -10.20752 -10.20745 -10.20633
 Alpha  occ. eigenvalues --  -10.20411 -10.20079 -10.20014 -10.19934 -10.19735
 Alpha  occ. eigenvalues --  -10.19681 -10.18925 -10.18913 -10.18528 -10.18125
 Alpha  occ. eigenvalues --  -10.17740 -10.17482 -10.17018  -1.13340  -1.12681
 Alpha  occ. eigenvalues --   -1.03365  -1.02891  -1.01741  -0.98390  -0.97592
 Alpha  occ. eigenvalues --   -0.97274  -0.95471  -0.90610  -0.84059  -0.81354
 Alpha  occ. eigenvalues --   -0.80939  -0.80891  -0.79244  -0.79004  -0.78434
 Alpha  occ. eigenvalues --   -0.77031  -0.76211  -0.74733  -0.74361  -0.73178
 Alpha  occ. eigenvalues --   -0.71254  -0.70238  -0.69338  -0.68253  -0.67694
 Alpha  occ. eigenvalues --   -0.66880  -0.65354  -0.63777  -0.62497  -0.61913
 Alpha  occ. eigenvalues --   -0.61090  -0.59951  -0.58925  -0.57309  -0.56748
 Alpha  occ. eigenvalues --   -0.56088  -0.55219  -0.54491  -0.53788  -0.53246
 Alpha  occ. eigenvalues --   -0.52095  -0.51524  -0.51198  -0.50844  -0.50468
 Alpha  occ. eigenvalues --   -0.50071  -0.49081  -0.48824  -0.48786  -0.48113
 Alpha  occ. eigenvalues --   -0.47221  -0.46423  -0.45903  -0.45809  -0.45275
 Alpha  occ. eigenvalues --   -0.44994  -0.44587  -0.44112  -0.44009  -0.43714
 Alpha  occ. eigenvalues --   -0.43510  -0.43305  -0.42593  -0.42279  -0.42238
 Alpha  occ. eigenvalues --   -0.41800  -0.41613  -0.41486  -0.41104  -0.40958
 Alpha  occ. eigenvalues --   -0.40838  -0.40621  -0.40414  -0.39840  -0.39597
 Alpha  occ. eigenvalues --   -0.38869  -0.38666  -0.38609  -0.38392  -0.38139
 Alpha  occ. eigenvalues --   -0.37540  -0.36973  -0.36652  -0.36363  -0.36011
 Alpha  occ. eigenvalues --   -0.35571  -0.35495  -0.35278  -0.35037  -0.34597
 Alpha  occ. eigenvalues --   -0.34475  -0.33742  -0.33612  -0.33375  -0.33232
 Alpha  occ. eigenvalues --   -0.33053  -0.32450  -0.31946  -0.29938  -0.29712
 Alpha  occ. eigenvalues --   -0.27715  -0.26748  -0.26306  -0.25949  -0.25358
 Alpha  occ. eigenvalues --   -0.24617  -0.24206  -0.22398  -0.21689  -0.20685
 Alpha  occ. eigenvalues --   -0.18080
 Alpha virt. eigenvalues --   -0.10442  -0.05444  -0.03814  -0.00833  -0.00578
 Alpha virt. eigenvalues --    0.00907   0.01981   0.02474   0.03471   0.03756
 Alpha virt. eigenvalues --    0.04271   0.04475   0.05058   0.05425   0.05865

 Mulliken charges:
               1
     1  O   -0.210859
     2  O   -0.139035
     3  O   -0.115637
     4  O   -0.218581
     5  O   -0.225504
     6  O   -0.271478
     7  N   -0.096746
     8  N   -0.038868
     9  N   -0.142948
    10  N   -0.296263
    11  C   -0.037873
    12  C    0.007064
    13  C   -0.221429
    14  C    0.077399
    15  C   -0.130696
    16  C    0.115510
    17  C   -0.010363
    18  C   -0.100463
    19  C    0.074254
    20  C   -0.121726
    21  C    0.088517
    22  C    0.036388
    23  C    0.017204
    24  C    0.059001
    25  C   -0.076480
    26  C    0.241183
    27  C    0.138776
    28  C   -0.009527
    29  C   -0.001539
    30  C    0.045769
    31  C   -0.110668
    32  C   -0.068454
    33  C   -0.094604
    34  C    0.156654
    35  C   -0.140302
    36  C   -0.156337
    37  C    0.088674
    38  C    0.082386
    39  C    0.100957
    40  C    0.015306
    41  C    0.159985
    42  C    0.152305
    43  C   -0.070923
    44  H    0.147502
    45  H   -0.017988
    46  H    0.034752
    47  H    0.010726
    48  H    0.063642
    49  H    0.028048
    50  H    0.030280
    51  H   -0.040486
    52  H    0.126640
    53  H    0.030092
    54  H   -0.032671
    55  H   -0.035519
    56  H    0.172999
    57  H    0.051332
    58  H    0.027272
    59  H    0.036930
    60  H    0.058366
    61  H    0.048545
    62  H    0.013202
    63  H    0.019948
    64  H   -0.057990
    65  H    0.031857
    66  H    0.067419
    67  H    0.040898
    68  H   -0.021156
    69  H    0.102715
    70  H   -0.063561
    71  H    0.040131
    72  H   -0.005317
    73  H    0.026997
    74  H    0.047655
    75  H   -0.021117
    76  H    0.015297
    77  H    0.034876
    78  H    0.023567
    79  H    0.065795
    80  H    0.183361
    81  H    0.164932
 Sum of Mulliken charges =  -0.00000

 Dipole moment (field-independent basis, Debye):
    X=              3.7655    Y=             -1.5381    Z=              0.8476  Tot=              4.1549
 Quadrupole moment (field-independent basis, Debye-Ang):
   XX=           -250.6799   YY=           -237.9216   ZZ=           -252.7640
   XY=            -22.2268   XZ=             16.0837   YZ=             12.1027

 Normal termination of Gaussian 16 at Wed Jul  3 05:50:05 2019.
