 Gaussian 16, Revision A.03,
 Gaussian 16:  ES64L-G16RevA.03 25-Dec-2016

 --------------------------
 # td=(NStates=1) B3LYP/SVP
 --------------------------

 --
 TD
 --
 Symbolic Z-matrix:
 Charge =  0 Multiplicity = 1

                         Standard orientation:
 ---------------------------------------------------------------------
 Center     Atomic      Atomic             Coordinates (Angstroms)
 Number     Number       Type             X           Y           Z
 ---------------------------------------------------------------------
      1          8           0        4.645037   -4.691156   -1.803029
      2          8           0       -2.625831   -4.665954   -1.514317
      3          8           0       -7.307649   -1.645082   -1.637696
      4          8           0       -3.795270   -3.195720   -0.193189
      5          8           0       -7.755684   -0.614713    0.303152
      6          8           0        3.071783    2.585721    0.179948
      7          7           0        0.339432   -0.579030    0.613519
      8          7           0       -1.520632    1.702328    0.345114
      9          7           0        3.421811   -3.098844   -0.654244
     10          7           0        0.703405    2.917604    0.048940
     11          6           0       -0.552242   -2.461355    1.368175
     12          6           0       -0.885380   -1.134910    0.969047
     13          6           0        0.846583   -2.629074    1.350559
     14          6           0        1.396367   -1.417700    0.791733
     15          6           0       -3.776340    1.289151    0.367774
     16          6           0       -2.517401    0.649224    0.531011
     17          6           0       -2.178236   -0.599777    0.782697
     18          6           0       -3.579488    2.623723   -0.024988
     19          6           0       -1.655429   -3.490230    1.850480
     20          6           0        5.587836   -2.522811   -1.354480
     21          6           0        3.664529   -1.848452   -0.147812
     22          6           0       -2.062178    2.874216   -0.002712
     23          6           0        5.133208   -1.538930   -0.338970
     24          6           0       -5.155710    0.671824    0.342845
     25          6           0        2.662900   -0.970985    0.359547
     26          6           0        1.593530   -3.843890    1.878541
     27          6           0        4.558667   -3.574475   -1.284703
     28          6           0       -1.928379   -4.550075    0.768480
     29          6           0       -5.678812   -0.126290   -0.641976
     30          6           0       -4.563848    3.725164   -0.349737
     31          6           0       -1.367377    3.966289   -0.295723
     32          6           0        7.035036   -3.159178   -1.088072
     33          6           0        5.790710   -0.475503    0.264195
     34          6           0        0.021581    3.995743   -0.202985
     35          6           0        0.882393    5.204282   -0.550864
     36          6           0        2.149776    4.732313   -0.380714
     37          6           0       -2.850819   -4.017395   -0.306164
     38          6           0        5.477284    0.536687    1.381707
     39          6           0       -7.021640   -0.780216   -0.624979
     40          6           0        3.373734    5.494937   -0.503932
     41          6           0        2.088748    3.243547    0.046127
     42          6           0        0.483382    6.582608   -0.813373
     43          6           0        4.034751    5.771654    0.829920
     44          1           0        0.630567    0.479430    0.380579
     45          1           0       -3.059055   -1.180210    0.949994
     46          1           0       -2.523605   -2.927053    2.292764
     47          1           0       -1.193342   -4.219263    2.658643
     48          1           0        5.443936   -2.123672   -2.295244
     49          1           0       -5.071293   -0.021502    1.146637
     50          1           0       -5.706516    1.417283    0.762868
     51          1           0        2.994891   -0.132083    0.459628
     52          1           0       -0.516649    1.642609    0.249273
     53          1           0        1.745441   -4.570387    1.101343
     54          1           0        2.688077   -3.519113    2.133658
     55          1           0        0.970727   -4.275817    2.732951
     56          1           0        2.622970   -3.734288   -0.648301
     57          1           0       -1.085128   -4.958473    0.173848
     58          1           0       -2.380237   -5.451416    1.169926
     59          1           0       -4.953405   -0.990964   -0.908605
     60          1           0       -5.308695    0.402468   -1.568972
     61          1           0       -4.289669    4.650071    0.060230
     62          1           0       -5.673539    3.408941   -0.113217
     63          1           0       -4.538657    3.930220   -1.595600
     64          1           0       -1.666155    4.932462   -0.597657
     65          1           0        7.597816   -2.210908   -0.906029
     66          1           0        7.301327   -3.843335   -1.960025
     67          1           0        7.135855   -3.665552   -0.149629
     68          1           0        6.950021   -0.320695   -0.218359
     69          1           0        4.609738    1.194950    0.828417
     70          1           0        6.257265    1.077590    1.848273
     71          1           0        4.759452   -0.001540    2.157408
     72          1           0        3.122271    6.328735   -1.277731
     73          1           0        4.212333    4.757647   -0.988678
     74          1           0       -0.472102    6.610601   -1.539949
     75          1           0        1.362539    6.978187   -1.225655
     76          1           0       -0.030738    7.402572    0.126266
     77          1           0        3.513004    6.325821    1.551621
     78          1           0        4.958993    6.428651    0.718639
     79          1           0        4.393173    4.774684    1.332506
     80          1           0       -3.216400   -4.525621   -2.199636
     81          1           0       -8.098835   -2.170906   -1.618348
 ---------------------------------------------------------------------

 SCF Done:  E(RB3LYP) =  -1949.06067456     A.U. after   16 cycles

 Excitation energies and oscillator strengths:

 Excited State   1:      Singlet-A      1.9608 eV  632.32 nm  f=0.3521  <S**2>=0.000
     156 ->157         0.70466
 This state for optimization and/or second-order correction.
 Total Energy, E(TD-HF/TD-DFT) =  -1948.98861695
 Copying the excited state density for this state as the 1-particle RhoCI density.

 The electronic state is 1-A.
 Alpha  occ. eigenvalues --  -19.18389 -19.17134 -19.14138 -19.12308 -19.11776
 Alpha  occ. eigenvalues --  -19.10771 -14.37908 -14.37753 -14.35192 -14.29516
 Alpha  occ. eigenvalues --  -10.34011 -10.32120 -10.28774 -10.27810 -10.25061
 Alpha  occ. eigenvalues --  -10.23844 -10.23105 -10.22854 -10.22713 -10.22691
 Alpha  occ. eigenvalues --  -10.22683 -10.22673 -10.22324 -10.21892 -10.21516
 Alpha  occ. eigenvalues --  -10.21051 -10.20815 -10.20738 -10.20679 -10.20500
 Alpha  occ. eigenvalues --  -10.20361 -10.20310 -10.20173 -10.20014 -10.19977
 Alpha  occ. eigenvalues --  -10.19632 -10.19538 -10.19521 -10.18646 -10.18617
 Alpha  occ. eigenvalues --  -10.17992 -10.17483 -10.17215  -1.08916  -1.08753
 Alpha  occ. eigenvalues --   -1.04302  -1.03212  -1.00478  -1.00088  -0.97882
 Alpha  occ. eigenvalues --   -0.96825  -0.95728  -0.92767  -0.84042  -0.82131
 Alpha  occ. eigenvalues --   -0.82057  -0.81338  -0.80870  -0.78951  -0.78163
 Alpha  occ. eigenvalues --   -0.77805  -0.76866  -0.75254  -0.74520  -0.72513
 Alpha  occ. eigenvalues --   -0.70920  -0.69573  -0.68883  -0.68447  -0.68234
 Alpha  occ. eigenvalues --   -0.67354  -0.65784  -0.65042  -0.63164  -0.62618
 Alpha  occ. eigenvalues --   -0.61580  -0.61192  -0.59439  -0.58623  -0.57022
 Alpha  occ. eigenvalues --   -0.56563  -0.55410  -0.54803  -0.53538  -0.52973
 Alpha  occ. eigenvalues --   -0.52661  -0.52262  -0.51682  -0.51400  -0.49734
 Alpha  occ. eigenvalues --   -0.49478  -0.48937  -0.48604  -0.47930  -0.47600
 Alpha  occ. eigenvalues --   -0.46949  -0.46674  -0.46323  -0.45510  -0.45370
 Alpha  occ. eigenvalues --   -0.45116  -0.44678  -0.44345  -0.43854  -0.43444
 Alpha  occ. eigenvalues --   -0.43321  -0.43002  -0.42723  -0.42608  -0.42446
 Alpha  occ. eigenvalues --   -0.42338  -0.42068  -0.41574  -0.41145  -0.40895
 Alpha  occ. eigenvalues --   -0.40817  -0.40294  -0.40218  -0.39816  -0.39727
 Alpha  occ. eigenvalues --   -0.39461  -0.39147  -0.38713  -0.38593  -0.38477
 Alpha  occ. eigenvalues --   -0.38235  -0.38023  -0.37578  -0.37339  -0.37148
 Alpha  occ. eigenvalues --   -0.36737  -0.35689  -0.35567  -0.35425  -0.34948
 Alpha  occ. eigenvalues --   -0.34407  -0.33801  -0.33588  -0.32975  -0.32784
 Alpha  occ. eigenvalues --   -0.32135  -0.32093  -0.31022  -0.30167  -0.29162
 Alpha  occ. eigenvalues --   -0.28997  -0.27423  -0.26488  -0.26345  -0.25102
 Alpha  occ. eigenvalues --   -0.24998  -0.24603  -0.24307  -0.23384  -0.21833
 Alpha  occ. eigenvalues --   -0.17660
 Alpha virt. eigenvalues --   -0.09672  -0.06042  -0.04051  -0.02692  -0.00235
 Alpha virt. eigenvalues --    0.00790   0.01685   0.02568   0.03298   0.04316
 Alpha virt. eigenvalues --    0.04688   0.04843   0.05346   0.05446   0.05977

 Mulliken charges:
               1
     1  O   -0.234703
     2  O   -0.188460
     3  O   -0.199673
     4  O   -0.255338
     5  O   -0.201344
     6  O   -0.167925
     7  N   -0.152806
     8  N   -0.111741
     9  N   -0.087528
    10  N   -0.317662
    11  C   -0.117428
    12  C    0.120933
    13  C   -0.177186
    14  C    0.117110
    15  C   -0.131458
    16  C    0.106861
    17  C   -0.057047
    18  C   -0.125582
    19  C    0.062678
    20  C    0.015391
    21  C    0.014466
    22  C    0.193643
    23  C   -0.035381
    24  C    0.208171
    25  C    0.103679
    26  C    0.065187
    27  C    0.073356
    28  C    0.039540
    29  C    0.018636
    30  C    0.046111
    31  C   -0.116133
    32  C    0.075112
    33  C   -0.188078
    34  C    0.010379
    35  C   -0.054008
    36  C   -0.171139
    37  C    0.154215
    38  C   -0.011341
    39  C    0.165972
    40  C    0.004889
    41  C    0.189266
    42  C    0.008988
    43  C   -0.012769
    44  H    0.195731
    45  H   -0.024012
    46  H    0.049359
    47  H    0.016676
    48  H    0.026850
    49  H   -0.032755
    50  H   -0.029106
    51  H   -0.217487
    52  H    0.110549
    53  H    0.005731
    54  H    0.040988
    55  H    0.036585
    56  H    0.139924
    57  H    0.038442
    58  H    0.044144
    59  H    0.041306
    60  H    0.007277
    61  H    0.021858
    62  H    0.044246
    63  H    0.037894
    64  H   -0.068317
    65  H    0.006550
    66  H    0.055014
    67  H    0.005448
    68  H    0.030199
    69  H    0.124298
    70  H    0.025950
    71  H    0.043616
    72  H    0.027246
    73  H    0.027212
    74  H    0.037815
    75  H    0.000419
    76  H    0.053157
    77  H   -0.002259
    78  H    0.011123
    79  H    0.046875
    80  H    0.160592
    81  H    0.181010
 Sum of Mulliken charges =  -0.00000

 Dipole moment (field-independent basis, Debye):
    X=             -1.2717    Y=              0.1967    Z=             -0.6312  Tot=              1.4332
 Quadrupole moment (field-independent basis, Debye-Ang):
   XX=           -260.1322   YY=           -236.1334   ZZ=           -254.3344
   XY=             20.9594   XZ=             19.6311   YZ=             -8.5424

 Normal termination of Gaussian 16 at Thu Jun 27 21:59:22 2019.
