 Gaussian 16, Revision A.03,
 Gaussian 16:  ES64L-G16RevA.03 25-Dec-2016

 --------------------------
 # td=(NStates=1) B3LYP/SVP
 --------------------------

 --
 TD
 --
 Symbolic Z-matrix:
 Charge =  0 Multiplicity = 1

                         Standard orientation:
 ---------------------------------------------------------------------
 Center     Atomic      Atomic             Coordinates (Angstroms)
 Number     Number       Type             X           Y           Z
 ---------------------------------------------------------------------
      1          8           0        4.579616   -4.835561   -1.812604
      2          8           0       -2.937452   -4.737664   -1.271184
      3          8           0       -6.896414   -1.489876   -2.072169
      4          8           0       -3.879160   -3.100808   -0.004875
      5          8           0       -7.561857   -0.620350    0.039033
      6          8           0        3.012208    2.404972    0.028812
      7          7           0        0.309970   -0.574436    0.473434
      8          7           0       -1.536538    1.767435    0.432478
      9          7           0        3.419116   -3.163295   -0.634449
     10          7           0        0.740792    2.937325    0.221405
     11          6           0       -0.661174   -2.454825    1.405982
     12          6           0       -0.938346   -1.148003    0.937161
     13          6           0        0.704388   -2.700110    1.211310
     14          6           0        1.263574   -1.480008    0.707970
     15          6           0       -3.754342    1.419108    0.344185
     16          6           0       -2.486958    0.819042    0.556823
     17          6           0       -2.153385   -0.576002    0.922519
     18          6           0       -3.623137    2.756582    0.080804
     19          6           0       -1.614114   -3.522354    1.922084
     20          6           0        5.629960   -2.584593   -1.350803
     21          6           0        3.656120   -1.860791   -0.062371
     22          6           0       -2.139672    2.990449    0.084521
     23          6           0        5.041264   -1.463843   -0.359733
     24          6           0       -5.057300    0.681278    0.367911
     25          6           0        2.655657   -1.052028    0.384254
     26          6           0        1.410395   -3.836381    1.820022
     27          6           0        4.546302   -3.688773   -1.326681
     28          6           0       -2.055633   -4.606611    0.857880
     29          6           0       -5.333177   -0.174015   -0.779735
     30          6           0       -4.562262    3.781257   -0.151639
     31          6           0       -1.359068    4.094738   -0.236672
     32          6           0        6.984148   -3.214582   -0.875543
     33          6           0        5.742626   -0.428650    0.073892
     34          6           0        0.106744    4.020361   -0.137605
     35          6           0        0.997515    5.182708   -0.523216
     36          6           0        2.240029    4.772389   -0.403759
     37          6           0       -3.085144   -4.031683   -0.173327
     38          6           0        5.332928    0.501224    1.080901
     39          6           0       -6.769622   -0.790604   -0.833790
     40          6           0        3.487797    5.438117   -0.557675
     41          6           0        2.132354    3.261025   -0.000319
     42          6           0        0.404788    6.578001   -0.728497
     43          6           0        4.150442    5.740854    0.807661
     44          1           0        0.676475    0.439711    0.366915
     45          1           0       -3.119832   -1.147517    0.918457
     46          1           0       -2.367310   -3.079899    2.341196
     47          1           0       -1.102274   -4.039240    2.917873
     48          1           0        5.813297   -2.104290   -2.301521
     49          1           0       -5.373434    0.012650    1.132299
     50          1           0       -5.883572    1.214062    0.648297
     51          1           0        2.951958    0.034519    0.568874
     52          1           0       -0.380303    1.728540    0.456147
     53          1           0        1.401003   -4.787837    1.234712
     54          1           0        2.539426   -3.826878    1.999067
     55          1           0        0.997910   -3.971197    2.841370
     56          1           0        2.662518   -3.605932   -0.753645
     57          1           0       -1.406835   -4.975115    0.367635
     58          1           0       -2.510500   -5.439762    1.505389
     59          1           0       -4.529046   -1.114610   -0.890330
     60          1           0       -5.059228    0.348752   -1.749446
     61          1           0       -4.738848    4.635205    0.695641
     62          1           0       -5.584533    3.453709   -0.385919
     63          1           0       -4.266049    4.378394   -1.114442
     64          1           0       -2.066011    4.974469   -0.545125
     65          1           0        7.849857   -2.505907   -0.941002
     66          1           0        7.138548   -4.034193   -1.535775
     67          1           0        6.998421   -3.594069    0.163942
     68          1           0        6.645065   -0.303143   -0.454386
     69          1           0        4.915480    1.413438    0.658803
     70          1           0        6.406161    0.774759    1.678415
     71          1           0        4.675644    0.196489    1.762864
     72          1           0        3.609179    6.386815   -0.883755
     73          1           0        4.023546    4.603238   -1.063265
     74          1           0       -0.357265    6.584417   -1.664645
     75          1           0        1.205988    7.422781   -0.757345
     76          1           0       -0.128170    6.691359    0.307131
     77          1           0        3.717118    6.549373    1.240244
     78          1           0        5.300015    5.961054    0.612859
     79          1           0        4.359904    4.819981    1.453149
     80          1           0       -3.647649   -4.461867   -1.898973
     81          1           0       -7.797734   -1.906830   -2.024969
 ---------------------------------------------------------------------

 SCF Done:  E(RB3LYP) =  -1949.06791222     A.U. after   16 cycles

 Excitation energies and oscillator strengths:

 Excited State   1:      Singlet-A      1.8500 eV  670.20 nm  f=0.4184  <S**2>=0.000
     156 ->157         0.71352
     156 <-157        -0.14638
 This state for optimization and/or second-order correction.
 Total Energy, E(TD-HF/TD-DFT) =  -1948.99992708
 Copying the excited state density for this state as the 1-particle RhoCI density.

 The electronic state is 1-A.
 Alpha  occ. eigenvalues --  -19.21331 -19.18105 -19.14732 -19.14349 -19.11998
 Alpha  occ. eigenvalues --  -19.11517 -14.38318 -14.36013 -14.34609 -14.30545
 Alpha  occ. eigenvalues --  -10.34302 -10.32570 -10.29859 -10.28277 -10.24667
 Alpha  occ. eigenvalues --  -10.24004 -10.23385 -10.23050 -10.22727 -10.22126
 Alpha  occ. eigenvalues --  -10.21789 -10.21280 -10.21271 -10.21072 -10.20444
 Alpha  occ. eigenvalues --  -10.20289 -10.20127 -10.20095 -10.19877 -10.19759
 Alpha  occ. eigenvalues --  -10.19646 -10.19472 -10.19459 -10.19359 -10.19218
 Alpha  occ. eigenvalues --  -10.19011 -10.18883 -10.18804 -10.18718 -10.18562
 Alpha  occ. eigenvalues --  -10.18191 -10.17820 -10.17344  -1.12612  -1.08157
 Alpha  occ. eigenvalues --   -1.02265  -1.02082  -1.02008  -1.01284  -0.98062
 Alpha  occ. eigenvalues --   -0.95937  -0.94101  -0.92489  -0.82874  -0.82200
 Alpha  occ. eigenvalues --   -0.81921  -0.81391  -0.80195  -0.78553  -0.78075
 Alpha  occ. eigenvalues --   -0.76962  -0.76102  -0.75676  -0.74952  -0.71635
 Alpha  occ. eigenvalues --   -0.70590  -0.69731  -0.69360  -0.68734  -0.66419
 Alpha  occ. eigenvalues --   -0.66123  -0.65644  -0.64028  -0.62996  -0.62678
 Alpha  occ. eigenvalues --   -0.61066  -0.58546  -0.57948  -0.57523  -0.56985
 Alpha  occ. eigenvalues --   -0.55789  -0.55600  -0.55355  -0.54434  -0.53252
 Alpha  occ. eigenvalues --   -0.52396  -0.51852  -0.51159  -0.50797  -0.49532
 Alpha  occ. eigenvalues --   -0.49206  -0.48696  -0.48500  -0.48285  -0.47366
 Alpha  occ. eigenvalues --   -0.46937  -0.46600  -0.45851  -0.45634  -0.45491
 Alpha  occ. eigenvalues --   -0.45278  -0.44585  -0.44283  -0.44008  -0.43689
 Alpha  occ. eigenvalues --   -0.43244  -0.43128  -0.42966  -0.42666  -0.42453
 Alpha  occ. eigenvalues --   -0.42239  -0.41801  -0.41549  -0.41127  -0.40673
 Alpha  occ. eigenvalues --   -0.40546  -0.40225  -0.40095  -0.39832  -0.39760
 Alpha  occ. eigenvalues --   -0.39436  -0.38762  -0.38539  -0.38389  -0.38146
 Alpha  occ. eigenvalues --   -0.38016  -0.37484  -0.37283  -0.37106  -0.36847
 Alpha  occ. eigenvalues --   -0.36586  -0.35578  -0.35287  -0.34937  -0.34741
 Alpha  occ. eigenvalues --   -0.34639  -0.34363  -0.34043  -0.33535  -0.33207
 Alpha  occ. eigenvalues --   -0.32829  -0.32595  -0.30533  -0.29866  -0.29515
 Alpha  occ. eigenvalues --   -0.28957  -0.28706  -0.26305  -0.26215  -0.26064
 Alpha  occ. eigenvalues --   -0.25551  -0.25170  -0.24312  -0.23868  -0.21778
 Alpha  occ. eigenvalues --   -0.16614
 Alpha virt. eigenvalues --   -0.09670  -0.05596  -0.03529  -0.02146  -0.00733
 Alpha virt. eigenvalues --    0.00074   0.02630   0.03056   0.03726   0.04109
 Alpha virt. eigenvalues --    0.04301   0.04544   0.05201   0.05363   0.05863

 Mulliken charges:
               1
     1  O   -0.238946
     2  O   -0.139036
     3  O   -0.248289
     4  O   -0.238263
     5  O   -0.190281
     6  O   -0.211349
     7  N   -0.127589
     8  N   -0.175892
     9  N   -0.087959
    10  N   -0.307712
    11  C   -0.129917
    12  C    0.201257
    13  C   -0.120056
    14  C    0.039828
    15  C   -0.012169
    16  C    0.000643
    17  C   -0.129857
    18  C   -0.046326
    19  C    0.140332
    20  C   -0.075427
    21  C    0.139623
    22  C    0.050338
    23  C   -0.033996
    24  C    0.159726
    25  C   -0.123833
    26  C    0.031588
    27  C    0.165737
    28  C    0.172914
    29  C   -0.126083
    30  C   -0.004162
    31  C   -0.135898
    32  C    0.042545
    33  C   -0.112908
    34  C    0.078608
    35  C   -0.096646
    36  C   -0.158891
    37  C    0.123208
    38  C    0.106057
    39  C    0.188171
    40  C    0.130647
    41  C    0.186516
    42  C    0.019647
    43  C   -0.034038
    44  H    0.182117
    45  H    0.038179
    46  H   -0.044687
    47  H    0.019953
    48  H    0.041168
    49  H   -0.021773
    50  H   -0.044496
    51  H    0.045968
    52  H    0.204340
    53  H    0.016277
    54  H    0.025483
    55  H    0.028451
    56  H    0.049093
    57  H   -0.089358
    58  H    0.055899
    59  H    0.071364
    60  H    0.024408
    61  H    0.046446
    62  H    0.012436
    63  H    0.028697
    64  H   -0.003744
    65  H    0.015483
    66  H    0.026019
    67  H    0.015938
    68  H   -0.033424
    69  H    0.062304
    70  H    0.015979
    71  H   -0.009040
    72  H   -0.031935
    73  H    0.018084
    74  H    0.059150
    75  H    0.032435
    76  H    0.051838
    77  H    0.001086
    78  H    0.010572
    79  H    0.030313
    80  H    0.194551
    81  H    0.182564
 Sum of Mulliken charges =  -0.00000

 Dipole moment (field-independent basis, Debye):
    X=             -1.6308    Y=              0.2608    Z=             -0.2214  Tot=              1.6663
 Quadrupole moment (field-independent basis, Debye-Ang):
   XX=           -250.7645   YY=           -235.7995   ZZ=           -254.2994
   XY=             25.4675   XZ=             16.1117   YZ=             -9.8466

 Normal termination of Gaussian 16 at Mon Jul  1 02:39:00 2019.
