 Gaussian 16, Revision A.03,
 Gaussian 16:  ES64L-G16RevA.03 25-Dec-2016

 --------------------------
 # td=(NStates=1) B3LYP/SVP
 --------------------------

 --
 TD
 --
 Symbolic Z-matrix:
 Charge =  0 Multiplicity = 1

                         Standard orientation:
 ---------------------------------------------------------------------
 Center     Atomic      Atomic             Coordinates (Angstroms)
 Number     Number       Type             X           Y           Z
 ---------------------------------------------------------------------
      1          8           0       -4.366056   -4.884914    1.899947
      2          8           0        3.256745   -4.783039    1.237824
      3          8           0        7.066255   -1.368414    1.956198
      4          8           0        3.923667   -3.105124   -0.106337
      5          8           0        7.637615   -0.393208   -0.015348
      6          8           0       -3.084679    2.347143   -0.120625
      7          7           0       -0.272421   -0.567804   -0.764893
      8          7           0        1.506773    1.907087   -0.579133
      9          7           0       -3.371260   -3.291168    0.555494
     10          7           0       -0.860376    2.930450   -0.107620
     11          6           0        0.711143   -2.530222   -1.396769
     12          6           0        0.922382   -1.131538   -1.075690
     13          6           0       -0.689038   -2.673695   -1.249869
     14          6           0       -1.319831   -1.422909   -0.789430
     15          6           0        3.752227    1.514324   -0.325596
     16          6           0        2.512552    0.972104   -0.597993
     17          6           0        2.174050   -0.457016   -0.894008
     18          6           0        3.469289    2.901084   -0.034768
     19          6           0        1.682928   -3.480788   -1.915182
     20          6           0       -5.509205   -2.642579    1.345437
     21          6           0       -3.635797   -1.904346    0.082233
     22          6           0        2.057363    3.055539   -0.155527
     23          6           0       -5.018183   -1.598053    0.526817
     24          6           0        5.077201    0.729423   -0.247370
     25          6           0       -2.674179   -1.120625   -0.420099
     26          6           0       -1.490390   -3.889000   -1.755049
     27          6           0       -4.421063   -3.774834    1.284548
     28          6           0        2.159622   -4.505301   -0.929014
     29          6           0        5.456551   -0.103347    0.925933
     30          6           0        4.497884    4.026282    0.401234
     31          6           0        1.292733    4.168582    0.084266
     32          6           0       -6.829894   -3.260333    1.162237
     33          6           0       -5.832824   -0.666827   -0.037491
     34          6           0       -0.138127    4.086991    0.109941
     35          6           0       -1.117156    5.122271    0.468001
     36          6           0       -2.378384    4.630222    0.315304
     37          6           0        3.243902   -4.023660    0.088256
     38          6           0       -5.499197    0.421296   -1.068645
     39          6           0        6.804453   -0.630853    0.852332
     40          6           0       -3.709215    5.122864    0.495517
     41          6           0       -2.142323    3.222950   -0.066487
     42          6           0       -0.706527    6.581824    0.825244
     43          6           0       -4.443199    5.488711   -0.832838
     44          1           0       -0.298765    0.248815   -0.239201
     45          1           0        2.963688   -1.318323   -1.011217
     46          1           0        2.591543   -3.178392   -2.303721
     47          1           0        1.368913   -3.978625   -2.930953
     48          1           0       -5.366636   -2.481656    2.407967
     49          1           0        5.313897   -0.126971   -1.146151
     50          1           0        5.855010    1.515326   -0.236098
     51          1           0       -2.697191   -0.054464   -0.317159
     52          1           0        0.334116    1.907300   -0.649136
     53          1           0       -1.270119   -4.729466   -1.175508
     54          1           0       -2.520985   -3.345955   -1.813461
     55          1           0       -1.112636   -4.195049   -2.692838
     56          1           0       -2.389118   -3.546339    0.673608
     57          1           0        1.375962   -4.963333   -0.133009
     58          1           0        2.597182   -5.492874   -1.359830
     59          1           0        4.753242   -1.059246    0.952440
     60          1           0        5.324253    0.607328    1.855393
     61          1           0        4.376480    4.862245   -0.173394
     62          1           0        5.462219    3.696830    0.366018
     63          1           0        4.065752    4.181839    1.414735
     64          1           0        1.932067    5.097365    0.391830
     65          1           0       -7.690507   -2.661535    1.628068
     66          1           0       -6.988036   -4.358520    1.575602
     67          1           0       -7.141848   -3.443823    0.067117
     68          1           0       -6.810291   -0.707906    0.192298
     69          1           0       -5.145708    1.456381   -0.633954
     70          1           0       -6.386160    0.624478   -1.674568
     71          1           0       -4.907512    0.043864   -1.955937
     72          1           0       -3.699114    6.203233    0.935373
     73          1           0       -4.558307    4.682478    1.025222
     74          1           0       -0.005859    6.346376    1.799611
     75          1           0       -1.627083    7.183357    1.130619
     76          1           0       -0.008305    7.279630    0.221805
     77          1           0       -3.924891    6.544851   -1.148069
     78          1           0       -5.411033    5.825894   -0.671174
     79          1           0       -4.176811    4.807471   -1.620928
     80          1           0        3.765884   -4.327998    1.876329
     81          1           0        8.010823   -1.865333    1.779205
 ---------------------------------------------------------------------

 SCF Done:  E(RB3LYP) =  -1949.09228100     A.U. after   24 cycles

 Excitation energies and oscillator strengths:

 Excited State   1:      Singlet-A      1.7963 eV  690.24 nm  f=0.4022  <S**2>=0.000
     156 ->157         0.71393
     156 <-157        -0.14737
 This state for optimization and/or second-order correction.
 Total Energy, E(TD-HF/TD-DFT) =  -1949.02626982
 Copying the excited state density for this state as the 1-particle RhoCI density.

 The electronic state is 1-A.
 Alpha  occ. eigenvalues --  -19.19543 -19.19026 -19.16041 -19.12849 -19.10567
 Alpha  occ. eigenvalues --  -19.08481 -14.38896 -14.37554 -14.35530 -14.29208
 Alpha  occ. eigenvalues --  -10.34248 -10.32015 -10.29444 -10.25678 -10.25298
 Alpha  occ. eigenvalues --  -10.24949 -10.24437 -10.23951 -10.23719 -10.23327
 Alpha  occ. eigenvalues --  -10.23279 -10.22764 -10.22118 -10.21445 -10.21398
 Alpha  occ. eigenvalues --  -10.21379 -10.21113 -10.21054 -10.20818 -10.20775
 Alpha  occ. eigenvalues --  -10.20669 -10.20482 -10.20195 -10.19990 -10.19981
 Alpha  occ. eigenvalues --  -10.19954 -10.19896 -10.19659 -10.19360 -10.18682
 Alpha  occ. eigenvalues --  -10.18427 -10.18371 -10.17722  -1.13024  -1.08639
 Alpha  occ. eigenvalues --   -1.04915  -1.01023  -1.00752  -0.99682  -0.98569
 Alpha  occ. eigenvalues --   -0.97848  -0.93586  -0.91178  -0.83983  -0.83431
 Alpha  occ. eigenvalues --   -0.81814  -0.81376  -0.79778  -0.79232  -0.78619
 Alpha  occ. eigenvalues --   -0.77920  -0.76840  -0.74894  -0.74358  -0.72463
 Alpha  occ. eigenvalues --   -0.71880  -0.70185  -0.70017  -0.68911  -0.67680
 Alpha  occ. eigenvalues --   -0.67175  -0.65577  -0.64907  -0.62591  -0.62261
 Alpha  occ. eigenvalues --   -0.60858  -0.59277  -0.58934  -0.58547  -0.58267
 Alpha  occ. eigenvalues --   -0.56687  -0.55086  -0.54349  -0.53889  -0.53377
 Alpha  occ. eigenvalues --   -0.52660  -0.52133  -0.51935  -0.50974  -0.50346
 Alpha  occ. eigenvalues --   -0.49993  -0.49697  -0.49186  -0.48462  -0.47959
 Alpha  occ. eigenvalues --   -0.47787  -0.47607  -0.47076  -0.46909  -0.46400
 Alpha  occ. eigenvalues --   -0.45372  -0.45107  -0.44857  -0.44377  -0.44263
 Alpha  occ. eigenvalues --   -0.43466  -0.42803  -0.42675  -0.42476  -0.42205
 Alpha  occ. eigenvalues --   -0.41992  -0.41801  -0.41593  -0.41270  -0.41089
 Alpha  occ. eigenvalues --   -0.40928  -0.40350  -0.40262  -0.39645  -0.39348
 Alpha  occ. eigenvalues --   -0.39215  -0.38876  -0.38630  -0.38336  -0.37798
 Alpha  occ. eigenvalues --   -0.37342  -0.37154  -0.37103  -0.36924  -0.36450
 Alpha  occ. eigenvalues --   -0.35826  -0.35527  -0.35417  -0.35094  -0.34891
 Alpha  occ. eigenvalues --   -0.34365  -0.34188  -0.33680  -0.33565  -0.33045
 Alpha  occ. eigenvalues --   -0.32283  -0.31834  -0.30537  -0.30324  -0.29545
 Alpha  occ. eigenvalues --   -0.28344  -0.27275  -0.26711  -0.26606  -0.26516
 Alpha  occ. eigenvalues --   -0.24953  -0.24709  -0.23523  -0.23041  -0.22178
 Alpha  occ. eigenvalues --   -0.18113
 Alpha virt. eigenvalues --   -0.11344  -0.06650  -0.04761  -0.01538  -0.00696
 Alpha virt. eigenvalues --   -0.00238   0.01472   0.01995   0.02469   0.03614
 Alpha virt. eigenvalues --    0.03871   0.04321   0.04768   0.05094   0.05980

 Mulliken charges:
               1
     1  O   -0.270005
     2  O   -0.182521
     3  O   -0.244273
     4  O   -0.160158
     5  O   -0.239248
     6  O   -0.298327
     7  N    0.016229
     8  N   -0.147717
     9  N   -0.131981
    10  N   -0.269019
    11  C   -0.004980
    12  C   -0.038446
    13  C   -0.254016
    14  C   -0.000866
    15  C   -0.034618
    16  C    0.088645
    17  C   -0.058603
    18  C   -0.201214
    19  C    0.121103
    20  C    0.020321
    21  C    0.097124
    22  C    0.071808
    23  C    0.038934
    24  C    0.022866
    25  C   -0.040891
    26  C    0.146991
    27  C    0.100939
    28  C   -0.098233
    29  C   -0.044413
    30  C    0.192561
    31  C   -0.147666
    32  C   -0.026901
    33  C   -0.088433
    34  C    0.110285
    35  C   -0.069252
    36  C   -0.075664
    37  C    0.119186
    38  C    0.031682
    39  C    0.149213
    40  C    0.022437
    41  C    0.122085
    42  C   -0.003779
    43  C   -0.004090
    44  H    0.114801
    45  H    0.043562
    46  H   -0.011544
    47  H    0.026165
    48  H    0.038693
    49  H    0.048230
    50  H    0.009041
    51  H    0.008216
    52  H    0.210558
    53  H    0.001689
    54  H    0.063802
    55  H   -0.005428
    56  H    0.142821
    57  H    0.055023
    58  H    0.059067
    59  H    0.067020
    60  H    0.053974
    61  H    0.006832
    62  H   -0.010030
    63  H    0.034360
    64  H    0.001741
    65  H    0.024974
    66  H    0.053285
    67  H    0.019340
    68  H   -0.040035
    69  H    0.105334
    70  H   -0.012329
    71  H    0.021633
    72  H   -0.010793
    73  H    0.020231
    74  H    0.029375
    75  H    0.030740
    76  H    0.049325
    77  H   -0.008771
    78  H   -0.001409
    79  H    0.028660
    80  H    0.166676
    81  H    0.228076
 Sum of Mulliken charges =  -0.00000

 Dipole moment (field-independent basis, Debye):
    X=              3.0018    Y=             -0.5763    Z=              0.3338  Tot=              3.0748
 Quadrupole moment (field-independent basis, Debye-Ang):
   XX=           -251.8463   YY=           -247.9469   ZZ=           -255.9919
   XY=            -20.8139   XZ=             17.1059   YZ=             15.6414

 Normal termination of Gaussian 16 at Fri Jul  5 09:24:34 2019.
