 Gaussian 16, Revision A.03,
 Gaussian 16:  ES64L-G16RevA.03 25-Dec-2016

 --------------------------
 # td=(NStates=1) B3LYP/SVP
 --------------------------

 --
 TD
 --
 Symbolic Z-matrix:
 Charge =  0 Multiplicity = 1

                         Standard orientation:
 ---------------------------------------------------------------------
 Center     Atomic      Atomic             Coordinates (Angstroms)
 Number     Number       Type             X           Y           Z
 ---------------------------------------------------------------------
      1          8           0        4.573765   -4.644110   -1.944800
      2          8           0       -3.047194   -4.902579   -1.320048
      3          8           0       -6.996412   -1.634629   -1.769264
      4          8           0       -3.765151   -3.211822   -0.102358
      5          8           0       -7.716685   -0.492274    0.125839
      6          8           0        2.950905    2.390310    0.282478
      7          7           0        0.291325   -0.475735    0.681353
      8          7           0       -1.636868    1.807145    0.449641
      9          7           0        3.528011   -3.113581   -0.623746
     10          7           0        0.755388    2.856978    0.017683
     11          6           0       -0.685553   -2.402637    1.389307
     12          6           0       -0.939973   -1.114655    0.898016
     13          6           0        0.796623   -2.576836    1.352341
     14          6           0        1.269461   -1.360860    0.767399
     15          6           0       -3.799950    1.370851    0.278494
     16          6           0       -2.543110    0.867963    0.510715
     17          6           0       -2.183541   -0.417693    0.900445
     18          6           0       -3.574273    2.772893   -0.134670
     19          6           0       -1.664850   -3.484498    1.913925
     20          6           0        5.673368   -2.517232   -1.373712
     21          6           0        3.705467   -1.742858   -0.078414
     22          6           0       -2.186688    2.981293   -0.010874
     23          6           0        5.025786   -1.414881   -0.379062
     24          6           0       -5.188919    0.681509    0.427232
     25          6           0        2.700353   -1.000304    0.546713
     26          6           0        1.536223   -3.893655    1.717839
     27          6           0        4.539214   -3.495902   -1.385655
     28          6           0       -2.104166   -4.582264    0.800205
     29          6           0       -5.436670   -0.266812   -0.646185
     30          6           0       -4.542175    3.789355   -0.435397
     31          6           0       -1.384692    4.083367   -0.347533
     32          6           0        7.043552   -3.207616   -1.000208
     33          6           0        5.905865   -0.587935    0.151053
     34          6           0        0.090305    4.029117   -0.159065
     35          6           0        1.021782    5.165648   -0.451083
     36          6           0        2.264870    4.685075   -0.361477
     37          6           0       -3.029828   -4.135873   -0.259050
     38          6           0        5.480331    0.443530    1.235899
     39          6           0       -6.851598   -0.686406   -0.764025
     40          6           0        3.613540    5.338990   -0.476981
     41          6           0        2.060392    3.219375   -0.030012
     42          6           0        0.455128    6.528462   -0.860806
     43          6           0        4.255993    5.414228    0.876928
     44          1           0        0.263471    0.371679    0.145561
     45          1           0       -2.994726   -0.984005    1.102305
     46          1           0       -2.738689   -3.153124    2.181240
     47          1           0       -1.380545   -4.094175    2.742711
     48          1           0        5.622917   -2.199552   -2.440818
     49          1           0       -5.285938    0.280072    1.523710
     50          1           0       -5.940771    1.374863    0.564446
     51          1           0        2.769721    0.101516    0.679449
     52          1           0       -0.447958    1.959007    0.592725
     53          1           0        1.735528   -4.538036    0.780470
     54          1           0        2.520544   -3.585544    2.185818
     55          1           0        1.148871   -4.700245    2.466148
     56          1           0        2.581982   -3.441277   -0.752773
     57          1           0       -1.241537   -5.041330    0.209079
     58          1           0       -2.495311   -5.307593    1.701825
     59          1           0       -4.720390   -0.963837   -0.590851
     60          1           0       -5.192877    0.449961   -1.574585
     61          1           0       -4.667530    4.629151    0.232071
     62          1           0       -5.628980    3.244953   -0.627739
     63          1           0       -4.258543    4.406883   -1.240575
     64          1           0       -1.786309    5.151729   -0.484408
     65          1           0        7.928239   -2.622389   -0.898618
     66          1           0        7.146402   -4.032252   -1.701606
     67          1           0        6.848643   -3.703462   -0.083368
     68          1           0        6.998914   -0.470904   -0.084098
     69          1           0        4.984525    1.383501    0.824614
     70          1           0        6.434393    1.104462    1.723063
     71          1           0        4.823175    0.023423    1.870439
     72          1           0        3.517356    6.315447   -1.232402
     73          1           0        4.306777    4.544345   -1.015145
     74          1           0       -0.206580    6.486721   -1.472302
     75          1           0        1.317959    7.081493   -0.858207
     76          1           0       -0.206611    7.301494   -0.179716
     77          1           0        3.565650    6.053088    1.725208
     78          1           0        5.208821    5.912474    0.807573
     79          1           0        4.476095    4.423848    1.314248
     80          1           0       -3.614051   -4.472567   -2.095705
     81          1           0       -7.885049   -1.749069   -1.562889
 ---------------------------------------------------------------------

 SCF Done:  E(RB3LYP) =  -1949.02043821     A.U. after   17 cycles

 Excitation energies and oscillator strengths:

 Excited State   1:      Singlet-A      1.8662 eV  664.37 nm  f=0.3681  <S**2>=0.000
     156 ->157         0.70826
     156 <-157        -0.12874
 This state for optimization and/or second-order correction.
 Total Energy, E(TD-HF/TD-DFT) =  -1948.95185682
 Copying the excited state density for this state as the 1-particle RhoCI density.

 The electronic state is 1-A.
 Alpha  occ. eigenvalues --  -19.20315 -19.18861 -19.14220 -19.13425 -19.10044
 Alpha  occ. eigenvalues --  -19.08855 -14.38541 -14.37399 -14.34740 -14.30518
 Alpha  occ. eigenvalues --  -10.33216 -10.32882 -10.28020 -10.26961 -10.25654
 Alpha  occ. eigenvalues --  -10.25030 -10.23940 -10.23708 -10.23056 -10.22923
 Alpha  occ. eigenvalues --  -10.22539 -10.22472 -10.21929 -10.21778 -10.21563
 Alpha  occ. eigenvalues --  -10.21399 -10.21117 -10.21063 -10.20597 -10.20574
 Alpha  occ. eigenvalues --  -10.20560 -10.20556 -10.20167 -10.20130 -10.19974
 Alpha  occ. eigenvalues --  -10.19926 -10.19903 -10.19826 -10.19754 -10.19346
 Alpha  occ. eigenvalues --  -10.18689 -10.18244 -10.18225  -1.11959  -1.10452
 Alpha  occ. eigenvalues --   -1.02391  -1.00973  -1.00548  -1.00368  -1.00111
 Alpha  occ. eigenvalues --   -0.98602  -0.93143  -0.92392  -0.82661  -0.82039
 Alpha  occ. eigenvalues --   -0.81741  -0.81178  -0.80875  -0.79037  -0.78051
 Alpha  occ. eigenvalues --   -0.77343  -0.76577  -0.75938  -0.74088  -0.72276
 Alpha  occ. eigenvalues --   -0.71360  -0.70745  -0.69830  -0.69132  -0.68417
 Alpha  occ. eigenvalues --   -0.67494  -0.65997  -0.64712  -0.62653  -0.61426
 Alpha  occ. eigenvalues --   -0.60635  -0.59566  -0.58869  -0.58574  -0.57912
 Alpha  occ. eigenvalues --   -0.57561  -0.56264  -0.55224  -0.53786  -0.53704
 Alpha  occ. eigenvalues --   -0.53017  -0.52118  -0.51108  -0.50550  -0.50150
 Alpha  occ. eigenvalues --   -0.49639  -0.49280  -0.48998  -0.48650  -0.47752
 Alpha  occ. eigenvalues --   -0.47428  -0.46932  -0.46495  -0.46095  -0.45644
 Alpha  occ. eigenvalues --   -0.45133  -0.44821  -0.44629  -0.44157  -0.43932
 Alpha  occ. eigenvalues --   -0.43621  -0.43182  -0.42922  -0.42731  -0.42448
 Alpha  occ. eigenvalues --   -0.42280  -0.41630  -0.41479  -0.41131  -0.40986
 Alpha  occ. eigenvalues --   -0.40734  -0.40512  -0.40216  -0.39903  -0.39600
 Alpha  occ. eigenvalues --   -0.39409  -0.39204  -0.39002  -0.38445  -0.38241
 Alpha  occ. eigenvalues --   -0.38205  -0.37873  -0.37455  -0.36836  -0.36443
 Alpha  occ. eigenvalues --   -0.35937  -0.35734  -0.35636  -0.34852  -0.34304
 Alpha  occ. eigenvalues --   -0.33826  -0.33723  -0.32905  -0.32853  -0.32847
 Alpha  occ. eigenvalues --   -0.32579  -0.32173  -0.31849  -0.30028  -0.29312
 Alpha  occ. eigenvalues --   -0.29207  -0.28926  -0.26514  -0.26112  -0.25584
 Alpha  occ. eigenvalues --   -0.24943  -0.24607  -0.23927  -0.23845  -0.22216
 Alpha  occ. eigenvalues --   -0.18350
 Alpha virt. eigenvalues --   -0.11093  -0.06623  -0.05004  -0.02958  -0.02186
 Alpha virt. eigenvalues --    0.00479   0.01335   0.02343   0.02773   0.03033
 Alpha virt. eigenvalues --    0.03998   0.04629   0.04937   0.05585   0.06489

 Mulliken charges:
               1
     1  O   -0.295518
     2  O   -0.188360
     3  O   -0.153192
     4  O   -0.208578
     5  O   -0.265740
     6  O   -0.246389
     7  N   -0.019272
     8  N   -0.161919
     9  N   -0.079551
    10  N   -0.279548
    11  C   -0.051996
    12  C    0.048476
    13  C   -0.136765
    14  C    0.004931
    15  C   -0.115663
    16  C    0.071569
    17  C   -0.002774
    18  C   -0.111520
    19  C    0.082473
    20  C   -0.042456
    21  C    0.131719
    22  C    0.103774
    23  C    0.029102
    24  C    0.118754
    25  C   -0.103774
    26  C    0.000028
    27  C    0.055014
    28  C   -0.107109
    29  C    0.066244
    30  C    0.076802
    31  C   -0.115050
    32  C    0.103124
    33  C   -0.142357
    34  C    0.026394
    35  C   -0.090141
    36  C   -0.154123
    37  C    0.137973
    38  C   -0.004974
    39  C    0.181912
    40  C    0.012701
    41  C    0.141265
    42  C    0.197956
    43  C   -0.027319
    44  H    0.141435
    45  H   -0.061940
    46  H    0.033978
    47  H   -0.000488
    48  H    0.042574
    49  H    0.019842
    50  H   -0.031316
    51  H    0.045055
    52  H    0.229492
    53  H    0.039491
    54  H    0.043609
    55  H    0.035810
    56  H    0.137119
    57  H    0.041774
    58  H    0.077911
    59  H    0.005497
    60  H    0.049423
    61  H    0.012339
    62  H    0.037246
    63  H   -0.008154
    64  H    0.000250
    65  H    0.017858
    66  H    0.029573
    67  H   -0.001417
    68  H    0.019311
    69  H    0.074042
    70  H    0.012046
    71  H    0.006841
    72  H    0.041502
    73  H    0.029830
    74  H   -0.063123
    75  H   -0.000811
    76  H    0.013329
    77  H    0.022190
    78  H    0.009405
    79  H    0.046830
    80  H    0.232288
    81  H    0.133240
 Sum of Mulliken charges =  -0.00000

 Dipole moment (field-independent basis, Debye):
    X=             -2.2942    Y=              1.5763    Z=             -0.3598  Tot=              2.8067
 Quadrupole moment (field-independent basis, Debye-Ang):
   XX=           -259.5082   YY=           -242.6037   ZZ=           -255.6321
   XY=             19.1768   XZ=             16.1388   YZ=            -15.9399

 Normal termination of Gaussian 16 at Thu Jul  4 05:49:54 2019.
