 Gaussian 16, Revision A.03,
 Gaussian 16:  ES64L-G16RevA.03 25-Dec-2016

 --------------------------
 # td=(NStates=1) B3LYP/SVP
 --------------------------

 --
 TD
 --
 Symbolic Z-matrix:
 Charge =  0 Multiplicity = 1

                         Standard orientation:
 ---------------------------------------------------------------------
 Center     Atomic      Atomic             Coordinates (Angstroms)
 Number     Number       Type             X           Y           Z
 ---------------------------------------------------------------------
      1          8           0       -4.678320   -4.605926    1.907309
      2          8           0        2.978289   -4.630977    1.338014
      3          8           0        6.988285   -1.544497    1.930906
      4          8           0        3.838464   -3.097322   -0.088057
      5          8           0        7.608703   -0.812845   -0.023063
      6          8           0       -2.969137    2.376036   -0.210037
      7          7           0       -0.296130   -0.613359   -0.542012
      8          7           0        1.651137    1.749024   -0.289892
      9          7           0       -3.570046   -3.132936    0.591514
     10          7           0       -0.651025    2.881326   -0.017648
     11          6           0        0.590050   -2.469177   -1.432431
     12          6           0        0.891060   -1.198463   -0.900872
     13          6           0       -0.789996   -2.644095   -1.168059
     14          6           0       -1.296632   -1.510997   -0.650117
     15          6           0        3.782954    1.427613   -0.364201
     16          6           0        2.520443    0.778480   -0.616409
     17          6           0        2.196874   -0.528667   -0.863439
     18          6           0        3.635909    2.756672   -0.096761
     19          6           0        1.558108   -3.520633   -1.910525
     20          6           0       -5.671595   -2.432458    1.381715
     21          6           0       -3.614981   -1.803572    0.150275
     22          6           0        2.156044    2.934212    0.034317
     23          6           0       -5.124822   -1.464316    0.374376
     24          6           0        5.086419    0.669992   -0.506239
     25          6           0       -2.641442   -1.057204   -0.379046
     26          6           0       -1.598600   -3.761590   -1.768723
     27          6           0       -4.573109   -3.493641    1.428487
     28          6           0        1.993804   -4.591903   -0.876334
     29          6           0        5.458304   -0.082440    0.842455
     30          6           0        4.661571    3.829547    0.142427
     31          6           0        1.414295    4.076663    0.288893
     32          6           0       -7.054406   -2.976871    1.082716
     33          6           0       -5.763774   -0.577187   -0.335280
     34          6           0       -0.010539    3.968130    0.254741
     35          6           0       -0.992559    5.121683    0.384587
     36          6           0       -2.181846    4.608063    0.308983
     37          6           0        3.124547   -4.000869    0.128243
     38          6           0       -5.393054    0.409033   -1.427084
     39          6           0        6.767593   -0.817365    0.824383
     40          6           0       -3.516774    5.323306    0.489839
     41          6           0       -2.041689    3.137502    0.017656
     42          6           0       -0.596051    6.469051    0.831520
     43          6           0       -4.117350    5.641672   -0.798747
     44          1           0       -0.331233    0.343462   -0.158182
     45          1           0        3.075666   -1.118840   -1.153056
     46          1           0        2.544120   -3.149527   -2.500861
     47          1           0        1.070286   -4.059740   -2.687078
     48          1           0       -5.456100   -2.128968    2.428300
     49          1           0        5.119518    0.093418   -1.379763
     50          1           0        5.914653    1.345379   -0.477037
     51          1           0       -2.812745   -0.037389   -0.304557
     52          1           0        0.561508    2.057795   -0.531984
     53          1           0       -1.211108   -4.757926   -1.269902
     54          1           0       -2.696748   -3.536149   -1.538932
     55          1           0       -1.440941   -3.864701   -2.931499
     56          1           0       -2.663998   -3.658182    0.733065
     57          1           0        1.097825   -4.823294   -0.281710
     58          1           0        2.391463   -5.460775   -1.245482
     59          1           0        4.677290   -0.947434    1.095053
     60          1           0        5.530141    0.580596    1.681703
     61          1           0        4.422387    4.654963   -0.420065
     62          1           0        5.635448    3.348750   -0.091748
     63          1           0        4.683077    4.133384    1.190607
     64          1           0        1.958900    4.978694    0.521970
     65          1           0       -7.787868   -2.023113    1.296708
     66          1           0       -7.353922   -3.683094    1.792913
     67          1           0       -7.161953   -3.291155    0.117101
     68          1           0       -6.901471   -0.477211   -0.266531
     69          1           0       -4.887340    1.237046   -0.957782
     70          1           0       -6.191973    0.661985   -2.124390
     71          1           0       -4.356916    0.026071   -1.984104
     72          1           0       -3.459178    6.364894    1.198174
     73          1           0       -4.163456    4.706291    1.057316
     74          1           0       -0.043870    6.573088    1.671543
     75          1           0       -1.556827    7.027459    1.123608
     76          1           0       -0.025674    7.187913    0.053492
     77          1           0       -3.576845    6.323382   -1.650224
     78          1           0       -4.973901    6.087927   -0.623703
     79          1           0       -4.334647    4.639458   -1.370101
     80          1           0        3.700376   -4.349851    1.993275
     81          1           0        7.785692   -1.989765    1.731499
 ---------------------------------------------------------------------

 SCF Done:  E(RB3LYP) =  -1949.17395733     A.U. after   16 cycles

 Excitation energies and oscillator strengths:

 Excited State   1:      Singlet-A      2.0520 eV  604.20 nm  f=0.3535  <S**2>=0.000
     156 ->157         0.70518
 This state for optimization and/or second-order correction.
 Total Energy, E(TD-HF/TD-DFT) =  -1949.09854653
 Copying the excited state density for this state as the 1-particle RhoCI density.

 The electronic state is 1-A.
 Alpha  occ. eigenvalues --  -19.19060 -19.17394 -19.15032 -19.12357 -19.12159
 Alpha  occ. eigenvalues --  -19.10138 -14.37187 -14.36956 -14.34501 -14.30718
 Alpha  occ. eigenvalues --  -10.33321 -10.31408 -10.28553 -10.28125 -10.23957
 Alpha  occ. eigenvalues --  -10.23739 -10.23580 -10.22801 -10.22662 -10.22221
 Alpha  occ. eigenvalues --  -10.21409 -10.21280 -10.21149 -10.21143 -10.20631
 Alpha  occ. eigenvalues --  -10.20299 -10.20242 -10.20062 -10.19932 -10.19775
 Alpha  occ. eigenvalues --  -10.19745 -10.19682 -10.19650 -10.19528 -10.19344
 Alpha  occ. eigenvalues --  -10.19330 -10.19145 -10.18766 -10.18502 -10.18502
 Alpha  occ. eigenvalues --  -10.18128 -10.18126 -10.17956  -1.11096  -1.10695
 Alpha  occ. eigenvalues --   -1.03323  -1.03096  -1.02597  -1.00639  -0.99358
 Alpha  occ. eigenvalues --   -0.98696  -0.94847  -0.94559  -0.82501  -0.81694
 Alpha  occ. eigenvalues --   -0.81495  -0.81210  -0.81119  -0.79425  -0.77342
 Alpha  occ. eigenvalues --   -0.77152  -0.76552  -0.76043  -0.74705  -0.72523
 Alpha  occ. eigenvalues --   -0.71169  -0.70043  -0.68924  -0.68339  -0.67879
 Alpha  occ. eigenvalues --   -0.67489  -0.65800  -0.64922  -0.62393  -0.61696
 Alpha  occ. eigenvalues --   -0.61051  -0.59922  -0.59205  -0.57765  -0.56446
 Alpha  occ. eigenvalues --   -0.56003  -0.55341  -0.55099  -0.53991  -0.53471
 Alpha  occ. eigenvalues --   -0.52852  -0.51906  -0.50651  -0.50026  -0.49625
 Alpha  occ. eigenvalues --   -0.49229  -0.48922  -0.48450  -0.48102  -0.47845
 Alpha  occ. eigenvalues --   -0.47325  -0.46912  -0.46588  -0.46239  -0.45360
 Alpha  occ. eigenvalues --   -0.45152  -0.44853  -0.44714  -0.43955  -0.43913
 Alpha  occ. eigenvalues --   -0.43694  -0.43506  -0.43154  -0.43071  -0.42427
 Alpha  occ. eigenvalues --   -0.42042  -0.41826  -0.41802  -0.41115  -0.40919
 Alpha  occ. eigenvalues --   -0.40867  -0.40601  -0.40225  -0.39874  -0.39802
 Alpha  occ. eigenvalues --   -0.39656  -0.39637  -0.39386  -0.38946  -0.38863
 Alpha  occ. eigenvalues --   -0.38767  -0.38500  -0.37925  -0.37583  -0.36651
 Alpha  occ. eigenvalues --   -0.36463  -0.35774  -0.35582  -0.34887  -0.34813
 Alpha  occ. eigenvalues --   -0.34694  -0.34274  -0.34094  -0.33915  -0.33753
 Alpha  occ. eigenvalues --   -0.32300  -0.31580  -0.31184  -0.30418  -0.29659
 Alpha  occ. eigenvalues --   -0.28583  -0.27893  -0.26814  -0.26452  -0.25732
 Alpha  occ. eigenvalues --   -0.25474  -0.25041  -0.24775  -0.24242  -0.22309
 Alpha  occ. eigenvalues --   -0.18371
 Alpha virt. eigenvalues --   -0.10146  -0.05555  -0.02320  -0.00356   0.00997
 Alpha virt. eigenvalues --    0.01291   0.02895   0.03135   0.03688   0.03941
 Alpha virt. eigenvalues --    0.04739   0.04839   0.05120   0.06105   0.06817

 Mulliken charges:
               1
     1  O   -0.219446
     2  O   -0.226129
     3  O   -0.160467
     4  O   -0.169475
     5  O   -0.221480
     6  O   -0.193087
     7  N   -0.040505
     8  N   -0.120467
     9  N   -0.117299
    10  N   -0.291389
    11  C   -0.081964
    12  C    0.026524
    13  C   -0.186427
    14  C    0.093423
    15  C   -0.102761
    16  C    0.051830
    17  C   -0.022793
    18  C   -0.153886
    19  C    0.077692
    20  C    0.006953
    21  C    0.086319
    22  C    0.028608
    23  C    0.034667
    24  C    0.157970
    25  C   -0.056442
    26  C   -0.005183
    27  C    0.035103
    28  C    0.039294
    29  C   -0.039985
    30  C    0.170624
    31  C   -0.093675
    32  C    0.114756
    33  C   -0.222997
    34  C    0.061473
    35  C   -0.059525
    36  C   -0.156259
    37  C    0.125721
    38  C    0.033737
    39  C    0.106896
    40  C    0.060394
    41  C    0.178428
    42  C    0.076863
    43  C    0.012502
    44  H    0.137839
    45  H    0.004573
    46  H    0.031031
    47  H   -0.018059
    48  H    0.028017
    49  H    0.013763
    50  H   -0.013285
    51  H   -0.035326
    52  H    0.207031
    53  H    0.027971
    54  H    0.050197
    55  H    0.049867
    56  H    0.149325
    57  H    0.034101
    58  H    0.013714
    59  H    0.065849
    60  H    0.028469
    61  H    0.004902
    62  H    0.011747
    63  H    0.020188
    64  H   -0.032701
    65  H    0.025758
    66  H    0.012165
    67  H    0.002076
    68  H    0.001260
    69  H    0.054177
    70  H    0.024519
    71  H    0.027332
    72  H    0.017022
    73  H   -0.001046
    74  H   -0.004551
    75  H    0.007704
    76  H    0.031639
    77  H    0.025823
    78  H   -0.027982
    79  H    0.034193
    80  H    0.201521
    81  H    0.151044
 Sum of Mulliken charges =  -0.00000

 Dipole moment (field-independent basis, Debye):
    X=              2.4540    Y=              2.3289    Z=              0.8071  Tot=              3.4781
 Quadrupole moment (field-independent basis, Debye-Ang):
   XX=           -259.0077   YY=           -238.8686   ZZ=           -253.5118
   XY=            -18.9810   XZ=             15.7863   YZ=             11.9463

 Normal termination of Gaussian 16 at Wed Jul  3 15:37:33 2019.
