 Gaussian 16, Revision A.03,
 Gaussian 16:  ES64L-G16RevA.03 25-Dec-2016

 --------------------------
 # td=(NStates=1) B3LYP/SVP
 --------------------------

 --
 TD
 --
 Symbolic Z-matrix:
 Charge =  0 Multiplicity = 1

                         Standard orientation:
 ---------------------------------------------------------------------
 Center     Atomic      Atomic             Coordinates (Angstroms)
 Number     Number       Type             X           Y           Z
 ---------------------------------------------------------------------
      1          8           0       -4.574213   -4.694924    1.939710
      2          8           0        2.761739   -4.624557    1.474518
      3          8           0        6.974544   -1.525923    1.923295
      4          8           0        3.661623   -3.015720    0.202360
      5          8           0        7.605050   -0.779711   -0.164806
      6          8           0       -3.055906    2.669337   -0.348204
      7          7           0       -0.339022   -0.624011   -0.674797
      8          7           0        1.548887    1.775614   -0.461314
      9          7           0       -3.429550   -3.109353    0.557791
     10          7           0       -0.654646    2.943088   -0.180705
     11          6           0        0.642553   -2.477466   -1.447391
     12          6           0        0.893958   -1.202605   -1.012749
     13          6           0       -0.654551   -2.750596   -1.337544
     14          6           0       -1.326810   -1.490514   -0.875456
     15          6           0        3.781233    1.318562   -0.413100
     16          6           0        2.454061    0.804499   -0.664541
     17          6           0        2.232153   -0.504005   -0.992696
     18          6           0        3.605353    2.647457   -0.022324
     19          6           0        1.662645   -3.428630   -1.950165
     20          6           0       -5.566377   -2.515179    1.435759
     21          6           0       -3.682570   -1.840777    0.059366
     22          6           0        2.105325    2.922037   -0.038620
     23          6           0       -5.043081   -1.506454    0.363062
     24          6           0        5.137035    0.629122   -0.483594
     25          6           0       -2.609510   -1.058135   -0.547202
     26          6           0       -1.452746   -3.965150   -1.807822
     27          6           0       -4.487415   -3.572018    1.430155
     28          6           0        2.100877   -4.575278   -0.811694
     29          6           0        5.379772   -0.193667    0.772755
     30          6           0        4.572838    3.707077    0.345059
     31          6           0        1.403204    4.092964    0.288268
     32          6           0       -6.992670   -3.120354    1.176983
     33          6           0       -5.844101   -0.550620   -0.168666
     34          6           0        0.053651    4.047499    0.231392
     35          6           0       -0.902882    5.195173    0.449842
     36          6           0       -2.153910    4.790101    0.286178
     37          6           0        2.895537   -3.887245    0.354151
     38          6           0       -5.476269    0.349480   -1.242054
     39          6           0        6.773163   -0.795228    0.779087
     40          6           0       -3.498319    5.290542    0.532689
     41          6           0       -2.037467    3.305581   -0.081433
     42          6           0       -0.440477    6.563334    1.012938
     43          6           0       -4.223828    5.751829   -0.846168
     44          1           0       -0.407405    0.320726   -0.234801
     45          1           0        2.875638   -1.275480   -1.159085
     46          1           0        2.573617   -3.071352   -2.292673
     47          1           0        1.347117   -4.004558   -2.865884
     48          1           0       -5.641931   -1.967896    2.189994
     49          1           0        5.000146   -0.131184   -1.361016
     50          1           0        5.999780    1.245235   -0.357339
     51          1           0       -2.727473    0.040538   -0.330938
     52          1           0        0.602852    1.722520   -0.411134
     53          1           0       -1.340160   -4.830908   -1.157141
     54          1           0       -2.528179   -3.725141   -1.912725
     55          1           0       -0.913412   -4.255030   -2.827931
     56          1           0       -2.642189   -3.715447    0.303742
     57          1           0        1.219821   -5.125215   -0.318540
     58          1           0        2.847233   -5.458702   -1.070001
     59          1           0        4.690233   -1.018186    0.993718
     60          1           0        5.248285    0.522947    1.767519
     61          1           0        4.142067    4.869069    0.076435
     62          1           0        5.674236    3.802613   -0.176019
     63          1           0        4.670829    3.792694    1.583651
     64          1           0        2.091442    4.784894    0.540128
     65          1           0       -7.669027   -2.344562    1.478426
     66          1           0       -7.268448   -3.898639    1.829839
     67          1           0       -7.066599   -3.479096    0.232024
     68          1           0       -6.785340   -0.573006    0.115902
     69          1           0       -4.906573    1.210811   -0.892962
     70          1           0       -6.321679    0.812784   -1.725339
     71          1           0       -4.787201   -0.276451   -2.045580
     72          1           0       -3.497364    6.210915    1.209174
     73          1           0       -4.229643    4.636815    1.028490
     74          1           0        0.347058    6.385221    1.851685
     75          1           0       -1.154450    7.299944    1.618790
     76          1           0        0.016450    7.310867    0.284447
     77          1           0       -3.627520    6.576967   -1.420745
     78          1           0       -5.189734    6.084542   -0.688768
     79          1           0       -4.496717    4.743698   -1.565130
     80          1           0        3.440580   -4.345707    2.259352
     81          1           0        7.749042   -1.890652    1.901855
 ---------------------------------------------------------------------

 SCF Done:  E(RB3LYP) =  -1949.07956739     A.U. after   16 cycles

 Excitation energies and oscillator strengths:

 Excited State   1:      Singlet-A      1.8617 eV  665.96 nm  f=0.4487  <S**2>=0.000
     156 ->157         0.71066
     156 <-157        -0.11875
 This state for optimization and/or second-order correction.
 Total Energy, E(TD-HF/TD-DFT) =  -1949.01114992
 Copying the excited state density for this state as the 1-particle RhoCI density.

 The electronic state is 1-A.
 Alpha  occ. eigenvalues --  -19.19744 -19.17749 -19.14572 -19.13107 -19.11952
 Alpha  occ. eigenvalues --  -19.10187 -14.38138 -14.37756 -14.36191 -14.28808
 Alpha  occ. eigenvalues --  -10.33253 -10.32836 -10.30214 -10.26136 -10.25437
 Alpha  occ. eigenvalues --  -10.24195 -10.23614 -10.23494 -10.23462 -10.23399
 Alpha  occ. eigenvalues --  -10.22792 -10.22781 -10.21834 -10.21455 -10.21260
 Alpha  occ. eigenvalues --  -10.21137 -10.20887 -10.20770 -10.20607 -10.20544
 Alpha  occ. eigenvalues --  -10.20112 -10.19813 -10.19798 -10.19620 -10.19605
 Alpha  occ. eigenvalues --  -10.19319 -10.19131 -10.19059 -10.18919 -10.18050
 Alpha  occ. eigenvalues --  -10.18021 -10.17822 -10.17696  -1.11104  -1.10267
 Alpha  occ. eigenvalues --   -1.02653  -1.02621  -1.00452  -1.00091  -0.99652
 Alpha  occ. eigenvalues --   -0.99038  -0.95151  -0.90373  -0.83346  -0.82571
 Alpha  occ. eigenvalues --   -0.82483  -0.80982  -0.79005  -0.78448  -0.77705
 Alpha  occ. eigenvalues --   -0.77119  -0.76239  -0.75195  -0.73134  -0.72501
 Alpha  occ. eigenvalues --   -0.70752  -0.70585  -0.69189  -0.68634  -0.67903
 Alpha  occ. eigenvalues --   -0.67212  -0.65735  -0.64607  -0.62701  -0.61868
 Alpha  occ. eigenvalues --   -0.60905  -0.60332  -0.59849  -0.58853  -0.58292
 Alpha  occ. eigenvalues --   -0.56499  -0.55647  -0.55485  -0.54975  -0.53335
 Alpha  occ. eigenvalues --   -0.52140  -0.51406  -0.50738  -0.50510  -0.49837
 Alpha  occ. eigenvalues --   -0.49633  -0.49235  -0.48825  -0.48248  -0.47675
 Alpha  occ. eigenvalues --   -0.47553  -0.47286  -0.46646  -0.45556  -0.45300
 Alpha  occ. eigenvalues --   -0.44795  -0.44721  -0.44235  -0.43869  -0.43524
 Alpha  occ. eigenvalues --   -0.43234  -0.43077  -0.42781  -0.42287  -0.41980
 Alpha  occ. eigenvalues --   -0.41616  -0.41451  -0.41172  -0.41050  -0.41006
 Alpha  occ. eigenvalues --   -0.40527  -0.40362  -0.39998  -0.39582  -0.39458
 Alpha  occ. eigenvalues --   -0.39077  -0.38949  -0.38766  -0.38308  -0.38128
 Alpha  occ. eigenvalues --   -0.37416  -0.37137  -0.37024  -0.36925  -0.36344
 Alpha  occ. eigenvalues --   -0.36124  -0.35973  -0.35923  -0.35184  -0.35123
 Alpha  occ. eigenvalues --   -0.34991  -0.34451  -0.34340  -0.33719  -0.33504
 Alpha  occ. eigenvalues --   -0.33344  -0.32294  -0.31755  -0.30035  -0.29637
 Alpha  occ. eigenvalues --   -0.28304  -0.27554  -0.27077  -0.26708  -0.25847
 Alpha  occ. eigenvalues --   -0.25459  -0.25128  -0.23500  -0.23178  -0.21338
 Alpha  occ. eigenvalues --   -0.17252
 Alpha virt. eigenvalues --   -0.09978  -0.06165  -0.03939  -0.01556  -0.01038
 Alpha virt. eigenvalues --   -0.00564   0.01107   0.02878   0.03191   0.03513
 Alpha virt. eigenvalues --    0.03677   0.04463   0.05447   0.06435   0.06651

 Mulliken charges:
               1
     1  O   -0.222793
     2  O   -0.241328
     3  O   -0.123060
     4  O   -0.178660
     5  O   -0.265432
     6  O   -0.227935
     7  N   -0.065718
     8  N    0.070027
     9  N   -0.162489
    10  N   -0.373662
    11  C   -0.037073
    12  C   -0.072749
    13  C   -0.168765
    14  C    0.092509
    15  C   -0.114350
    16  C    0.168139
    17  C    0.001036
    18  C   -0.053729
    19  C    0.115130
    20  C    0.020235
    21  C    0.056349
    22  C   -0.020585
    23  C   -0.056581
    24  C    0.192638
    25  C   -0.134746
    26  C    0.050867
    27  C    0.180812
    28  C   -0.077997
    29  C   -0.099888
    30  C   -0.106909
    31  C   -0.033368
    32  C    0.123370
    33  C   -0.051523
    34  C    0.185382
    35  C   -0.039053
    36  C   -0.112264
    37  C    0.131077
    38  C    0.049393
    39  C    0.167734
    40  C    0.060341
    41  C    0.177459
    42  C   -0.017993
    43  C   -0.062937
    44  H    0.145708
    45  H   -0.063729
    46  H   -0.003985
    47  H    0.011697
    48  H   -0.035793
    49  H    0.040756
    50  H    0.003100
    51  H    0.042796
    52  H    0.055406
    53  H    0.027528
    54  H    0.040318
    55  H    0.040264
    56  H    0.132405
    57  H    0.043955
    58  H    0.067237
    59  H    0.052374
    60  H    0.052723
    61  H    0.046927
    62  H    0.065085
    63  H    0.052784
    64  H   -0.101513
    65  H    0.004933
    66  H    0.010404
    67  H   -0.004244
    68  H   -0.073884
    69  H    0.068245
    70  H   -0.002809
    71  H    0.049078
    72  H   -0.002455
    73  H    0.015504
    74  H    0.026058
    75  H    0.028542
    76  H    0.031630
    77  H    0.033897
    78  H   -0.007416
    79  H    0.043135
    80  H    0.230470
    81  H    0.111961
 Sum of Mulliken charges =  -0.00000

 Dipole moment (field-independent basis, Debye):
    X=              1.5827    Y=             -1.2159    Z=              1.9100  Tot=              2.7624
 Quadrupole moment (field-independent basis, Debye-Ang):
   XX=           -249.2143   YY=           -244.1171   ZZ=           -253.8591
   XY=            -12.3777   XZ=             16.1236   YZ=             13.7417

 Normal termination of Gaussian 16 at Mon Jul  1 12:04:28 2019.
