 Gaussian 16, Revision A.03,
 Gaussian 16:  ES64L-G16RevA.03 25-Dec-2016

 --------------------------
 # td=(NStates=1) B3LYP/SVP
 --------------------------

 --
 TD
 --
 Symbolic Z-matrix:
 Charge =  0 Multiplicity = 1

                         Standard orientation:
 ---------------------------------------------------------------------
 Center     Atomic      Atomic             Coordinates (Angstroms)
 Number     Number       Type             X           Y           Z
 ---------------------------------------------------------------------
      1          8           0        4.429286   -4.642462   -2.090394
      2          8           0       -2.946052   -4.810936   -1.145793
      3          8           0       -6.946175   -1.607903   -1.903735
      4          8           0       -3.828330   -3.125014    0.044635
      5          8           0       -7.646789   -0.491805   -0.067595
      6          8           0        3.080591    2.438359    0.231597
      7          7           0        0.294943   -0.472857    0.685544
      8          7           0       -1.527534    1.913796    0.377018
      9          7           0        3.267398   -3.109341   -0.736018
     10          7           0        0.779008    2.843563   -0.001810
     11          6           0       -0.608942   -2.365219    1.544459
     12          6           0       -0.923929   -1.124314    1.067116
     13          6           0        0.712037   -2.635932    1.296607
     14          6           0        1.297155   -1.436774    0.774832
     15          6           0       -3.705786    1.479940    0.327341
     16          6           0       -2.452759    0.844086    0.511605
     17          6           0       -2.152825   -0.442490    0.855435
     18          6           0       -3.668049    2.813081   -0.006047
     19          6           0       -1.735445   -3.298329    2.114083
     20          6           0        5.536844   -2.690066   -1.434085
     21          6           0        3.585745   -1.870501   -0.106787
     22          6           0       -2.125642    3.059173    0.014143
     23          6           0        5.003646   -1.563573   -0.442034
     24          6           0       -5.018072    0.581550    0.391465
     25          6           0        2.643905   -1.086388    0.488787
     26          6           0        1.454451   -3.942648    1.836582
     27          6           0        4.311080   -3.613197   -1.549300
     28          6           0       -2.117230   -4.432675    1.021346
     29          6           0       -5.330685   -0.159045   -0.910227
     30          6           0       -4.670699    3.805545   -0.422374
     31          6           0       -1.312070    4.089535   -0.270978
     32          6           0        6.939478   -3.295302   -1.032360
     33          6           0        5.856570   -0.693872    0.101853
     34          6           0        0.027941    4.011296   -0.135309
     35          6           0        1.040884    5.133639   -0.390621
     36          6           0        2.280663    4.666269   -0.286509
     37          6           0       -3.050351   -4.027902   -0.075510
     38          6           0        5.554218    0.351746    1.167483
     39          6           0       -6.708951   -0.788191   -0.909257
     40          6           0        3.596026    5.337343   -0.482013
     41          6           0        2.133056    3.227693    0.071221
     42          6           0        0.515858    6.573570   -0.788002
     43          6           0        4.213609    5.635136    0.881184
     44          1           0        0.374168    0.331964    0.020780
     45          1           0       -3.081401   -0.883180    1.125927
     46          1           0       -2.580550   -2.760809    2.360628
     47          1           0       -1.281112   -4.100364    2.988203
     48          1           0        5.676255   -2.078535   -2.455378
     49          1           0       -4.978175   -0.175615    1.201377
     50          1           0       -6.011893    1.261280    0.597051
     51          1           0        2.844349    0.096717    0.520916
     52          1           0       -0.483142    2.044639    0.560961
     53          1           0        1.772877   -4.808650    1.039816
     54          1           0        2.485943   -3.709907    1.882055
     55          1           0        0.941713   -4.376987    2.695783
     56          1           0        2.365659   -3.712016   -0.669924
     57          1           0       -1.355306   -5.021802    0.701736
     58          1           0       -2.736061   -5.441481    1.405241
     59          1           0       -4.488673   -0.936517   -0.771362
     60          1           0       -5.182509    0.589914   -1.842663
     61          1           0       -4.551447    4.786420   -0.170585
     62          1           0       -5.642068    3.542952   -0.121905
     63          1           0       -4.778814    3.948544   -1.626619
     64          1           0       -1.592682    4.920986   -0.499533
     65          1           0        7.699650   -2.628995   -0.971167
     66          1           0        7.157490   -3.992124   -1.794938
     67          1           0        6.773488   -3.928611   -0.056027
     68          1           0        6.957875   -0.727155   -0.309538
     69          1           0        5.210326    1.239482    0.533447
     70          1           0        6.490296    0.605051    1.807693
     71          1           0        4.810824    0.102688    1.917457
     72          1           0        3.673921    6.276245   -1.173758
     73          1           0        4.334693    4.455532   -0.886338
     74          1           0       -0.015856    6.594730   -1.657504
     75          1           0        1.535785    7.209102   -0.879496
     76          1           0       -0.005674    6.939483    0.103238
     77          1           0        3.764676    6.536714    1.277104
     78          1           0        5.202163    6.181729    0.964681
     79          1           0        4.519435    4.741131    1.670601
     80          1           0       -3.526161   -4.429556   -1.770085
     81          1           0       -7.867424   -1.860142   -1.885507
 ---------------------------------------------------------------------

 SCF Done:  E(RB3LYP) =  -1949.06625107     A.U. after   16 cycles

 Excitation energies and oscillator strengths:

 Excited State   1:      Singlet-A      1.9257 eV  643.84 nm  f=0.3751  <S**2>=0.000
     156 ->157         0.70696
     156 <-157        -0.10376
 This state for optimization and/or second-order correction.
 Total Energy, E(TD-HF/TD-DFT) =  -1948.99548260
 Copying the excited state density for this state as the 1-particle RhoCI density.

 The electronic state is 1-A.
 Alpha  occ. eigenvalues --  -19.19731 -19.19558 -19.13915 -19.11807 -19.11469
 Alpha  occ. eigenvalues --  -19.10301 -14.37711 -14.37416 -14.34902 -14.29103
 Alpha  occ. eigenvalues --  -10.33126 -10.32695 -10.29222 -10.26654 -10.25049
 Alpha  occ. eigenvalues --  -10.24033 -10.23863 -10.23397 -10.23164 -10.23109
 Alpha  occ. eigenvalues --  -10.22594 -10.22105 -10.21788 -10.21422 -10.21363
 Alpha  occ. eigenvalues --  -10.21189 -10.21167 -10.20987 -10.20920 -10.20817
 Alpha  occ. eigenvalues --  -10.20446 -10.20358 -10.20224 -10.20062 -10.20051
 Alpha  occ. eigenvalues --  -10.20016 -10.19670 -10.19141 -10.18729 -10.18663
 Alpha  occ. eigenvalues --  -10.18586 -10.18482 -10.16498  -1.12655  -1.10976
 Alpha  occ. eigenvalues --   -1.05767  -1.03142  -1.00153  -0.97760  -0.96909
 Alpha  occ. eigenvalues --   -0.96870  -0.94110  -0.90513  -0.82876  -0.81794
 Alpha  occ. eigenvalues --   -0.80632  -0.80301  -0.79437  -0.78766  -0.77662
 Alpha  occ. eigenvalues --   -0.77468  -0.76654  -0.74545  -0.73872  -0.72767
 Alpha  occ. eigenvalues --   -0.71587  -0.69315  -0.69135  -0.68993  -0.67801
 Alpha  occ. eigenvalues --   -0.67498  -0.65540  -0.63978  -0.62464  -0.61558
 Alpha  occ. eigenvalues --   -0.61188  -0.60142  -0.59018  -0.57575  -0.57064
 Alpha  occ. eigenvalues --   -0.56369  -0.54746  -0.54458  -0.53829  -0.52748
 Alpha  occ. eigenvalues --   -0.52350  -0.51940  -0.51152  -0.50535  -0.49354
 Alpha  occ. eigenvalues --   -0.49094  -0.48677  -0.48346  -0.48152  -0.47965
 Alpha  occ. eigenvalues --   -0.47311  -0.47021  -0.46304  -0.45587  -0.44952
 Alpha  occ. eigenvalues --   -0.44510  -0.44361  -0.44182  -0.44081  -0.43652
 Alpha  occ. eigenvalues --   -0.43443  -0.43115  -0.42958  -0.42459  -0.42274
 Alpha  occ. eigenvalues --   -0.42058  -0.41801  -0.41736  -0.41293  -0.40654
 Alpha  occ. eigenvalues --   -0.40529  -0.40422  -0.40284  -0.39705  -0.39524
 Alpha  occ. eigenvalues --   -0.39170  -0.38974  -0.38765  -0.38515  -0.38251
 Alpha  occ. eigenvalues --   -0.38148  -0.37730  -0.37247  -0.36885  -0.36463
 Alpha  occ. eigenvalues --   -0.36081  -0.35519  -0.35319  -0.34595  -0.34290
 Alpha  occ. eigenvalues --   -0.34163  -0.34119  -0.33886  -0.33173  -0.32472
 Alpha  occ. eigenvalues --   -0.32367  -0.30934  -0.30221  -0.30100  -0.29619
 Alpha  occ. eigenvalues --   -0.27410  -0.27034  -0.26791  -0.26121  -0.25949
 Alpha  occ. eigenvalues --   -0.25623  -0.24924  -0.24300  -0.23704  -0.21859
 Alpha  occ. eigenvalues --   -0.18011
 Alpha virt. eigenvalues --   -0.10259  -0.05797  -0.03627  -0.01588  -0.00793
 Alpha virt. eigenvalues --    0.00302   0.02025   0.02612   0.03024   0.04113
 Alpha virt. eigenvalues --    0.04357   0.04612   0.05134   0.05553   0.06065

 Mulliken charges:
               1
     1  O   -0.157930
     2  O   -0.130763
     3  O   -0.122562
     4  O   -0.222669
     5  O   -0.314007
     6  O   -0.236752
     7  N   -0.139502
     8  N   -0.141115
     9  N   -0.222158
    10  N   -0.357473
    11  C   -0.071649
    12  C    0.107285
    13  C   -0.151620
    14  C    0.077867
    15  C   -0.050716
    16  C    0.069108
    17  C    0.001528
    18  C   -0.084993
    19  C    0.129701
    20  C   -0.137980
    21  C    0.145545
    22  C    0.117353
    23  C   -0.009103
    24  C   -0.026892
    25  C   -0.176716
    26  C    0.066129
    27  C    0.138506
    28  C    0.009537
    29  C   -0.043761
    30  C    0.131208
    31  C   -0.011064
    32  C    0.112613
    33  C   -0.179472
    34  C    0.099356
    35  C   -0.135555
    36  C   -0.114513
    37  C    0.101735
    38  C    0.026288
    39  C    0.166102
    40  C    0.026868
    41  C    0.181286
    42  C    0.112230
    43  C   -0.050006
    44  H    0.167283
    45  H   -0.037058
    46  H    0.003562
    47  H    0.039401
    48  H    0.053690
    49  H    0.033403
    50  H    0.042842
    51  H    0.086071
    52  H    0.158076
    53  H    0.013817
    54  H    0.006101
    55  H    0.034923
    56  H    0.166130
    57  H   -0.019608
    58  H    0.049469
    59  H    0.065891
    60  H    0.069373
    61  H   -0.009460
    62  H   -0.000337
    63  H    0.027829
    64  H   -0.189391
    65  H   -0.005636
    66  H    0.012275
    67  H    0.028011
    68  H    0.019122
    69  H    0.083188
    70  H    0.016581
    71  H    0.030084
    72  H    0.032673
    73  H    0.035259
    74  H    0.019407
    75  H    0.024906
    76  H    0.029862
    77  H   -0.009646
    78  H   -0.008651
    79  H    0.062019
    80  H    0.158652
    81  H    0.178616
 Sum of Mulliken charges =  -0.00000

 Dipole moment (field-independent basis, Debye):
    X=             -1.8491    Y=              0.1643    Z=             -1.0959  Tot=              2.1558
 Quadrupole moment (field-independent basis, Debye-Ang):
   XX=           -256.8260   YY=           -232.5431   ZZ=           -254.5198
   XY=             12.8847   XZ=             19.9298   YZ=            -13.0458

 Normal termination of Gaussian 16 at Wed Jul  3 11:45:21 2019.
