 Gaussian 16, Revision A.03,
 Gaussian 16:  ES64L-G16RevA.03 25-Dec-2016

 --------------------------
 # td=(NStates=1) B3LYP/SVP
 --------------------------

 --
 TD
 --
 Symbolic Z-matrix:
 Charge =  0 Multiplicity = 1

                         Standard orientation:
 ---------------------------------------------------------------------
 Center     Atomic      Atomic             Coordinates (Angstroms)
 Number     Number       Type             X           Y           Z
 ---------------------------------------------------------------------
      1          8           0        4.643385   -4.660390   -1.974679
      2          8           0       -2.924690   -4.734973   -1.300253
      3          8           0       -6.932510   -1.693027   -1.792192
      4          8           0       -3.763117   -3.163248    0.056971
      5          8           0       -7.638277   -0.749447    0.069287
      6          8           0        2.900400    2.573329    0.210350
      7          7           0        0.406820   -0.544731    0.613226
      8          7           0       -1.553995    1.871644    0.337619
      9          7           0        3.475138   -3.164296   -0.682511
     10          7           0        0.682277    2.948775   -0.015478
     11          6           0       -0.539232   -2.541394    1.397176
     12          6           0       -0.907884   -1.137323    0.957047
     13          6           0        0.754617   -2.673681    1.215418
     14          6           0        1.317947   -1.554444    0.698377
     15          6           0       -3.774353    1.416554    0.348572
     16          6           0       -2.392940    0.880622    0.576346
     17          6           0       -2.117567   -0.443800    0.820362
     18          6           0       -3.624155    2.732060   -0.074579
     19          6           0       -1.551039   -3.457070    1.996234
     20          6           0        5.561954   -2.512081   -1.394546
     21          6           0        3.631852   -1.894274   -0.112314
     22          6           0       -2.266569    3.046589    0.026599
     23          6           0        5.072165   -1.485243   -0.384184
     24          6           0       -5.166126    0.576067    0.377761
     25          6           0        2.720206   -1.015553    0.255093
     26          6           0        1.464577   -3.914061    1.816581
     27          6           0        4.604338   -3.558611   -1.432862
     28          6           0       -1.989329   -4.586178    0.908461
     29          6           0       -5.433053   -0.229857   -0.851344
     30          6           0       -4.629057    3.795144   -0.375082
     31          6           0       -1.430942    4.169903   -0.326058
     32          6           0        6.981808   -3.103572   -1.111325
     33          6           0        5.799981   -0.505863    0.293056
     34          6           0       -0.037268    4.060098   -0.305357
     35          6           0        0.899636    5.216597   -0.384280
     36          6           0        2.153172    4.742088   -0.321164
     37          6           0       -2.989134   -4.077266   -0.159337
     38          6           0        5.375443    0.299490    1.433735
     39          6           0       -6.787210   -0.885343   -0.677237
     40          6           0        3.499740    5.454229   -0.452617
     41          6           0        2.084665    3.329553   -0.012225
     42          6           0        0.366246    6.555018   -0.749947
     43          6           0        4.295824    5.611391    0.836169
     44          1           0        0.661756    0.181963    0.243507
     45          1           0       -3.060968   -1.146692    0.857646
     46          1           0       -2.511574   -2.791741    2.091194
     47          1           0       -1.265058   -3.848479    3.025358
     48          1           0        5.914354   -1.937153   -2.235601
     49          1           0       -5.036763   -0.019902    1.419621
     50          1           0       -5.894635    1.378133    0.663338
     51          1           0        2.924493   -0.131541    0.297043
     52          1           0       -0.426734    1.782055    0.162311
     53          1           0        1.697955   -4.626802    1.095819
     54          1           0        2.518541   -3.626829    2.200487
     55          1           0        0.811078   -4.501461    2.474090
     56          1           0        2.702321   -3.904899   -0.671132
     57          1           0       -1.227202   -5.035068    0.269799
     58          1           0       -2.587726   -5.346818    1.475045
     59          1           0       -4.667813   -1.054307   -1.053596
     60          1           0       -5.348579    0.424546   -1.828360
     61          1           0       -4.217687    4.786027    0.129402
     62          1           0       -5.657369    3.536762    0.165379
     63          1           0       -5.064224    3.965633   -1.363975
     64          1           0       -1.889901    5.121521   -0.267662
     65          1           0        7.603294   -2.214413   -1.375036
     66          1           0        7.259549   -3.999395   -1.811126
     67          1           0        6.975406   -3.395139    0.049332
     68          1           0        6.796249   -0.528357    0.102014
     69          1           0        4.884914    1.299212    1.133329
     70          1           0        6.226031    0.711640    2.139943
     71          1           0        4.616806   -0.148015    1.991501
     72          1           0        3.420708    6.484073   -0.713831
     73          1           0        4.110615    4.733862   -1.249354
     74          1           0       -0.277557    6.676484   -1.628134
     75          1           0        1.096042    7.432518   -0.747686
     76          1           0       -0.255102    6.962095   -0.151219
     77          1           0        3.867583    6.464406    1.481848
     78          1           0        5.490249    5.922246    0.645274
     79          1           0        4.421068    4.747381    1.548501
     80          1           0       -3.761880   -4.394610   -1.727558
     81          1           0       -7.891331   -2.175365   -1.758557
 ---------------------------------------------------------------------

 SCF Done:  E(RB3LYP) =  -1949.02627501     A.U. after   17 cycles

 Excitation energies and oscillator strengths:

 Excited State   1:      Singlet-A      1.9560 eV  633.87 nm  f=0.4362  <S**2>=0.000
     156 ->157         0.71004
     156 <-157        -0.13478
 This state for optimization and/or second-order correction.
 Total Energy, E(TD-HF/TD-DFT) =  -1948.95439331
 Copying the excited state density for this state as the 1-particle RhoCI density.

 The electronic state is 1-A.
 Alpha  occ. eigenvalues --  -19.21392 -19.16546 -19.14540 -19.13397 -19.11021
 Alpha  occ. eigenvalues --  -19.10547 -14.37399 -14.36750 -14.33861 -14.27418
 Alpha  occ. eigenvalues --  -10.33962 -10.31213 -10.29130 -10.25354 -10.24226
 Alpha  occ. eigenvalues --  -10.24004 -10.23966 -10.22922 -10.22857 -10.22701
 Alpha  occ. eigenvalues --  -10.22006 -10.21406 -10.21363 -10.21311 -10.21034
 Alpha  occ. eigenvalues --  -10.21025 -10.20973 -10.20711 -10.20616 -10.20398
 Alpha  occ. eigenvalues --  -10.20395 -10.20378 -10.19937 -10.19903 -10.19491
 Alpha  occ. eigenvalues --  -10.19384 -10.19230 -10.19183 -10.18645 -10.18097
 Alpha  occ. eigenvalues --  -10.17849 -10.17757 -10.17570  -1.13154  -1.10515
 Alpha  occ. eigenvalues --   -1.06143  -1.03179  -1.02671  -0.99925  -0.98500
 Alpha  occ. eigenvalues --   -0.96496  -0.94436  -0.90303  -0.84077  -0.82090
 Alpha  occ. eigenvalues --   -0.80727  -0.80218  -0.79287  -0.78709  -0.78305
 Alpha  occ. eigenvalues --   -0.76926  -0.76109  -0.75514  -0.74344  -0.72028
 Alpha  occ. eigenvalues --   -0.70889  -0.69879  -0.69382  -0.68896  -0.67143
 Alpha  occ. eigenvalues --   -0.65846  -0.65336  -0.63975  -0.62045  -0.62018
 Alpha  occ. eigenvalues --   -0.59954  -0.59492  -0.58670  -0.57062  -0.56768
 Alpha  occ. eigenvalues --   -0.55952  -0.55165  -0.55065  -0.54062  -0.53133
 Alpha  occ. eigenvalues --   -0.52818  -0.51731  -0.50994  -0.50260  -0.49785
 Alpha  occ. eigenvalues --   -0.49605  -0.49370  -0.48737  -0.48097  -0.47803
 Alpha  occ. eigenvalues --   -0.47541  -0.47230  -0.46383  -0.46129  -0.45295
 Alpha  occ. eigenvalues --   -0.44857  -0.44616  -0.44196  -0.43902  -0.43784
 Alpha  occ. eigenvalues --   -0.43524  -0.43281  -0.43011  -0.42503  -0.41932
 Alpha  occ. eigenvalues --   -0.41818  -0.41196  -0.41051  -0.40843  -0.40615
 Alpha  occ. eigenvalues --   -0.40505  -0.40424  -0.40119  -0.40026  -0.39797
 Alpha  occ. eigenvalues --   -0.39506  -0.39408  -0.39123  -0.38773  -0.38463
 Alpha  occ. eigenvalues --   -0.37874  -0.37637  -0.37359  -0.37145  -0.36775
 Alpha  occ. eigenvalues --   -0.36638  -0.35751  -0.35317  -0.35025  -0.34350
 Alpha  occ. eigenvalues --   -0.33846  -0.33773  -0.33670  -0.33490  -0.33283
 Alpha  occ. eigenvalues --   -0.32483  -0.31901  -0.31631  -0.29904  -0.29705
 Alpha  occ. eigenvalues --   -0.28808  -0.27188  -0.27076  -0.26727  -0.25631
 Alpha  occ. eigenvalues --   -0.24855  -0.24611  -0.23536  -0.22862  -0.21292
 Alpha  occ. eigenvalues --   -0.17136
 Alpha virt. eigenvalues --   -0.09680  -0.05089  -0.03607  -0.01547  -0.01398
 Alpha virt. eigenvalues --    0.00902   0.01382   0.02490   0.03338   0.03743
 Alpha virt. eigenvalues --    0.04306   0.04657   0.05072   0.05875   0.05916

 Mulliken charges:
               1
     1  O   -0.225924
     2  O   -0.147023
     3  O   -0.289805
     4  O   -0.241993
     5  O   -0.135028
     6  O   -0.101096
     7  N    0.003760
     8  N   -0.137191
     9  N   -0.186142
    10  N   -0.374504
    11  C   -0.055847
    12  C    0.062740
    13  C   -0.176648
    14  C    0.028801
    15  C   -0.144870
    16  C    0.088296
    17  C   -0.129250
    18  C   -0.067107
    19  C    0.030363
    20  C   -0.042654
    21  C    0.152487
    22  C    0.083099
    23  C   -0.081609
    24  C    0.049011
    25  C    0.098193
    26  C    0.120901
    27  C    0.171659
    28  C    0.022569
    29  C   -0.023891
    30  C    0.014357
    31  C   -0.093310
    32  C   -0.044011
    33  C   -0.042139
    34  C    0.091087
    35  C   -0.075320
    36  C   -0.183102
    37  C    0.101435
    38  C    0.028820
    39  C    0.142019
    40  C    0.103498
    41  C    0.124858
    42  C    0.183260
    43  C   -0.083913
    44  H    0.011570
    45  H    0.058118
    46  H    0.043314
    47  H    0.043957
    48  H    0.041330
    49  H    0.039652
    50  H    0.020135
    51  H   -0.157070
    52  H    0.203392
    53  H   -0.023627
    54  H    0.042077
    55  H    0.008372
    56  H    0.159365
    57  H    0.033332
    58  H    0.053546
    59  H    0.056397
    60  H    0.063429
    61  H    0.045613
    62  H    0.014713
    63  H    0.029950
    64  H   -0.047576
    65  H    0.025519
    66  H    0.065243
    67  H    0.039159
    68  H   -0.047579
    69  H    0.072397
    70  H    0.023931
    71  H    0.011897
    72  H   -0.008958
    73  H    0.037106
    74  H    0.011652
    75  H   -0.000229
    76  H   -0.062746
    77  H    0.017151
    78  H    0.019554
    79  H    0.031658
    80  H    0.197676
    81  H    0.207741
 Sum of Mulliken charges =  -0.00000

 Dipole moment (field-independent basis, Debye):
    X=             -1.9380    Y=             -1.3062    Z=              0.1213  Tot=              2.3403
 Quadrupole moment (field-independent basis, Debye-Ang):
   XX=           -247.7768   YY=           -236.2375   ZZ=           -256.1295
   XY=             17.3995   XZ=             15.5358   YZ=            -11.6824

 Normal termination of Gaussian 16 at Wed Jul  3 03:43:31 2019.
