 Gaussian 16, Revision A.03,
 Gaussian 16:  ES64L-G16RevA.03 25-Dec-2016

 --------------------------
 # td=(NStates=1) B3LYP/SVP
 --------------------------

 --
 TD
 --
 Symbolic Z-matrix:
 Charge =  0 Multiplicity = 1

                         Standard orientation:
 ---------------------------------------------------------------------
 Center     Atomic      Atomic             Coordinates (Angstroms)
 Number     Number       Type             X           Y           Z
 ---------------------------------------------------------------------
      1          8           0       -4.938843   -4.510171    1.781330
      2          8           0        2.486937   -4.998407    1.479286
      3          8           0        7.078926   -1.797113    1.846916
      4          8           0        3.428392   -3.436395    0.269812
      5          8           0        7.424296   -0.994747   -0.264519
      6          8           0       -2.773631    2.585507   -0.350470
      7          7           0       -0.350245   -0.529131   -0.627058
      8          7           0        1.684178    1.784277   -0.414248
      9          7           0       -3.723994   -2.985973    0.580349
     10          7           0       -0.508011    2.968747   -0.100733
     11          6           0        0.594414   -2.468174   -1.374921
     12          6           0        0.869491   -1.202607   -0.901475
     13          6           0       -0.823098   -2.577501   -1.341377
     14          6           0       -1.393314   -1.412130   -0.759409
     15          6           0        3.927495    1.301458   -0.360951
     16          6           0        2.548528    0.717823   -0.602917
     17          6           0        2.191366   -0.641831   -0.759776
     18          6           0        3.857549    2.573169   -0.017828
     19          6           0        1.549862   -3.525865   -1.819821
     20          6           0       -5.762148   -2.241329    1.345450
     21          6           0       -3.777891   -1.729926    0.091371
     22          6           0        2.299286    2.857991   -0.152933
     23          6           0       -5.108448   -1.316555    0.230485
     24          6           0        5.173782    0.445498   -0.459345
     25          6           0       -2.759833   -1.004698   -0.472611
     26          6           0       -1.540213   -3.872817   -1.838372
     27          6           0       -4.805925   -3.431909    1.303899
     28          6           0        1.656025   -4.706124   -0.745487
     29          6           0        5.457909   -0.440369    0.779770
     30          6           0        4.806575    3.643386    0.307313
     31          6           0        1.617735    4.053714    0.231203
     32          6           0       -7.194098   -2.709136    1.189759
     33          6           0       -5.832199   -0.303600   -0.302042
     34          6           0        0.216232    4.099961    0.268595
     35          6           0       -0.658667    5.246219    0.491217
     36          6           0       -1.923447    4.812482    0.388714
     37          6           0        2.596342   -4.304407    0.278601
     38          6           0       -5.388797    0.629667   -1.419438
     39          6           0        6.658325   -1.107186    0.696289
     40          6           0       -3.277703    5.459483    0.448777
     41          6           0       -1.759398    3.297748   -0.029395
     42          6           0       -0.183144    6.548225    1.065412
     43          6           0       -3.781929    6.069475   -0.755003
     44          1           0       -0.442115    0.429423   -0.249423
     45          1           0        3.010320   -1.400863   -1.083889
     46          1           0        2.576207   -2.973283   -1.968812
     47          1           0        1.374400   -3.974364   -2.847907
     48          1           0       -5.590215   -1.770082    2.450514
     49          1           0        5.105500   -0.187240   -1.307842
     50          1           0        6.132089    1.067237   -0.681153
     51          1           0       -2.960306    0.214399   -0.638868
     52          1           0        0.673599    1.897490   -0.485365
     53          1           0       -1.586339   -4.623896   -0.885926
     54          1           0       -2.521280   -3.515217   -2.468646
     55          1           0       -0.950176   -4.520214   -2.656902
     56          1           0       -2.897177   -3.602595    0.669163
     57          1           0        0.570393   -4.823163   -0.145173
     58          1           0        1.987132   -5.550902   -1.283109
     59          1           0        4.512742   -1.154266    0.976323
     60          1           0        5.377791    0.237543    1.737753
     61          1           0        4.868253    4.561423   -0.554894
     62          1           0        5.934597    3.123915    0.239361
     63          1           0        4.622381    4.206114    1.149290
     64          1           0        2.051809    4.863527    0.556017
     65          1           0       -7.966372   -2.014653    1.744037
     66          1           0       -7.373232   -3.591530    1.856413
     67          1           0       -7.385538   -2.890648    0.128314
     68          1           0       -6.955352   -0.213769    0.230749
     69          1           0       -5.040644    1.627665   -0.996356
     70          1           0       -6.208655    0.874674   -2.291481
     71          1           0       -4.786093    0.089353   -2.028038
     72          1           0       -3.335496    6.393392    1.261188
     73          1           0       -3.813858    4.535464    0.983577
     74          1           0        0.785756    6.558191    1.772569
     75          1           0       -0.925275    7.194440    1.665055
     76          1           0        0.210166    7.320089    0.192284
     77          1           0       -3.081735    6.613266   -1.146353
     78          1           0       -4.774684    6.492499   -0.658617
     79          1           0       -4.003676    5.120173   -1.379821
     80          1           0        3.006456   -4.480339    2.123272
     81          1           0        8.132533   -2.148894    1.833163
 ---------------------------------------------------------------------

 SCF Done:  E(RB3LYP) =  -1949.06468599     A.U. after   17 cycles

 Excitation energies and oscillator strengths:

 Excited State   1:      Singlet-A      1.9880 eV  623.65 nm  f=0.3595  <S**2>=0.000
     156 ->157         0.70523
 This state for optimization and/or second-order correction.
 Total Energy, E(TD-HF/TD-DFT) =  -1948.99162705
 Copying the excited state density for this state as the 1-particle RhoCI density.

 The electronic state is 1-A.
 Alpha  occ. eigenvalues --  -19.17749 -19.17505 -19.14328 -19.12174 -19.11469
 Alpha  occ. eigenvalues --  -19.08865 -14.37987 -14.37427 -14.37134 -14.29206
 Alpha  occ. eigenvalues --  -10.33307 -10.31713 -10.28743 -10.25695 -10.25228
 Alpha  occ. eigenvalues --  -10.24714 -10.24110 -10.24024 -10.23561 -10.23394
 Alpha  occ. eigenvalues --  -10.23348 -10.23102 -10.22989 -10.22707 -10.22452
 Alpha  occ. eigenvalues --  -10.21850 -10.21739 -10.21354 -10.21269 -10.21197
 Alpha  occ. eigenvalues --  -10.21162 -10.20717 -10.19937 -10.19895 -10.19810
 Alpha  occ. eigenvalues --  -10.19750 -10.19713 -10.19700 -10.19192 -10.19167
 Alpha  occ. eigenvalues --  -10.18549 -10.18413 -10.16577  -1.10470  -1.06114
 Alpha  occ. eigenvalues --   -1.05345  -1.01466  -1.00693  -0.98420  -0.97692
 Alpha  occ. eigenvalues --   -0.97607  -0.97024  -0.91752  -0.83474  -0.82805
 Alpha  occ. eigenvalues --   -0.81118  -0.80749  -0.80318  -0.78925  -0.78501
 Alpha  occ. eigenvalues --   -0.78310  -0.76936  -0.75930  -0.74173  -0.72826
 Alpha  occ. eigenvalues --   -0.71281  -0.69523  -0.68915  -0.68406  -0.68032
 Alpha  occ. eigenvalues --   -0.67362  -0.65788  -0.64192  -0.63053  -0.61657
 Alpha  occ. eigenvalues --   -0.60669  -0.59647  -0.58291  -0.57325  -0.56926
 Alpha  occ. eigenvalues --   -0.56428  -0.55249  -0.54615  -0.53311  -0.52832
 Alpha  occ. eigenvalues --   -0.52193  -0.52046  -0.51323  -0.50960  -0.49928
 Alpha  occ. eigenvalues --   -0.49698  -0.49242  -0.48311  -0.47848  -0.47612
 Alpha  occ. eigenvalues --   -0.46486  -0.46303  -0.45983  -0.45838  -0.45559
 Alpha  occ. eigenvalues --   -0.44897  -0.44762  -0.44301  -0.43868  -0.43574
 Alpha  occ. eigenvalues --   -0.43428  -0.43421  -0.42892  -0.42741  -0.42518
 Alpha  occ. eigenvalues --   -0.41725  -0.41503  -0.41281  -0.40900  -0.40561
 Alpha  occ. eigenvalues --   -0.40501  -0.40093  -0.39934  -0.39811  -0.39715
 Alpha  occ. eigenvalues --   -0.39432  -0.38987  -0.38524  -0.38328  -0.37980
 Alpha  occ. eigenvalues --   -0.37660  -0.37309  -0.37213  -0.37043  -0.36730
 Alpha  occ. eigenvalues --   -0.36624  -0.35728  -0.34795  -0.34550  -0.34230
 Alpha  occ. eigenvalues --   -0.33705  -0.33339  -0.33230  -0.33049  -0.32422
 Alpha  occ. eigenvalues --   -0.32026  -0.31148  -0.30541  -0.29816  -0.29460
 Alpha  occ. eigenvalues --   -0.27943  -0.27711  -0.27216  -0.26963  -0.25911
 Alpha  occ. eigenvalues --   -0.25591  -0.24962  -0.23948  -0.23098  -0.21934
 Alpha  occ. eigenvalues --   -0.18392
 Alpha virt. eigenvalues --   -0.10276  -0.05867  -0.03917  -0.02402  -0.01526
 Alpha virt. eigenvalues --   -0.00039   0.01112   0.01297   0.02191   0.02682
 Alpha virt. eigenvalues --    0.03721   0.04492   0.04793   0.04986   0.05523

 Mulliken charges:
               1
     1  O   -0.175622
     2  O   -0.221984
     3  O   -0.311193
     4  O   -0.216520
     5  O   -0.251163
     6  O   -0.295522
     7  N   -0.108162
     8  N    0.043629
     9  N   -0.082542
    10  N   -0.263580
    11  C   -0.066043
    12  C    0.058006
    13  C   -0.157773
    14  C    0.077793
    15  C   -0.086703
    16  C    0.080060
    17  C   -0.074766
    18  C   -0.084296
    19  C    0.025356
    20  C   -0.140624
    21  C    0.144486
    22  C    0.023682
    23  C   -0.035166
    24  C    0.095858
    25  C   -0.215856
    26  C   -0.049454
    27  C    0.094533
    28  C    0.021696
    29  C   -0.077182
    30  C    0.026715
    31  C   -0.010837
    32  C    0.039016
    33  C   -0.153531
    34  C    0.059688
    35  C   -0.008162
    36  C   -0.164225
    37  C    0.123645
    38  C    0.045111
    39  C    0.207518
    40  C   -0.047793
    41  C    0.124176
    42  C   -0.045785
    43  C    0.122430
    44  H    0.142628
    45  H    0.050862
    46  H    0.031462
    47  H    0.026528
    48  H    0.065021
    49  H    0.001687
    50  H    0.032475
    51  H    0.102299
    52  H    0.126936
    53  H    0.047649
    54  H    0.066810
    55  H    0.032817
    56  H    0.128946
    57  H    0.088538
    58  H    0.043485
    59  H    0.086569
    60  H    0.058885
    61  H    0.045807
    62  H    0.046806
    63  H    0.017151
    64  H   -0.120128
    65  H    0.019045
    66  H    0.031732
    67  H    0.026869
    68  H    0.032233
    69  H    0.093511
    70  H    0.013612
    71  H    0.002204
    72  H   -0.001701
    73  H    0.045045
    74  H    0.037954
    75  H    0.038790
    76  H    0.030863
    77  H   -0.025331
    78  H    0.012706
    79  H    0.017628
    80  H    0.185192
    81  H    0.247505
 Sum of Mulliken charges =  -0.00000

 Dipole moment (field-independent basis, Debye):
    X=              3.4212    Y=              0.6632    Z=              0.7443  Tot=              3.5635
 Quadrupole moment (field-independent basis, Debye-Ang):
   XX=           -258.3657   YY=           -243.5477   ZZ=           -253.1192
   XY=             -8.2832   XZ=             14.6152   YZ=             14.3292

 Normal termination of Gaussian 16 at Fri Jul  5 13:31:17 2019.
