 Gaussian 16, Revision A.03,
 Gaussian 16:  ES64L-G16RevA.03 25-Dec-2016

 --------------------------
 # td=(NStates=1) B3LYP/SVP
 --------------------------

 --
 TD
 --
 Symbolic Z-matrix:
 Charge =  0 Multiplicity = 1

                         Standard orientation:
 ---------------------------------------------------------------------
 Center     Atomic      Atomic             Coordinates (Angstroms)
 Number     Number       Type             X           Y           Z
 ---------------------------------------------------------------------
      1          8           0       -4.772605   -4.691356    1.761455
      2          8           0        2.972808   -4.982644    1.302835
      3          8           0        6.998381   -1.702742    1.944268
      4          8           0        3.662786   -3.185895   -0.063283
      5          8           0        7.568734   -0.553382    0.072618
      6          8           0       -3.017902    2.638538    0.006642
      7          7           0       -0.369300   -0.625983   -0.694422
      8          7           0        1.629640    1.704140   -0.597613
      9          7           0       -3.623167   -3.113575    0.656436
     10          7           0       -0.654878    2.970866   -0.151175
     11          6           0        0.541633   -2.566305   -1.289724
     12          6           0        0.816982   -1.170327   -0.925126
     13          6           0       -0.848530   -2.652199   -1.291764
     14          6           0       -1.365452   -1.465094   -0.730537
     15          6           0        3.797829    1.233119   -0.523215
     16          6           0        2.482348    0.697825   -0.758781
     17          6           0        2.136108   -0.675893   -0.877281
     18          6           0        3.664165    2.640566   -0.145435
     19          6           0        1.554650   -3.618595   -1.761181
     20          6           0       -5.831272   -2.499740    1.278242
     21          6           0       -3.699787   -1.813360    0.134330
     22          6           0        2.212104    2.841640   -0.212357
     23          6           0       -5.134753   -1.363115    0.495478
     24          6           0        5.145978    0.453485   -0.473135
     25          6           0       -2.711678   -1.034856   -0.419272
     26          6           0       -1.709655   -3.849338   -1.750349
     27          6           0       -4.761498   -3.565590    1.186289
     28          6           0        1.869130   -4.756393   -0.879761
     29          6           0        5.508338   -0.230096    0.950930
     30          6           0        4.785036    3.526284    0.320388
     31          6           0        1.548316    4.000666    0.089391
     32          6           0       -7.170400   -2.957102    0.983135
     33          6           0       -5.761073   -0.354748   -0.081539
     34          6           0        0.081060    4.045398    0.188880
     35          6           0       -0.720811    5.266488    0.526086
     36          6           0       -1.996419    4.893843    0.330429
     37          6           0        2.960414   -4.174006    0.157662
     38          6           0       -5.314613    0.788218   -1.136039
     39          6           0        6.757639   -0.844608    0.910167
     40          6           0       -3.298687    5.563608    0.501833
     41          6           0       -1.976611    3.480765    0.008162
     42          6           0       -0.116017    6.613886    0.786185
     43          6           0       -4.000636    6.031378   -0.725071
     44          1           0       -0.340900    0.409503   -0.243733
     45          1           0        2.879308   -1.385897   -1.203896
     46          1           0        2.453363   -3.219120   -2.129761
     47          1           0        1.044361   -3.838312   -2.795148
     48          1           0       -5.708752   -2.218363    2.362725
     49          1           0        5.020709   -0.579887   -0.996066
     50          1           0        5.783221    1.087762   -0.900698
     51          1           0       -2.943604    0.028436   -0.363305
     52          1           0        0.564739    1.820686   -0.750779
     53          1           0       -1.901656   -4.487555   -0.860646
     54          1           0       -2.717383   -3.387502   -2.034068
     55          1           0       -1.406026   -4.376260   -2.545032
     56          1           0       -2.740749   -3.472262    0.758783
     57          1           0        0.965976   -5.297231   -0.407733
     58          1           0        2.339712   -5.571159   -1.419674
     59          1           0        4.602657   -1.004204    1.338598
     60          1           0        5.447035    0.334488    1.657852
     61          1           0        4.511867    4.729621    0.040956
     62          1           0        5.935095    3.315828   -0.095891
     63          1           0        4.686839    3.473082    1.578959
     64          1           0        2.019925    4.760705    0.678848
     65          1           0       -8.059074   -2.295798    1.399193
     66          1           0       -7.352612   -3.968809    1.553412
     67          1           0       -7.262777   -3.231035   -0.115209
     68          1           0       -6.849738   -0.412764    0.287511
     69          1           0       -4.814514    1.618824   -0.561772
     70          1           0       -6.300373    1.060912   -1.656855
     71          1           0       -4.671762    0.293839   -1.820239
     72          1           0       -3.092627    6.660656    1.112890
     73          1           0       -3.875594    4.834727    1.086484
     74          1           0        0.654357    6.627157    1.393893
     75          1           0       -0.967505    7.259412    1.164678
     76          1           0        0.298640    6.904924   -0.146689
     77          1           0       -3.249502    6.613728   -1.337718
     78          1           0       -4.872395    6.561243   -0.403678
     79          1           0       -4.436520    5.139912   -1.233766
     80          1           0        3.583325   -4.434840    1.857085
     81          1           0        7.936230   -1.997540    1.859513
 ---------------------------------------------------------------------

 SCF Done:  E(RB3LYP) =  -1949.07008445     A.U. after   19 cycles

 Excitation energies and oscillator strengths:

 Excited State   1:      Singlet-A      1.8505 eV  670.02 nm  f=0.4035  <S**2>=0.000
     156 ->157         0.71362
     156 <-157        -0.14420
 This state for optimization and/or second-order correction.
 Total Energy, E(TD-HF/TD-DFT) =  -1949.00208132
 Copying the excited state density for this state as the 1-particle RhoCI density.

 The electronic state is 1-A.
 Alpha  occ. eigenvalues --  -19.20834 -19.18318 -19.16674 -19.12354 -19.09947
 Alpha  occ. eigenvalues --  -19.09796 -14.39132 -14.37661 -14.36313 -14.29793
 Alpha  occ. eigenvalues --  -10.35388 -10.31355 -10.29096 -10.26581 -10.24971
 Alpha  occ. eigenvalues --  -10.24044 -10.23880 -10.23467 -10.23122 -10.22967
 Alpha  occ. eigenvalues --  -10.22911 -10.22845 -10.21424 -10.21292 -10.21129
 Alpha  occ. eigenvalues --  -10.20579 -10.20557 -10.20436 -10.20362 -10.20329
 Alpha  occ. eigenvalues --  -10.20189 -10.19966 -10.19879 -10.19826 -10.19742
 Alpha  occ. eigenvalues --  -10.19719 -10.19551 -10.19524 -10.18716 -10.18688
 Alpha  occ. eigenvalues --  -10.18540 -10.18365 -10.17687  -1.10247  -1.09494
 Alpha  occ. eigenvalues --   -1.02876  -1.02622  -1.01582  -1.00947  -0.99439
 Alpha  occ. eigenvalues --   -0.96456  -0.94758  -0.90400  -0.82586  -0.82370
 Alpha  occ. eigenvalues --   -0.81800  -0.81063  -0.80571  -0.79186  -0.78141
 Alpha  occ. eigenvalues --   -0.77838  -0.76714  -0.76090  -0.74187  -0.71984
 Alpha  occ. eigenvalues --   -0.71026  -0.70280  -0.69521  -0.69021  -0.67623
 Alpha  occ. eigenvalues --   -0.67406  -0.66055  -0.65383  -0.62592  -0.61178
 Alpha  occ. eigenvalues --   -0.60281  -0.60176  -0.59588  -0.59302  -0.57386
 Alpha  occ. eigenvalues --   -0.56274  -0.55657  -0.55349  -0.53993  -0.52869
 Alpha  occ. eigenvalues --   -0.51956  -0.51790  -0.51402  -0.50920  -0.50680
 Alpha  occ. eigenvalues --   -0.49456  -0.49025  -0.48877  -0.48400  -0.47973
 Alpha  occ. eigenvalues --   -0.47164  -0.46786  -0.46457  -0.45825  -0.45291
 Alpha  occ. eigenvalues --   -0.44945  -0.44876  -0.44330  -0.44156  -0.43959
 Alpha  occ. eigenvalues --   -0.43758  -0.43271  -0.43249  -0.43132  -0.42023
 Alpha  occ. eigenvalues --   -0.41647  -0.41423  -0.41207  -0.41025  -0.40722
 Alpha  occ. eigenvalues --   -0.40671  -0.40493  -0.40397  -0.40101  -0.39911
 Alpha  occ. eigenvalues --   -0.39774  -0.39435  -0.38853  -0.38335  -0.37891
 Alpha  occ. eigenvalues --   -0.37635  -0.37373  -0.37263  -0.37060  -0.36414
 Alpha  occ. eigenvalues --   -0.36116  -0.35942  -0.35286  -0.34946  -0.34796
 Alpha  occ. eigenvalues --   -0.34500  -0.34126  -0.33733  -0.33186  -0.32591
 Alpha  occ. eigenvalues --   -0.31935  -0.31646  -0.31515  -0.31191  -0.29430
 Alpha  occ. eigenvalues --   -0.28446  -0.28177  -0.26424  -0.26163  -0.25820
 Alpha  occ. eigenvalues --   -0.25135  -0.24358  -0.23997  -0.23932  -0.21922
 Alpha  occ. eigenvalues --   -0.17426
 Alpha virt. eigenvalues --   -0.10471  -0.06416  -0.03589  -0.03010  -0.00508
 Alpha virt. eigenvalues --    0.00014   0.02526   0.02743   0.03304   0.03569
 Alpha virt. eigenvalues --    0.03910   0.04548   0.05188   0.05356   0.05942

 Mulliken charges:
               1
     1  O   -0.272617
     2  O   -0.201454
     3  O   -0.210556
     4  O   -0.231799
     5  O   -0.224384
     6  O   -0.324677
     7  N   -0.001758
     8  N   -0.055641
     9  N   -0.007942
    10  N   -0.310994
    11  C   -0.112571
    12  C   -0.009582
    13  C   -0.194485
    14  C    0.047226
    15  C   -0.140249
    16  C    0.075828
    17  C   -0.039156
    18  C   -0.079134
    19  C    0.069988
    20  C    0.029513
    21  C    0.039276
    22  C    0.080759
    23  C   -0.064654
    24  C    0.133906
    25  C   -0.091074
    26  C    0.132555
    27  C    0.061077
    28  C    0.037785
    29  C    0.086149
    30  C   -0.078603
    31  C   -0.098294
    32  C    0.002767
    33  C   -0.188697
    34  C    0.012156
    35  C   -0.137364
    36  C   -0.118754
    37  C    0.174828
    38  C    0.059997
    39  C    0.138044
    40  C   -0.009468
    41  C    0.190320
    42  C    0.219007
    43  C    0.041503
    44  H    0.184610
    45  H    0.009404
    46  H   -0.006940
    47  H    0.024955
    48  H    0.051552
    49  H    0.031721
    50  H   -0.007857
    51  H    0.021713
    52  H    0.166924
    53  H    0.021945
    54  H    0.029600
    55  H   -0.015924
    56  H    0.105061
    57  H    0.048455
    58  H    0.038027
    59  H    0.052690
    60  H   -0.067200
    61  H    0.049296
    62  H    0.075829
    63  H    0.058644
    64  H   -0.027893
    65  H    0.040572
    66  H    0.047598
    67  H    0.027063
    68  H    0.003028
    69  H    0.104286
    70  H    0.023169
    71  H    0.020087
    72  H    0.001382
    73  H    0.026164
    74  H   -0.032574
    75  H    0.025249
    76  H    0.016642
    77  H    0.023229
    78  H    0.005374
    79  H    0.021256
    80  H    0.187408
    81  H    0.186680
 Sum of Mulliken charges =  -0.00000

 Dipole moment (field-independent basis, Debye):
    X=              3.0851    Y=             -0.0740    Z=              0.5196  Tot=              3.1295
 Quadrupole moment (field-independent basis, Debye-Ang):
   XX=           -255.5974   YY=           -244.3401   ZZ=           -253.8463
   XY=            -16.6257   XZ=             17.8339   YZ=             14.1776

 Normal termination of Gaussian 16 at Tue Jul  2 08:49:01 2019.
