 Gaussian 16, Revision A.03,
 Gaussian 16:  ES64L-G16RevA.03 25-Dec-2016

 --------------------------
 # td=(NStates=1) B3LYP/SVP
 --------------------------

 --
 TD
 --
 Symbolic Z-matrix:
 Charge =  0 Multiplicity = 1

                         Standard orientation:
 ---------------------------------------------------------------------
 Center     Atomic      Atomic             Coordinates (Angstroms)
 Number     Number       Type             X           Y           Z
 ---------------------------------------------------------------------
      1          8           0        4.670123   -4.640688   -1.907688
      2          8           0       -2.913085   -4.656814   -1.444326
      3          8           0       -6.950450   -1.817281   -1.672402
      4          8           0       -3.844350   -3.136146   -0.001545
      5          8           0       -7.687884   -0.702972    0.142872
      6          8           0        2.899887    2.472218    0.123291
      7          7           0        0.331631   -0.602524    0.562769
      8          7           0       -1.624280    1.774727    0.250076
      9          7           0        3.658919   -3.007883   -0.493799
     10          7           0        0.677105    2.877683    0.092734
     11          6           0       -0.581382   -2.461942    1.402165
     12          6           0       -0.884002   -1.199312    0.948097
     13          6           0        0.879670   -2.629813    1.293966
     14          6           0        1.360286   -1.404299    0.771923
     15          6           0       -3.839811    1.326443    0.287328
     16          6           0       -2.488399    0.615184    0.500270
     17          6           0       -2.120573   -0.597238    0.839151
     18          6           0       -3.607854    2.563875   -0.000430
     19          6           0       -1.582465   -3.450204    1.803494
     20          6           0        5.753057   -2.524886   -1.282324
     21          6           0        3.751735   -1.798497   -0.040241
     22          6           0       -2.238017    2.838896   -0.026991
     23          6           0        5.202456   -1.363213   -0.397235
     24          6           0       -5.127085    0.577319    0.458762
     25          6           0        2.754709   -1.010308    0.469378
     26          6           0        1.700580   -3.866844    1.755402
     27          6           0        4.639467   -3.561659   -1.275024
     28          6           0       -1.972208   -4.480374    0.738209
     29          6           0       -5.457791   -0.406500   -0.687447
     30          6           0       -4.656830    3.679224   -0.288832
     31          6           0       -1.493587    4.057424   -0.280078
     32          6           0        7.132954   -2.996720   -0.956862
     33          6           0        5.914753   -0.358412    0.150822
     34          6           0       -0.067038    4.009010   -0.272571
     35          6           0        0.781295    5.241348   -0.451937
     36          6           0        2.050737    4.769935   -0.386319
     37          6           0       -2.975544   -3.941904   -0.251792
     38          6           0        5.586488    0.603800    1.169446
     39          6           0       -6.861207   -0.966165   -0.683204
     40          6           0        3.384395    5.431424   -0.509331
     41          6           0        1.928860    3.261009   -0.023354
     42          6           0        0.260284    6.626740   -0.801165
     43          6           0        3.920677    5.727623    0.922390
     44          1           0        0.557877    0.280640    0.084217
     45          1           0       -2.794332   -1.332988    0.921267
     46          1           0       -2.572670   -3.002067    2.057625
     47          1           0       -1.226463   -4.027827    2.528764
     48          1           0        5.629465   -2.225318   -2.275619
     49          1           0       -5.392301   -0.014096    1.388970
     50          1           0       -5.816392    1.407978    0.592742
     51          1           0        2.965953    0.023298    0.442480
     52          1           0       -0.580510    2.034537    0.110258
     53          1           0        1.604744   -4.825068    1.244965
     54          1           0        2.812210   -3.486378    1.666984
     55          1           0        1.592723   -4.166847    2.770810
     56          1           0        2.881784   -3.649613   -0.350807
     57          1           0       -1.147876   -4.983862    0.142771
     58          1           0       -2.538288   -5.446339    1.401131
     59          1           0       -4.942515   -1.272736   -0.688760
     60          1           0       -5.512960    0.280195   -1.663484
     61          1           0       -4.223845    4.588257    0.041866
     62          1           0       -5.674044    3.576919    0.354653
     63          1           0       -4.948442    3.852820   -1.491751
     64          1           0       -2.031710    4.931676   -0.409853
     65          1           0        7.996341   -2.245195   -1.215903
     66          1           0        7.380603   -3.672821   -1.751167
     67          1           0        7.178705   -3.367287    0.226502
     68          1           0        6.898547   -0.522575   -0.160368
     69          1           0        5.160621    1.700350    0.861776
     70          1           0        6.509557    0.906596    1.783117
     71          1           0        4.886928    0.419825    1.899911
     72          1           0        3.262029    6.354664   -1.115516
     73          1           0        4.255479    4.804101   -1.118978
     74          1           0       -0.392873    6.596823   -1.632979
     75          1           0        1.131030    7.310267   -0.950609
     76          1           0       -0.471385    7.137331   -0.070380
     77          1           0        3.315197    6.556919    1.441566
     78          1           0        4.854371    6.110955    0.908402
     79          1           0        3.831066    4.788319    1.458141
     80          1           0       -3.682979   -4.382643   -2.040015
     81          1           0       -7.744847   -2.345146   -1.570802
 ---------------------------------------------------------------------

 SCF Done:  E(RB3LYP) =  -1949.12004215     A.U. after   16 cycles

 Excitation energies and oscillator strengths:

 Excited State   1:      Singlet-A      2.1648 eV  572.73 nm  f=0.3510  <S**2>=0.000
     156 ->157         0.70534
 This state for optimization and/or second-order correction.
 Total Energy, E(TD-HF/TD-DFT) =  -1949.04048728
 Copying the excited state density for this state as the 1-particle RhoCI density.

 The electronic state is 1-A.
 Alpha  occ. eigenvalues --  -19.19819 -19.19204 -19.15593 -19.12245 -19.11538
 Alpha  occ. eigenvalues --  -19.08602 -14.37983 -14.37210 -14.34937 -14.29438
 Alpha  occ. eigenvalues --  -10.34357 -10.31419 -10.29608 -10.25707 -10.24241
 Alpha  occ. eigenvalues --  -10.23864 -10.23677 -10.23526 -10.23425 -10.23228
 Alpha  occ. eigenvalues --  -10.22242 -10.21787 -10.20708 -10.20453 -10.20445
 Alpha  occ. eigenvalues --  -10.20130 -10.20098 -10.20029 -10.19984 -10.19970
 Alpha  occ. eigenvalues --  -10.19909 -10.19900 -10.19855 -10.19725 -10.19682
 Alpha  occ. eigenvalues --  -10.19659 -10.19337 -10.19205 -10.18860 -10.18848
 Alpha  occ. eigenvalues --  -10.18100 -10.17905 -10.17154  -1.11664  -1.10105
 Alpha  occ. eigenvalues --   -1.03115  -1.02201  -1.01762  -0.99929  -0.98900
 Alpha  occ. eigenvalues --   -0.98538  -0.97243  -0.91202  -0.83883  -0.82736
 Alpha  occ. eigenvalues --   -0.81640  -0.81500  -0.79684  -0.78552  -0.77849
 Alpha  occ. eigenvalues --   -0.77446  -0.76768  -0.75367  -0.74418  -0.72766
 Alpha  occ. eigenvalues --   -0.71006  -0.69573  -0.69078  -0.68860  -0.68596
 Alpha  occ. eigenvalues --   -0.67938  -0.66228  -0.65228  -0.63888  -0.62220
 Alpha  occ. eigenvalues --   -0.61280  -0.60310  -0.59923  -0.58099  -0.56912
 Alpha  occ. eigenvalues --   -0.56158  -0.55734  -0.55419  -0.53671  -0.53434
 Alpha  occ. eigenvalues --   -0.52811  -0.52171  -0.51469  -0.50581  -0.49462
 Alpha  occ. eigenvalues --   -0.49267  -0.48876  -0.48767  -0.48498  -0.48277
 Alpha  occ. eigenvalues --   -0.47271  -0.47057  -0.46459  -0.45715  -0.45166
 Alpha  occ. eigenvalues --   -0.44884  -0.44598  -0.44322  -0.43844  -0.43777
 Alpha  occ. eigenvalues --   -0.43121  -0.42675  -0.42540  -0.42316  -0.42195
 Alpha  occ. eigenvalues --   -0.42111  -0.41739  -0.41421  -0.41142  -0.40948
 Alpha  occ. eigenvalues --   -0.40599  -0.40333  -0.39939  -0.39717  -0.39453
 Alpha  occ. eigenvalues --   -0.39178  -0.39067  -0.39029  -0.38872  -0.38753
 Alpha  occ. eigenvalues --   -0.38393  -0.38110  -0.37545  -0.36969  -0.36334
 Alpha  occ. eigenvalues --   -0.36190  -0.35657  -0.35555  -0.34690  -0.34586
 Alpha  occ. eigenvalues --   -0.34390  -0.34388  -0.33877  -0.33301  -0.33154
 Alpha  occ. eigenvalues --   -0.32530  -0.32508  -0.32339  -0.30759  -0.30439
 Alpha  occ. eigenvalues --   -0.27818  -0.27525  -0.26579  -0.26424  -0.25628
 Alpha  occ. eigenvalues --   -0.24977  -0.24237  -0.23751  -0.23479  -0.21614
 Alpha  occ. eigenvalues --   -0.18594
 Alpha virt. eigenvalues --   -0.09625  -0.05049  -0.03914  -0.03256   0.00106
 Alpha virt. eigenvalues --    0.01479   0.02115   0.02903   0.04003   0.04023
 Alpha virt. eigenvalues --    0.04500   0.05036   0.05244   0.05571   0.06140

 Mulliken charges:
               1
     1  O   -0.243780
     2  O   -0.228087
     3  O   -0.144948
     4  O   -0.214306
     5  O   -0.214826
     6  O   -0.266036
     7  N   -0.047691
     8  N   -0.066565
     9  N   -0.031937
    10  N   -0.252713
    11  C   -0.087721
    12  C    0.059279
    13  C   -0.154449
    14  C    0.019314
    15  C   -0.021949
    16  C    0.123244
    17  C    0.019137
    18  C   -0.112263
    19  C    0.203244
    20  C    0.014078
    21  C    0.046671
    22  C   -0.011519
    23  C   -0.089329
    24  C    0.101009
    25  C   -0.056086
    26  C    0.030496
    27  C    0.090161
    28  C   -0.085614
    29  C    0.021188
    30  C    0.013407
    31  C   -0.062583
    32  C    0.037598
    33  C   -0.044159
    34  C    0.082834
    35  C   -0.078078
    36  C   -0.173617
    37  C    0.168047
    38  C    0.047025
    39  C    0.083657
    40  C    0.004113
    41  C    0.131680
    42  C    0.103414
    43  C    0.047252
    44  H    0.150465
    45  H   -0.083006
    46  H    0.024651
    47  H   -0.052702
    48  H    0.015610
    49  H    0.024504
    50  H   -0.017837
    51  H   -0.014039
    52  H    0.150037
    53  H    0.023782
    54  H    0.036081
    55  H    0.012435
    56  H    0.126776
    57  H    0.048739
    58  H    0.076810
    59  H    0.002667
    60  H    0.048010
    61  H    0.010653
    62  H    0.047751
    63  H    0.053240
    64  H   -0.067551
    65  H    0.026591
    66  H    0.012038
    67  H    0.052931
    68  H   -0.039554
    69  H    0.077698
    70  H    0.006156
    71  H   -0.003087
    72  H   -0.002891
    73  H    0.040373
    74  H    0.007370
    75  H    0.025981
    76  H    0.021291
    77  H    0.007361
    78  H   -0.015948
    79  H    0.030713
    80  H    0.206298
    81  H    0.171014
 Sum of Mulliken charges =  -0.00000

 Dipole moment (field-independent basis, Debye):
    X=             -3.2553    Y=             -0.4343    Z=             -0.6128  Tot=              3.3408
 Quadrupole moment (field-independent basis, Debye-Ang):
   XX=           -252.5766   YY=           -232.7824   ZZ=           -254.7479
   XY=             19.3047   XZ=             18.1223   YZ=            -12.6499

 Normal termination of Gaussian 16 at Sat Jun 29 06:20:51 2019.
