 Gaussian 16, Revision A.03,
 Gaussian 16:  ES64L-G16RevA.03 25-Dec-2016

 --------------------------
 # td=(NStates=1) B3LYP/SVP
 --------------------------

 --
 TD
 --
 Symbolic Z-matrix:
 Charge =  0 Multiplicity = 1

                         Standard orientation:
 ---------------------------------------------------------------------
 Center     Atomic      Atomic             Coordinates (Angstroms)
 Number     Number       Type             X           Y           Z
 ---------------------------------------------------------------------
      1          8           0        4.477890   -4.822398   -1.797364
      2          8           0       -2.819006   -4.793648   -1.310653
      3          8           0       -7.103745   -1.482958   -1.809538
      4          8           0       -3.769582   -3.117094   -0.093886
      5          8           0       -7.460607   -0.681065    0.333039
      6          8           0        3.152179    2.418472    0.184013
      7          7           0        0.229996   -0.432799    0.568744
      8          7           0       -1.558269    1.898291    0.483583
      9          7           0        3.354705   -3.201221   -0.521992
     10          7           0        0.802356    2.792765   -0.007771
     11          6           0       -0.705015   -2.437544    1.348170
     12          6           0       -1.030577   -1.061056    0.995076
     13          6           0        0.686047   -2.606789    1.231588
     14          6           0        1.179538   -1.419825    0.594613
     15          6           0       -3.832475    1.490383    0.285811
     16          6           0       -2.486241    0.886641    0.618352
     17          6           0       -2.297057   -0.370336    0.781258
     18          6           0       -3.580705    2.900746   -0.040878
     19          6           0       -1.705454   -3.355664    1.945772
     20          6           0        5.480047   -2.624424   -1.368245
     21          6           0        3.575012   -1.897485   -0.129952
     22          6           0       -2.057498    3.023333   -0.024144
     23          6           0        4.970450   -1.573444   -0.409691
     24          6           0       -5.162399    0.758053    0.336101
     25          6           0        2.575379   -1.098858    0.405429
     26          6           0        1.396087   -3.808682    1.827163
     27          6           0        4.341314   -3.748050   -1.339036
     28          6           0       -2.031240   -4.579638    0.999374
     29          6           0       -5.372735   -0.121177   -0.895252
     30          6           0       -4.562668    3.859422   -0.456315
     31          6           0       -1.256709    4.066105   -0.353046
     32          6           0        6.949920   -3.184807   -1.161325
     33          6           0        5.807097   -0.627194    0.187110
     34          6           0        0.148211    3.886473   -0.384104
     35          6           0        1.113598    5.091131   -0.629028
     36          6           0        2.303432    4.616327   -0.332708
     37          6           0       -2.959672   -3.987628   -0.180847
     38          6           0        5.411308    0.399849    1.204322
     39          6           0       -6.737699   -0.791193   -0.727772
     40          6           0        3.630487    5.262821   -0.262327
     41          6           0        2.166953    3.123352   -0.049160
     42          6           0        0.649042    6.517254   -0.857845
     43          6           0        4.148535    5.760040    1.125142
     44          1           0        0.225609    0.442719    0.035285
     45          1           0       -3.163554   -1.200915    0.925687
     46          1           0       -2.755254   -2.806875    2.344738
     47          1           0       -1.235283   -3.976567    2.697822
     48          1           0        5.538998   -2.283304   -2.484028
     49          1           0       -5.260428    0.302924    1.406294
     50          1           0       -5.888859    1.672755    0.475412
     51          1           0        3.028023   -0.091417    0.362219
     52          1           0       -0.458380    1.751510    0.682699
     53          1           0        1.598406   -4.663941    1.085824
     54          1           0        2.484940   -3.488709    2.311969
     55          1           0        0.790139   -4.116813    2.820951
     56          1           0        2.493059   -3.746843   -0.532637
     57          1           0       -1.231527   -4.916662    0.365960
     58          1           0       -2.573812   -5.300647    1.588263
     59          1           0       -4.606964   -0.997599   -0.746629
     60          1           0       -5.111846    0.248904   -1.868378
     61          1           0       -4.577117    4.869066    0.102323
     62          1           0       -5.616764    3.493202   -0.701130
     63          1           0       -4.188661    4.080231   -1.471851
     64          1           0       -1.613222    4.878638   -0.720714
     65          1           0        7.711018   -2.297356   -1.299972
     66          1           0        7.223411   -4.181568   -1.598713
     67          1           0        7.071681   -3.452191   -0.045160
     68          1           0        6.858873   -0.763190   -0.112854
     69          1           0        4.811395    1.349210    0.711732
     70          1           0        6.266973    0.782958    1.699453
     71          1           0        4.895989   -0.173921    2.018929
     72          1           0        3.517485    6.061431   -1.016781
     73          1           0        4.511498    4.549239   -0.660231
     74          1           0        0.136016    6.607954   -1.845796
     75          1           0        1.666504    7.229517   -0.746975
     76          1           0       -0.031243    6.949822   -0.147135
     77          1           0        3.305848    6.274062    1.625387
     78          1           0        5.152135    6.513318    0.981795
     79          1           0        4.375018    4.922113    1.782406
     80          1           0       -3.390716   -4.442506   -1.952974
     81          1           0       -8.103811   -1.737091   -1.477667
 ---------------------------------------------------------------------

 SCF Done:  E(RB3LYP) =  -1949.12028952     A.U. after   16 cycles

 Excitation energies and oscillator strengths:

 Excited State   1:      Singlet-A      1.9000 eV  652.56 nm  f=0.3048  <S**2>=0.000
     156 ->157         0.70663
 This state for optimization and/or second-order correction.
 Total Energy, E(TD-HF/TD-DFT) =  -1949.05046657
 Copying the excited state density for this state as the 1-particle RhoCI density.

 The electronic state is 1-A.
 Alpha  occ. eigenvalues --  -19.20502 -19.19076 -19.15797 -19.12763 -19.11483
 Alpha  occ. eigenvalues --  -19.11251 -14.37580 -14.36707 -14.36491 -14.30389
 Alpha  occ. eigenvalues --  -10.34000 -10.33003 -10.28810 -10.27358 -10.24763
 Alpha  occ. eigenvalues --  -10.23875 -10.23829 -10.23743 -10.23067 -10.22570
 Alpha  occ. eigenvalues --  -10.22448 -10.22192 -10.22083 -10.21808 -10.21472
 Alpha  occ. eigenvalues --  -10.21365 -10.21352 -10.21205 -10.20916 -10.20804
 Alpha  occ. eigenvalues --  -10.20424 -10.20234 -10.20146 -10.19842 -10.19827
 Alpha  occ. eigenvalues --  -10.19717 -10.19656 -10.19612 -10.19508 -10.18498
 Alpha  occ. eigenvalues --  -10.18099 -10.17765 -10.17426  -1.11136  -1.09230
 Alpha  occ. eigenvalues --   -1.05161  -1.03363  -1.01466  -0.98248  -0.97676
 Alpha  occ. eigenvalues --   -0.96097  -0.95506  -0.92482  -0.82375  -0.82151
 Alpha  occ. eigenvalues --   -0.81109  -0.80323  -0.80217  -0.78348  -0.77486
 Alpha  occ. eigenvalues --   -0.76982  -0.76041  -0.74091  -0.73495  -0.72081
 Alpha  occ. eigenvalues --   -0.70783  -0.69136  -0.68709  -0.67916  -0.66760
 Alpha  occ. eigenvalues --   -0.66590  -0.64509  -0.63272  -0.62070  -0.61282
 Alpha  occ. eigenvalues --   -0.60800  -0.59133  -0.58452  -0.57355  -0.56866
 Alpha  occ. eigenvalues --   -0.55881  -0.54709  -0.53992  -0.53752  -0.53049
 Alpha  occ. eigenvalues --   -0.52623  -0.51517  -0.50964  -0.49804  -0.49624
 Alpha  occ. eigenvalues --   -0.49306  -0.49040  -0.48270  -0.48070  -0.47112
 Alpha  occ. eigenvalues --   -0.46879  -0.46155  -0.45807  -0.45330  -0.45001
 Alpha  occ. eigenvalues --   -0.44803  -0.44385  -0.43843  -0.43741  -0.43674
 Alpha  occ. eigenvalues --   -0.43428  -0.43082  -0.42970  -0.42376  -0.41898
 Alpha  occ. eigenvalues --   -0.41736  -0.41606  -0.41468  -0.41207  -0.40858
 Alpha  occ. eigenvalues --   -0.40574  -0.40424  -0.40104  -0.40003  -0.39328
 Alpha  occ. eigenvalues --   -0.39244  -0.38853  -0.38731  -0.38442  -0.38102
 Alpha  occ. eigenvalues --   -0.37846  -0.37376  -0.37102  -0.36858  -0.36336
 Alpha  occ. eigenvalues --   -0.36203  -0.35989  -0.35192  -0.34955  -0.34575
 Alpha  occ. eigenvalues --   -0.34312  -0.34125  -0.33560  -0.32902  -0.32666
 Alpha  occ. eigenvalues --   -0.32477  -0.32289  -0.31551  -0.30507  -0.30035
 Alpha  occ. eigenvalues --   -0.28433  -0.28179  -0.26393  -0.25842  -0.25410
 Alpha  occ. eigenvalues --   -0.24904  -0.24718  -0.24139  -0.23936  -0.21628
 Alpha  occ. eigenvalues --   -0.17571
 Alpha virt. eigenvalues --   -0.09724  -0.05546  -0.03632  -0.02098  -0.01220
 Alpha virt. eigenvalues --    0.00524   0.01672   0.02117   0.03028   0.03101
 Alpha virt. eigenvalues --    0.04132   0.04207   0.04477   0.05402   0.05601

 Mulliken charges:
               1
     1  O   -0.164907
     2  O   -0.183373
     3  O   -0.208213
     4  O   -0.192905
     5  O   -0.309891
     6  O   -0.214826
     7  N   -0.137431
     8  N   -0.127758
     9  N   -0.128481
    10  N   -0.303174
    11  C   -0.074168
    12  C   -0.008749
    13  C   -0.119671
    14  C    0.096738
    15  C   -0.144372
    16  C    0.184886
    17  C   -0.142187
    18  C   -0.086394
    19  C    0.047129
    20  C   -0.119908
    21  C    0.024583
    22  C    0.147087
    23  C   -0.001181
    24  C    0.038194
    25  C   -0.067244
    26  C   -0.041259
    27  C    0.114553
    28  C    0.009541
    29  C    0.006121
    30  C    0.040083
    31  C   -0.069037
    32  C   -0.025084
    33  C   -0.121208
    34  C    0.071115
    35  C   -0.082978
    36  C   -0.171294
    37  C    0.133555
    38  C    0.026124
    39  C    0.188502
    40  C    0.016068
    41  C    0.188701
    42  C    0.050782
    43  C   -0.020394
    44  H    0.138567
    45  H    0.070906
    46  H    0.066653
    47  H   -0.008074
    48  H    0.052744
    49  H    0.054074
    50  H    0.026872
    51  H    0.010806
    52  H    0.198197
    53  H    0.048154
    54  H    0.055061
    55  H    0.049267
    56  H    0.129939
    57  H    0.037318
    58  H    0.048658
    59  H    0.076612
    60  H    0.029749
    61  H    0.041869
    62  H    0.032090
    63  H    0.020915
    64  H   -0.122204
    65  H    0.041416
    66  H    0.045985
    67  H    0.008004
    68  H   -0.010980
    69  H    0.126896
    70  H   -0.014239
    71  H    0.031250
    72  H    0.005194
    73  H    0.032885
    74  H    0.031111
    75  H    0.040434
    76  H    0.027894
    77  H    0.009783
    78  H    0.039963
    79  H    0.027835
    80  H    0.155605
    81  H    0.225113
 Sum of Mulliken charges =  -0.00000

 Dipole moment (field-independent basis, Debye):
    X=             -3.7955    Y=              1.2619    Z=             -1.0487  Tot=              4.1349
 Quadrupole moment (field-independent basis, Debye-Ang):
   XX=           -257.3290   YY=           -240.4231   ZZ=           -254.7137
   XY=             13.4352   XZ=             19.8953   YZ=            -12.8559

 Normal termination of Gaussian 16 at Thu Jun 27 02:49:27 2019.
