 Gaussian 16, Revision A.03,
 Gaussian 16:  ES64L-G16RevA.03 25-Dec-2016

 --------------------------
 # td=(NStates=1) B3LYP/SVP
 --------------------------

 --
 TD
 --
 Symbolic Z-matrix:
 Charge =  0 Multiplicity = 1

                         Standard orientation:
 ---------------------------------------------------------------------
 Center     Atomic      Atomic             Coordinates (Angstroms)
 Number     Number       Type             X           Y           Z
 ---------------------------------------------------------------------
      1          8           0        4.591581   -4.658603   -1.890530
      2          8           0       -2.848418   -4.615863   -1.398351
      3          8           0       -7.099029   -1.757527   -1.630034
      4          8           0       -3.772908   -3.128286   -0.139678
      5          8           0       -7.595832   -0.524889    0.106780
      6          8           0        3.095027    2.361463    0.126705
      7          7           0        0.278290   -0.584897    0.609355
      8          7           0       -1.481356    1.784873    0.313521
      9          7           0        3.544308   -3.203713   -0.596420
     10          7           0        0.790214    2.894519    0.017027
     11          6           0       -0.765787   -2.383476    1.407629
     12          6           0       -0.950791   -1.087121    0.892089
     13          6           0        0.631201   -2.640985    1.322136
     14          6           0        1.223565   -1.546001    0.835398
     15          6           0       -3.744061    1.454021    0.312736
     16          6           0       -2.476286    0.814792    0.567154
     17          6           0       -2.260081   -0.460654    0.879973
     18          6           0       -3.548300    2.714128   -0.097361
     19          6           0       -1.836323   -3.354533    1.857277
     20          6           0        5.571290   -2.563591   -1.369320
     21          6           0        3.695161   -1.815416   -0.068070
     22          6           0       -2.067814    2.956510   -0.073284
     23          6           0        5.040922   -1.540392   -0.400121
     24          6           0       -5.129753    0.763956    0.427471
     25          6           0        2.682249   -1.107139    0.504266
     26          6           0        1.344624   -3.871522    1.927077
     27          6           0        4.523195   -3.540948   -1.331999
     28          6           0       -2.100783   -4.495705    0.839682
     29          6           0       -5.421252   -0.228546   -0.744570
     30          6           0       -4.554492    3.811322   -0.359849
     31          6           0       -1.310487    4.102071   -0.398508
     32          6           0        6.995719   -3.192102   -0.994249
     33          6           0        5.855298   -0.526394    0.130459
     34          6           0        0.053629    4.019573   -0.337555
     35          6           0        1.004196    5.089942   -0.587736
     36          6           0        2.223716    4.573490   -0.368444
     37          6           0       -2.957580   -4.065751   -0.239111
     38          6           0        5.431655    0.415177    1.202506
     39          6           0       -6.712226   -0.745353   -0.707834
     40          6           0        3.605078    5.280562   -0.364115
     41          6           0        2.145728    3.138831    0.003430
     42          6           0        0.515218    6.522314   -0.860725
     43          6           0        4.043406    5.688642    1.135709
     44          1           0        0.652730    0.261310    0.445992
     45          1           0       -2.998450   -1.263250    0.950356
     46          1           0       -2.798400   -2.848585    2.366700
     47          1           0       -1.429598   -3.671950    2.718852
     48          1           0        5.576155   -2.178892   -2.394024
     49          1           0       -5.251058    0.141069    1.399030
     50          1           0       -6.009619    1.637724    0.419553
     51          1           0        2.954225    0.012640    0.709199
     52          1           0       -0.401831    1.855558    0.222138
     53          1           0        1.568172   -4.735534    1.380306
     54          1           0        2.401442   -3.364451    2.229686
     55          1           0        0.932606   -3.967282    2.902974
     56          1           0        2.620926   -3.447334   -0.768741
     57          1           0       -1.302312   -4.792525    0.194460
     58          1           0       -2.459662   -5.388310    1.426755
     59          1           0       -4.819324   -1.040484   -0.887927
     60          1           0       -5.423153    0.298923   -1.765655
     61          1           0       -4.448934    4.524922    0.323628
     62          1           0       -5.417749    3.528591   -0.176950
     63          1           0       -4.402264    4.460917   -1.317078
     64          1           0       -1.666608    4.977317   -0.987172
     65          1           0        7.713655   -2.409125   -1.444833
     66          1           0        7.113312   -4.154561   -1.685859
     67          1           0        6.976532   -3.338395    0.270469
     68          1           0        6.858474   -0.625574   -0.500580
     69          1           0        4.836001    1.200931    0.792220
     70          1           0        6.402954    0.800800    1.553635
     71          1           0        4.945566    0.104277    1.951265
     72          1           0        3.505996    6.297824   -0.981781
     73          1           0        4.297387    4.524007   -0.767672
     74          1           0        0.217420    6.507612   -1.962654
     75          1           0        1.424041    7.300425   -0.696691
     76          1           0       -0.513139    6.958421   -0.203867
     77          1           0        3.361291    6.573282    1.549814
     78          1           0        5.205655    6.170002    1.405693
     79          1           0        3.832777    4.652724    1.682169
     80          1           0       -3.422213   -4.344417   -2.145602
     81          1           0       -8.015561   -1.942665   -1.664190
 ---------------------------------------------------------------------

 SCF Done:  E(RB3LYP) =  -1949.01942721     A.U. after   16 cycles

 Excitation energies and oscillator strengths:

 Excited State   1:      Singlet-A      2.0568 eV  602.79 nm  f=0.2785  <S**2>=0.000
     156 ->157         0.70042
 This state for optimization and/or second-order correction.
 Total Energy, E(TD-HF/TD-DFT) =  -1948.94383989
 Copying the excited state density for this state as the 1-particle RhoCI density.

 The electronic state is 1-A.
 Alpha  occ. eigenvalues --  -19.20190 -19.14967 -19.12312 -19.11432 -19.11352
 Alpha  occ. eigenvalues --  -19.07354 -14.37313 -14.36308 -14.35646 -14.29242
 Alpha  occ. eigenvalues --  -10.33334 -10.31370 -10.27125 -10.26071 -10.25524
 Alpha  occ. eigenvalues --  -10.23989 -10.23725 -10.23452 -10.23395 -10.23218
 Alpha  occ. eigenvalues --  -10.23163 -10.22996 -10.22470 -10.21697 -10.21614
 Alpha  occ. eigenvalues --  -10.21400 -10.21361 -10.21222 -10.21020 -10.20887
 Alpha  occ. eigenvalues --  -10.20869 -10.20857 -10.20434 -10.20007 -10.19987
 Alpha  occ. eigenvalues --  -10.19932 -10.19838 -10.19339 -10.19261 -10.19115
 Alpha  occ. eigenvalues --  -10.19066 -10.18536 -10.16388  -1.12712  -1.07010
 Alpha  occ. eigenvalues --   -1.02234  -1.01584  -1.00119  -0.99740  -0.97876
 Alpha  occ. eigenvalues --   -0.97647  -0.93418  -0.92212  -0.83638  -0.83083
 Alpha  occ. eigenvalues --   -0.81904  -0.81791  -0.80050  -0.79878  -0.78803
 Alpha  occ. eigenvalues --   -0.78319  -0.77220  -0.75454  -0.74362  -0.72987
 Alpha  occ. eigenvalues --   -0.72713  -0.71344  -0.69566  -0.68937  -0.67711
 Alpha  occ. eigenvalues --   -0.67041  -0.65758  -0.65348  -0.64666  -0.62256
 Alpha  occ. eigenvalues --   -0.60212  -0.59740  -0.58783  -0.58547  -0.58326
 Alpha  occ. eigenvalues --   -0.57101  -0.56766  -0.55434  -0.53816  -0.52585
 Alpha  occ. eigenvalues --   -0.52336  -0.51981  -0.51302  -0.51233  -0.50436
 Alpha  occ. eigenvalues --   -0.49802  -0.49186  -0.48723  -0.48126  -0.47452
 Alpha  occ. eigenvalues --   -0.46904  -0.46436  -0.46257  -0.46032  -0.45418
 Alpha  occ. eigenvalues --   -0.44818  -0.44601  -0.44282  -0.43965  -0.43788
 Alpha  occ. eigenvalues --   -0.43495  -0.43425  -0.42897  -0.42773  -0.42365
 Alpha  occ. eigenvalues --   -0.41965  -0.41657  -0.40956  -0.40704  -0.40675
 Alpha  occ. eigenvalues --   -0.40421  -0.40148  -0.39954  -0.39662  -0.39336
 Alpha  occ. eigenvalues --   -0.39176  -0.39126  -0.38862  -0.38186  -0.38042
 Alpha  occ. eigenvalues --   -0.37883  -0.37826  -0.37403  -0.36723  -0.36312
 Alpha  occ. eigenvalues --   -0.35919  -0.35440  -0.35378  -0.34679  -0.34454
 Alpha  occ. eigenvalues --   -0.34448  -0.34094  -0.33513  -0.33239  -0.32609
 Alpha  occ. eigenvalues --   -0.32394  -0.32045  -0.30528  -0.30472  -0.28153
 Alpha  occ. eigenvalues --   -0.27963  -0.27095  -0.26322  -0.25910  -0.25796
 Alpha  occ. eigenvalues --   -0.24927  -0.24615  -0.23543  -0.23180  -0.22177
 Alpha  occ. eigenvalues --   -0.19508
 Alpha virt. eigenvalues --   -0.11002  -0.06228  -0.04463  -0.01868   0.00113
 Alpha virt. eigenvalues --    0.01082   0.01769   0.02789   0.02966   0.04160
 Alpha virt. eigenvalues --    0.04367   0.04675   0.05357   0.05815   0.05846

 Mulliken charges:
               1
     1  O   -0.279528
     2  O   -0.133453
     3  O   -0.244034
     4  O   -0.275575
     5  O   -0.239363
     6  O   -0.230503
     7  N    0.015163
     8  N   -0.144968
     9  N   -0.007072
    10  N   -0.362903
    11  C   -0.171009
    12  C    0.028346
    13  C   -0.183198
    14  C    0.011390
    15  C   -0.058674
    16  C    0.222306
    17  C   -0.113373
    18  C   -0.159991
    19  C    0.158555
    20  C   -0.005350
    21  C    0.081348
    22  C    0.098139
    23  C   -0.093843
    24  C    0.014674
    25  C   -0.128928
    26  C    0.086759
    27  C    0.012647
    28  C    0.061636
    29  C    0.110743
    30  C    0.301374
    31  C   -0.112912
    32  C   -0.036184
    33  C   -0.132494
    34  C    0.076134
    35  C   -0.035832
    36  C   -0.207763
    37  C    0.097137
    38  C    0.175124
    39  C    0.097269
    40  C    0.058674
    41  C    0.193898
    42  C   -0.031102
    43  C   -0.117085
    44  H    0.083593
    45  H    0.026603
    46  H    0.039015
    47  H   -0.048425
    48  H    0.037702
    49  H    0.047530
    50  H    0.058027
    51  H    0.055266
    52  H    0.168548
    53  H    0.031888
    54  H    0.027676
    55  H    0.008831
    56  H    0.108790
    57  H    0.024818
    58  H    0.065704
    59  H    0.013118
    60  H    0.042568
    61  H   -0.028928
    62  H   -0.097117
    63  H    0.025714
    64  H   -0.000098
    65  H    0.032732
    66  H    0.064869
    67  H    0.062766
    68  H    0.014016
    69  H    0.061230
    70  H    0.005854
    71  H   -0.036398
    72  H    0.017415
    73  H    0.030816
    74  H    0.043962
    75  H    0.049522
    76  H    0.062098
    77  H    0.030555
    78  H    0.043285
    79  H    0.050565
    80  H    0.213857
    81  H    0.165854
 Sum of Mulliken charges =  -0.00000

 Dipole moment (field-independent basis, Debye):
    X=             -3.9497    Y=              1.8955    Z=             -0.2738  Tot=              4.3895
 Quadrupole moment (field-independent basis, Debye-Ang):
   XX=           -270.9935   YY=           -243.7815   ZZ=           -249.8891
   XY=             17.1259   XZ=             17.9269   YZ=            -14.0935

 Normal termination of Gaussian 16 at Fri Jun 28 16:16:46 2019.
