 Gaussian 16, Revision A.03,
 Gaussian 16:  ES64L-G16RevA.03 25-Dec-2016

 --------------------------
 # td=(NStates=1) B3LYP/SVP
 --------------------------

 --
 TD
 --
 Symbolic Z-matrix:
 Charge =  0 Multiplicity = 1

                         Standard orientation:
 ---------------------------------------------------------------------
 Center     Atomic      Atomic             Coordinates (Angstroms)
 Number     Number       Type             X           Y           Z
 ---------------------------------------------------------------------
      1          8           0        4.628553   -4.819390   -1.710072
      2          8           0       -3.194214   -5.019748   -1.309233
      3          8           0       -7.204029   -1.503267   -1.790024
      4          8           0       -3.769258   -3.148163   -0.122111
      5          8           0       -7.589916   -0.902836    0.369033
      6          8           0        2.994797    2.480353    0.117589
      7          7           0        0.302801   -0.511579    0.456198
      8          7           0       -1.568543    1.823564    0.404086
      9          7           0        3.553405   -3.184270   -0.598623
     10          7           0        0.735068    2.931133   -0.038586
     11          6           0       -0.590686   -2.417671    1.365382
     12          6           0       -0.966022   -1.155415    0.863655
     13          6           0        0.738910   -2.633088    1.140083
     14          6           0        1.313675   -1.509186    0.652635
     15          6           0       -3.842956    1.509740    0.365486
     16          6           0       -2.511539    0.791133    0.470098
     17          6           0       -2.226130   -0.568908    0.688930
     18          6           0       -3.568607    2.873097   -0.003943
     19          6           0       -1.652888   -3.405257    1.761430
     20          6           0        5.629791   -2.664088   -1.183285
     21          6           0        3.712569   -1.905502   -0.021243
     22          6           0       -2.157929    2.963241    0.014317
     23          6           0        5.135504   -1.529199   -0.259516
     24          6           0       -5.226960    0.846592    0.454219
     25          6           0        2.780221   -1.146454    0.539657
     26          6           0        1.449039   -3.874266    1.772712
     27          6           0        4.591813   -3.730042   -1.299051
     28          6           0       -1.997996   -4.557969    0.799624
     29          6           0       -5.491917   -0.099543   -0.796533
     30          6           0       -4.535923    3.934914   -0.171010
     31          6           0       -1.411248    4.110798   -0.178704
     32          6           0        7.089295   -3.208366   -0.906986
     33          6           0        5.916773   -0.485336    0.169385
     34          6           0        0.029604    4.061814   -0.298326
     35          6           0        0.903073    5.193350   -0.508116
     36          6           0        2.145292    4.783938   -0.352803
     37          6           0       -3.002073   -4.116428   -0.261218
     38          6           0        5.497727    0.672009    1.132812
     39          6           0       -6.870601   -0.846953   -0.653454
     40          6           0        3.594204    5.336310   -0.419641
     41          6           0        2.064565    3.264843   -0.121063
     42          6           0        0.519758    6.638808   -0.824686
     43          6           0        4.322465    5.544101    0.873543
     44          1           0        0.368847    0.155775   -0.093144
     45          1           0       -3.091428   -1.347384    0.689687
     46          1           0       -2.613119   -2.819737    2.093844
     47          1           0       -1.247013   -4.037563    2.812441
     48          1           0        5.591561   -2.445435   -2.143870
     49          1           0       -5.117608    0.061053    1.188354
     50          1           0       -5.968085    1.553331    0.262680
     51          1           0        3.000677   -0.131434    0.659235
     52          1           0       -0.511621    1.721282    0.433783
     53          1           0        1.608430   -4.614655    1.093740
     54          1           0        2.530655   -3.661838    2.049009
     55          1           0        0.883225   -4.232544    2.657373
     56          1           0        2.718456   -3.453568   -0.626683
     57          1           0       -1.000192   -4.780021    0.246160
     58          1           0       -2.534729   -5.354145    1.326068
     59          1           0       -4.756630   -0.912887   -1.018237
     60          1           0       -5.656068    0.487575   -1.724548
     61          1           0       -4.364561    4.673987    0.763438
     62          1           0       -5.542789    3.746229   -0.178915
     63          1           0       -4.680968    4.782291   -1.040091
     64          1           0       -2.052024    5.079380   -0.137067
     65          1           0        7.943475   -2.389642   -1.113034
     66          1           0        7.302938   -3.868354   -1.733714
     67          1           0        7.153848   -3.575901   -0.029468
     68          1           0        6.757668   -0.325754   -0.366886
     69          1           0        4.980953    1.474417    0.722457
     70          1           0        6.377361    0.866910    1.698963
     71          1           0        4.940515    0.125652    1.793831
     72          1           0        3.668121    6.451107   -0.908791
     73          1           0        4.145171    4.602227   -1.360211
     74          1           0       -0.005855    6.729545   -1.791767
     75          1           0        1.496596    7.259139   -1.141599
     76          1           0       -0.086815    7.179487    0.023559
     77          1           0        3.485299    6.270541    1.516524
     78          1           0        5.209422    6.326999    0.622180
     79          1           0        4.725550    4.784740    1.332527
     80          1           0       -3.978806   -4.593584   -1.805012
     81          1           0       -8.051839   -1.920862   -1.602143
 ---------------------------------------------------------------------

 SCF Done:  E(RB3LYP) =  -1949.01796537     A.U. after   17 cycles

 Excitation energies and oscillator strengths:

 Excited State   1:      Singlet-A      1.9162 eV  647.01 nm  f=0.3900  <S**2>=0.000
     156 ->157         0.70798
     156 <-157        -0.12213
 This state for optimization and/or second-order correction.
 Total Energy, E(TD-HF/TD-DFT) =  -1948.94754450
 Copying the excited state density for this state as the 1-particle RhoCI density.

 The electronic state is 1-A.
 Alpha  occ. eigenvalues --  -19.20433 -19.19086 -19.15607 -19.12934 -19.11341
 Alpha  occ. eigenvalues --  -19.10110 -14.36414 -14.36056 -14.35260 -14.28639
 Alpha  occ. eigenvalues --  -10.34806 -10.32813 -10.28817 -10.25970 -10.24445
 Alpha  occ. eigenvalues --  -10.23945 -10.23938 -10.23707 -10.23618 -10.23528
 Alpha  occ. eigenvalues --  -10.23282 -10.23248 -10.22307 -10.21967 -10.21804
 Alpha  occ. eigenvalues --  -10.21788 -10.21473 -10.21017 -10.20935 -10.20733
 Alpha  occ. eigenvalues --  -10.20257 -10.20024 -10.19692 -10.19424 -10.19402
 Alpha  occ. eigenvalues --  -10.19369 -10.19349 -10.19039 -10.18934 -10.18828
 Alpha  occ. eigenvalues --  -10.18652 -10.18173 -10.16001  -1.09781  -1.09705
 Alpha  occ. eigenvalues --   -1.06501  -1.01198  -1.00233  -0.99216  -0.98148
 Alpha  occ. eigenvalues --   -0.96859  -0.96331  -0.91810  -0.83417  -0.81906
 Alpha  occ. eigenvalues --   -0.81582  -0.81378  -0.79664  -0.78947  -0.78588
 Alpha  occ. eigenvalues --   -0.77527  -0.76275  -0.74855  -0.74456  -0.72244
 Alpha  occ. eigenvalues --   -0.71409  -0.70282  -0.69427  -0.69024  -0.67763
 Alpha  occ. eigenvalues --   -0.67394  -0.66459  -0.64929  -0.62682  -0.61005
 Alpha  occ. eigenvalues --   -0.60446  -0.60303  -0.59335  -0.58541  -0.58100
 Alpha  occ. eigenvalues --   -0.56488  -0.55002  -0.54744  -0.53895  -0.53361
 Alpha  occ. eigenvalues --   -0.52193  -0.51625  -0.51264  -0.50905  -0.50321
 Alpha  occ. eigenvalues --   -0.50204  -0.48762  -0.48510  -0.48278  -0.47990
 Alpha  occ. eigenvalues --   -0.47581  -0.46757  -0.46017  -0.45870  -0.45553
 Alpha  occ. eigenvalues --   -0.44899  -0.44747  -0.44441  -0.44335  -0.44241
 Alpha  occ. eigenvalues --   -0.43745  -0.43627  -0.42972  -0.42890  -0.42624
 Alpha  occ. eigenvalues --   -0.42315  -0.41682  -0.41372  -0.41215  -0.40815
 Alpha  occ. eigenvalues --   -0.40562  -0.40079  -0.39809  -0.39415  -0.39252
 Alpha  occ. eigenvalues --   -0.38987  -0.38783  -0.38596  -0.38436  -0.38205
 Alpha  occ. eigenvalues --   -0.37931  -0.37452  -0.37155  -0.37057  -0.36693
 Alpha  occ. eigenvalues --   -0.36398  -0.36353  -0.36099  -0.35852  -0.35020
 Alpha  occ. eigenvalues --   -0.34851  -0.34781  -0.34103  -0.32864  -0.32457
 Alpha  occ. eigenvalues --   -0.32299  -0.31997  -0.31226  -0.30417  -0.30074
 Alpha  occ. eigenvalues --   -0.28046  -0.27393  -0.27101  -0.26551  -0.26243
 Alpha  occ. eigenvalues --   -0.25231  -0.24848  -0.23909  -0.23536  -0.21868
 Alpha  occ. eigenvalues --   -0.18333
 Alpha virt. eigenvalues --   -0.10855  -0.06024  -0.04031  -0.03381  -0.00569
 Alpha virt. eigenvalues --    0.00610   0.01969   0.02726   0.03102   0.03391
 Alpha virt. eigenvalues --    0.03919   0.04369   0.04645   0.05285   0.06190

 Mulliken charges:
               1
     1  O   -0.143333
     2  O   -0.226440
     3  O   -0.175397
     4  O   -0.260425
     5  O   -0.268126
     6  O   -0.219819
     7  N   -0.081070
     8  N   -0.085762
     9  N   -0.031067
    10  N   -0.289185
    11  C   -0.061540
    12  C    0.066168
    13  C   -0.149020
    14  C    0.038321
    15  C   -0.138751
    16  C    0.101363
    17  C   -0.109472
    18  C   -0.039947
    19  C   -0.050395
    20  C   -0.038064
    21  C    0.085836
    22  C    0.110729
    23  C    0.029914
    24  C    0.241741
    25  C   -0.046980
    26  C    0.114710
    27  C    0.075408
    28  C    0.073252
    29  C   -0.082002
    30  C   -0.003857
    31  C   -0.171880
    32  C    0.102637
    33  C   -0.155125
    34  C    0.109499
    35  C   -0.089895
    36  C   -0.137680
    37  C    0.153201
    38  C    0.153900
    39  C    0.146574
    40  C   -0.036754
    41  C    0.143868
    42  C    0.035942
    43  C    0.016929
    44  H    0.048303
    45  H    0.062314
    46  H    0.044025
    47  H    0.027652
    48  H   -0.015845
    49  H    0.020621
    50  H   -0.008662
    51  H   -0.012752
    52  H    0.152904
    53  H   -0.009929
    54  H    0.027363
    55  H    0.026016
    56  H    0.033483
    57  H    0.064812
    58  H    0.060160
    59  H    0.065699
    60  H    0.030918
    61  H    0.041924
    62  H   -0.017186
    63  H    0.039550
    64  H    0.005942
    65  H    0.018892
    66  H    0.014629
    67  H   -0.022857
    68  H   -0.038687
    69  H    0.065614
    70  H   -0.012516
    71  H   -0.013589
    72  H    0.011721
    73  H    0.044395
    74  H    0.019621
    75  H    0.024512
    76  H    0.047719
    77  H    0.035411
    78  H    0.022594
    79  H    0.002834
    80  H    0.209077
    81  H    0.175310
 Sum of Mulliken charges =  -0.00000

 Dipole moment (field-independent basis, Debye):
    X=             -3.5717    Y=              0.4355    Z=             -1.4099  Tot=              3.8646
 Quadrupole moment (field-independent basis, Debye-Ang):
   XX=           -248.6960   YY=           -241.0810   ZZ=           -256.2354
   XY=             11.6722   XZ=             16.7747   YZ=            -10.3335

 Normal termination of Gaussian 16 at Sun Jun 30 15:28:42 2019.
