 Gaussian 16, Revision A.03,
 Gaussian 16:  ES64L-G16RevA.03 25-Dec-2016

 --------------------------
 # td=(NStates=1) B3LYP/SVP
 --------------------------

 --
 TD
 --
 Symbolic Z-matrix:
 Charge =  0 Multiplicity = 1

                         Standard orientation:
 ---------------------------------------------------------------------
 Center     Atomic      Atomic             Coordinates (Angstroms)
 Number     Number       Type             X           Y           Z
 ---------------------------------------------------------------------
      1          8           0        4.792516   -4.500790   -1.986259
      2          8           0       -2.498894   -4.766337   -1.448961
      3          8           0       -7.273488   -1.520544   -1.865427
      4          8           0       -3.535012   -3.274458   -0.086048
      5          8           0       -7.846179   -0.692413    0.035447
      6          8           0        2.947476    2.475737   -0.015390
      7          7           0        0.264109   -0.599365    0.621735
      8          7           0       -1.630325    1.743201    0.430851
      9          7           0        3.485925   -3.064637   -0.701714
     10          7           0        0.603798    2.833034   -0.029606
     11          6           0       -0.584879   -2.511140    1.460515
     12          6           0       -0.963507   -1.195999    0.945640
     13          6           0        0.849149   -2.650380    1.347609
     14          6           0        1.323728   -1.441813    0.769745
     15          6           0       -3.797677    1.293415    0.366917
     16          6           0       -2.522628    0.665059    0.604635
     17          6           0       -2.198238   -0.633297    0.780807
     18          6           0       -3.689554    2.632012    0.120693
     19          6           0       -1.503161   -3.516227    1.965875
     20          6           0        5.714723   -2.373357   -1.336936
     21          6           0        3.701686   -1.796166   -0.071534
     22          6           0       -2.211078    2.909731    0.121238
     23          6           0        5.107542   -1.350797   -0.333717
     24          6           0       -5.035837    0.442064    0.496469
     25          6           0        2.669991   -1.073301    0.536173
     26          6           0        1.796723   -3.699940    1.816345
     27          6           0        4.732098   -3.481726   -1.321751
     28          6           0       -1.819521   -4.627750    0.838829
     29          6           0       -5.392599   -0.462402   -0.687377
     30          6           0       -4.604793    3.635778   -0.477216
     31          6           0       -1.518273    4.056508   -0.189430
     32          6           0        7.193661   -2.852778   -1.024971
     33          6           0        5.841591   -0.336458    0.243392
     34          6           0       -0.120984    3.949865   -0.193438
     35          6           0        0.796871    5.147827   -0.486611
     36          6           0        2.054833    4.697940   -0.406228
     37          6           0       -2.728238   -4.143463   -0.263996
     38          6           0        5.330187    0.767500    1.154316
     39          6           0       -6.919728   -0.933181   -0.706158
     40          6           0        3.343531    5.483479   -0.518949
     41          6           0        1.940374    3.264403   -0.048106
     42          6           0        0.237802    6.505431   -0.727192
     43          6           0        3.977521    5.694560    0.897065
     44          1           0        0.622135    0.372336    0.379790
     45          1           0       -2.993344   -1.294977    0.982423
     46          1           0       -2.367907   -2.874120    2.198989
     47          1           0       -1.099887   -3.967261    2.834907
     48          1           0        5.415146   -1.876709   -2.305623
     49          1           0       -4.899662   -0.009102    1.531764
     50          1           0       -6.085310    0.871339    0.574472
     51          1           0        2.846375    0.016862    0.601128
     52          1           0       -0.740151    1.903971    0.658851
     53          1           0        1.794016   -4.597640    1.274863
     54          1           0        2.732200   -3.232021    1.981801
     55          1           0        1.518053   -3.989695    2.957624
     56          1           0        2.672721   -3.786849   -0.738919
     57          1           0       -0.956515   -5.145762    0.477081
     58          1           0       -2.552657   -5.367131    1.334378
     59          1           0       -4.769922   -1.508251   -0.796602
     60          1           0       -5.189466   -0.184475   -1.625217
     61          1           0       -4.628944    4.575070    0.153196
     62          1           0       -5.730906    3.357213   -0.401747
     63          1           0       -4.324221    3.693529   -1.684131
     64          1           0       -2.155479    4.793962   -0.630137
     65          1           0        7.879169   -1.966971   -1.216904
     66          1           0        7.461833   -3.735101   -1.591384
     67          1           0        7.056995   -3.147915    0.021311
     68          1           0        6.793878   -0.462988   -0.136979
     69          1           0        4.783676    1.461289    0.584486
     70          1           0        6.133590    1.479381    1.617860
     71          1           0        4.729979    0.460550    2.012627
     72          1           0        3.410768    6.543869   -1.035548
     73          1           0        4.043868    4.881230   -1.044070
     74          1           0       -0.319752    6.514904   -1.671263
     75          1           0        0.921975    7.354938   -0.971312
     76          1           0       -0.449785    6.957254    0.155074
     77          1           0        3.348096    6.555168    1.463592
     78          1           0        4.938669    6.039393    0.852783
     79          1           0        3.976352    4.882109    1.630273
     80          1           0       -3.323521   -4.366444   -2.014592
     81          1           0       -8.255839   -1.748558   -1.766494
 ---------------------------------------------------------------------

 SCF Done:  E(RB3LYP) =  -1949.15619327     A.U. after   16 cycles

 Excitation energies and oscillator strengths:

 Excited State   1:      Singlet-A      1.9197 eV  645.85 nm  f=0.3779  <S**2>=0.000
     156 ->157         0.70729
     156 <-157        -0.10880
 This state for optimization and/or second-order correction.
 Total Energy, E(TD-HF/TD-DFT) =  -1949.08564593
 Copying the excited state density for this state as the 1-particle RhoCI density.

 The electronic state is 1-A.
 Alpha  occ. eigenvalues --  -19.20710 -19.17482 -19.14750 -19.12338 -19.11244
 Alpha  occ. eigenvalues --  -19.10171 -14.37415 -14.37300 -14.34925 -14.29483
 Alpha  occ. eigenvalues --  -10.33670 -10.31963 -10.29214 -10.26890 -10.25412
 Alpha  occ. eigenvalues --  -10.23272 -10.23154 -10.23130 -10.22937 -10.22674
 Alpha  occ. eigenvalues --  -10.22475 -10.21687 -10.21557 -10.21270 -10.20786
 Alpha  occ. eigenvalues --  -10.20774 -10.20750 -10.20422 -10.20285 -10.20283
 Alpha  occ. eigenvalues --  -10.20162 -10.20083 -10.19911 -10.19845 -10.19681
 Alpha  occ. eigenvalues --  -10.19640 -10.19614 -10.18983 -10.18740 -10.18707
 Alpha  occ. eigenvalues --  -10.18186 -10.17890 -10.17779  -1.10989  -1.09664
 Alpha  occ. eigenvalues --   -1.03175  -1.02448  -0.99103  -0.98902  -0.98378
 Alpha  occ. eigenvalues --   -0.97132  -0.92935  -0.91411  -0.83180  -0.82050
 Alpha  occ. eigenvalues --   -0.81373  -0.81171  -0.79558  -0.78841  -0.77273
 Alpha  occ. eigenvalues --   -0.77019  -0.76568  -0.74884  -0.74169  -0.72611
 Alpha  occ. eigenvalues --   -0.71294  -0.69439  -0.69130  -0.68219  -0.67574
 Alpha  occ. eigenvalues --   -0.67220  -0.65703  -0.64823  -0.62434  -0.61436
 Alpha  occ. eigenvalues --   -0.59662  -0.59408  -0.58860  -0.56533  -0.56015
 Alpha  occ. eigenvalues --   -0.55919  -0.55501  -0.54741  -0.53696  -0.53416
 Alpha  occ. eigenvalues --   -0.52375  -0.51916  -0.51484  -0.50690  -0.49664
 Alpha  occ. eigenvalues --   -0.49182  -0.49104  -0.48453  -0.48093  -0.47489
 Alpha  occ. eigenvalues --   -0.46899  -0.46601  -0.46285  -0.45660  -0.45317
 Alpha  occ. eigenvalues --   -0.45010  -0.44416  -0.43938  -0.43717  -0.43491
 Alpha  occ. eigenvalues --   -0.43112  -0.43002  -0.42694  -0.42040  -0.41989
 Alpha  occ. eigenvalues --   -0.41906  -0.41635  -0.41523  -0.41085  -0.40953
 Alpha  occ. eigenvalues --   -0.40805  -0.40706  -0.40404  -0.40122  -0.39922
 Alpha  occ. eigenvalues --   -0.39310  -0.39097  -0.38909  -0.38831  -0.38410
 Alpha  occ. eigenvalues --   -0.37865  -0.37806  -0.37162  -0.36911  -0.36674
 Alpha  occ. eigenvalues --   -0.36553  -0.36326  -0.35341  -0.35256  -0.34409
 Alpha  occ. eigenvalues --   -0.34306  -0.34182  -0.33927  -0.33250  -0.32649
 Alpha  occ. eigenvalues --   -0.32293  -0.31843  -0.31467  -0.30215  -0.29892
 Alpha  occ. eigenvalues --   -0.27847  -0.27564  -0.26638  -0.26102  -0.25516
 Alpha  occ. eigenvalues --   -0.24964  -0.24453  -0.24286  -0.23728  -0.21734
 Alpha  occ. eigenvalues --   -0.17622
 Alpha virt. eigenvalues --   -0.09981  -0.06071  -0.03900  -0.01128  -0.00695
 Alpha virt. eigenvalues --    0.00534   0.01282   0.02270   0.02893   0.03141
 Alpha virt. eigenvalues --    0.04348   0.04914   0.05150   0.05597   0.06201

 Mulliken charges:
               1
     1  O   -0.216646
     2  O   -0.223589
     3  O   -0.212237
     4  O   -0.213272
     5  O   -0.240675
     6  O   -0.270026
     7  N   -0.111090
     8  N   -0.005665
     9  N   -0.217263
    10  N   -0.303620
    11  C   -0.133978
    12  C    0.106813
    13  C   -0.163726
    14  C    0.055679
    15  C   -0.042314
    16  C    0.097119
    17  C   -0.028136
    18  C   -0.108388
    19  C    0.148525
    20  C   -0.024019
    21  C    0.133578
    22  C   -0.016197
    23  C   -0.120556
    24  C    0.052304
    25  C   -0.147052
    26  C    0.098911
    27  C    0.099396
    28  C    0.035048
    29  C    0.007650
    30  C    0.012049
    31  C   -0.099724
    32  C    0.054379
    33  C   -0.042317
    34  C    0.107291
    35  C   -0.077757
    36  C   -0.131385
    37  C    0.120016
    38  C    0.078095
    39  C    0.119304
    40  C    0.087889
    41  C    0.178441
    42  C    0.057609
    43  C   -0.015601
    44  H    0.171360
    45  H   -0.016003
    46  H    0.010624
    47  H   -0.006569
    48  H    0.066751
    49  H    0.038136
    50  H    0.027157
    51  H    0.022607
    52  H    0.074787
    53  H    0.011659
    54  H    0.019451
    55  H    0.017372
    56  H    0.173550
    57  H    0.022630
    58  H    0.054515
    59  H    0.059784
    60  H   -0.013297
    61  H    0.035799
    62  H    0.023997
    63  H    0.067769
    64  H   -0.024600
    65  H    0.050945
    66  H    0.040009
    67  H    0.025636
    68  H   -0.055388
    69  H    0.051700
    70  H    0.006189
    71  H    0.027972
    72  H    0.022441
    73  H   -0.004004
    74  H    0.017266
    75  H    0.006204
    76  H    0.047233
    77  H    0.006296
    78  H   -0.010310
    79  H    0.023500
    80  H    0.224404
    81  H    0.197566
 Sum of Mulliken charges =  -0.00000

 Dipole moment (field-independent basis, Debye):
    X=             -1.5976    Y=             -0.1621    Z=              0.0060  Tot=              1.6059
 Quadrupole moment (field-independent basis, Debye-Ang):
   XX=           -256.3678   YY=           -235.6776   ZZ=           -254.3255
   XY=             14.2320   XZ=             16.6618   YZ=            -12.5373

 Normal termination of Gaussian 16 at Sun Jun 30 17:14:47 2019.
