 Gaussian 16, Revision A.03,
 Gaussian 16:  ES64L-G16RevA.03 25-Dec-2016

 --------------------------
 # td=(NStates=1) B3LYP/SVP
 --------------------------

 --
 TD
 --
 Symbolic Z-matrix:
 Charge =  0 Multiplicity = 1

                         Standard orientation:
 ---------------------------------------------------------------------
 Center     Atomic      Atomic             Coordinates (Angstroms)
 Number     Number       Type             X           Y           Z
 ---------------------------------------------------------------------
      1          8           0        4.636228   -4.726867   -1.802648
      2          8           0       -3.137917   -4.843201   -1.321973
      3          8           0       -7.208988   -1.642458   -1.576713
      4          8           0       -3.777018   -3.130792   -0.100994
      5          8           0       -7.733012   -0.527210    0.203769
      6          8           0        2.933699    2.323771    0.062784
      7          7           0        0.289633   -0.553251    0.547520
      8          7           0       -1.540800    1.764700    0.354528
      9          7           0        3.539333   -3.035384   -0.695978
     10          7           0        0.698271    2.909924    0.130162
     11          6           0       -0.596052   -2.516570    1.205654
     12          6           0       -0.953636   -1.157005    0.903880
     13          6           0        0.824856   -2.712574    1.128966
     14          6           0        1.408735   -1.485855    0.721192
     15          6           0       -3.755023    1.340670    0.397075
     16          6           0       -2.550709    0.776434    0.639544
     17          6           0       -2.222295   -0.576323    0.826049
     18          6           0       -3.558418    2.719430   -0.035209
     19          6           0       -1.595899   -3.539849    1.807737
     20          6           0        5.681295   -2.551729   -1.222083
     21          6           0        3.699206   -1.896063   -0.101472
     22          6           0       -2.132371    2.892428   -0.011205
     23          6           0        5.122207   -1.487591   -0.274432
     24          6           0       -5.117365    0.760501    0.421939
     25          6           0        2.767981   -1.060222    0.493738
     26          6           0        1.584667   -3.844632    1.697372
     27          6           0        4.639150   -3.596033   -1.283215
     28          6           0       -1.915248   -4.552277    0.674297
     29          6           0       -5.450987   -0.102028   -0.773127
     30          6           0       -4.709816    3.773345   -0.366494
     31          6           0       -1.315546    4.058970   -0.274092
     32          6           0        7.200811   -2.911681   -0.985831
     33          6           0        5.820449   -0.467899    0.374985
     34          6           0        0.045696    4.034847   -0.152434
     35          6           0        0.909408    5.135483   -0.422637
     36          6           0        2.218489    4.764924   -0.322024
     37          6           0       -2.982106   -4.011738   -0.283121
     38          6           0        5.277867    0.464005    1.333506
     39          6           0       -6.872089   -0.725311   -0.674774
     40          6           0        3.551252    5.332929   -0.593750
     41          6           0        2.077812    3.207843   -0.026376
     42          6           0        0.494714    6.547408   -0.797742
     43          6           0        4.296640    5.702792    0.762138
     44          1           0        0.380505    0.158196   -0.303966
     45          1           0       -3.154451   -1.060584    0.793188
     46          1           0       -2.636915   -3.171742    2.097804
     47          1           0       -1.307297   -4.132222    2.584649
     48          1           0        5.632858   -2.089415   -2.371185
     49          1           0       -5.360154    0.293941    1.424786
     50          1           0       -6.047174    1.461147    0.851227
     51          1           0        2.880188    0.065204    0.745724
     52          1           0       -0.477851    1.897876    0.570949
     53          1           0        1.669009   -4.757410    1.018552
     54          1           0        2.549769   -3.695337    2.153458
     55          1           0        0.906829   -4.057743    2.583346
     56          1           0        2.655870   -3.793198   -0.810773
     57          1           0       -1.011636   -4.779600   -0.092315
     58          1           0       -2.491505   -5.491976    1.239120
     59          1           0       -4.869126   -0.901195   -1.105579
     60          1           0       -5.464881    0.596394   -1.591408
     61          1           0       -4.304719    4.971846   -0.074647
     62          1           0       -5.577793    3.515034    0.149605
     63          1           0       -4.902409    3.883872   -1.648828
     64          1           0       -1.924515    4.993364   -0.549168
     65          1           0        8.024677   -2.216851   -1.145351
     66          1           0        7.621577   -3.505601   -1.689339
     67          1           0        7.071467   -3.596670    0.015410
     68          1           0        6.844620   -0.179370   -0.157487
     69          1           0        4.515748    1.414103    0.984168
     70          1           0        6.137182    0.862904    1.851408
     71          1           0        4.492973   -0.003592    2.058030
     72          1           0        3.612746    6.167945   -1.203765
     73          1           0        4.266765    4.679899   -1.217467
     74          1           0       -0.091714    6.429164   -1.753835
     75          1           0        1.343745    7.208071   -0.828023
     76          1           0       -0.118661    7.001257   -0.026987
     77          1           0        3.616750    6.334775    1.493667
     78          1           0        5.311117    5.969473    0.669831
     79          1           0        4.297695    4.805902    1.662468
     80          1           0       -3.877735   -4.405878   -1.730986
     81          1           0       -8.184610   -1.999626   -1.442014
 ---------------------------------------------------------------------

 SCF Done:  E(RB3LYP) =  -1949.03448763     A.U. after   17 cycles

 Excitation energies and oscillator strengths:

 Excited State   1:      Singlet-A      1.8718 eV  662.38 nm  f=0.4005  <S**2>=0.000
     156 ->157         0.70680
     156 <-157        -0.11837
 This state for optimization and/or second-order correction.
 Total Energy, E(TD-HF/TD-DFT) =  -1948.96570017
 Copying the excited state density for this state as the 1-particle RhoCI density.

 The electronic state is 1-A.
 Alpha  occ. eigenvalues --  -19.19389 -19.18256 -19.14709 -19.11899 -19.11369
 Alpha  occ. eigenvalues --  -19.09884 -14.39447 -14.37274 -14.34015 -14.27735
 Alpha  occ. eigenvalues --  -10.33362 -10.32039 -10.30139 -10.26289 -10.25241
 Alpha  occ. eigenvalues --  -10.24122 -10.24095 -10.23880 -10.22854 -10.22834
 Alpha  occ. eigenvalues --  -10.22749 -10.22438 -10.21643 -10.21277 -10.21270
 Alpha  occ. eigenvalues --  -10.21215 -10.21153 -10.21126 -10.20890 -10.20716
 Alpha  occ. eigenvalues --  -10.20664 -10.20517 -10.20334 -10.20016 -10.19971
 Alpha  occ. eigenvalues --  -10.19633 -10.19453 -10.19451 -10.19116 -10.19006
 Alpha  occ. eigenvalues --  -10.18746 -10.18546 -10.18148  -1.12946  -1.08862
 Alpha  occ. eigenvalues --   -1.04334  -1.02675  -1.00055  -0.97681  -0.97332
 Alpha  occ. eigenvalues --   -0.96885  -0.94561  -0.91132  -0.82471  -0.81850
 Alpha  occ. eigenvalues --   -0.81153  -0.80760  -0.79180  -0.78448  -0.77744
 Alpha  occ. eigenvalues --   -0.76520  -0.75786  -0.74900  -0.73890  -0.72132
 Alpha  occ. eigenvalues --   -0.70232  -0.69953  -0.68605  -0.68099  -0.67725
 Alpha  occ. eigenvalues --   -0.66976  -0.65546  -0.63895  -0.62944  -0.61666
 Alpha  occ. eigenvalues --   -0.60144  -0.59229  -0.58234  -0.57469  -0.56436
 Alpha  occ. eigenvalues --   -0.55722  -0.55233  -0.54435  -0.52978  -0.52539
 Alpha  occ. eigenvalues --   -0.51986  -0.51160  -0.50774  -0.50403  -0.49564
 Alpha  occ. eigenvalues --   -0.49512  -0.49292  -0.48595  -0.48143  -0.47346
 Alpha  occ. eigenvalues --   -0.47081  -0.46699  -0.46012  -0.45262  -0.44895
 Alpha  occ. eigenvalues --   -0.44404  -0.44326  -0.44018  -0.43730  -0.43670
 Alpha  occ. eigenvalues --   -0.43275  -0.43105  -0.42616  -0.42384  -0.42329
 Alpha  occ. eigenvalues --   -0.41758  -0.41271  -0.41233  -0.40853  -0.40521
 Alpha  occ. eigenvalues --   -0.40156  -0.40056  -0.39788  -0.39763  -0.39287
 Alpha  occ. eigenvalues --   -0.38542  -0.38512  -0.38209  -0.37733  -0.37652
 Alpha  occ. eigenvalues --   -0.37235  -0.37195  -0.36817  -0.36694  -0.36574
 Alpha  occ. eigenvalues --   -0.35995  -0.35687  -0.35485  -0.35304  -0.34989
 Alpha  occ. eigenvalues --   -0.34726  -0.34212  -0.33505  -0.33106  -0.32858
 Alpha  occ. eigenvalues --   -0.30975  -0.30350  -0.30051  -0.30043  -0.29717
 Alpha  occ. eigenvalues --   -0.27387  -0.27116  -0.26846  -0.26199  -0.25403
 Alpha  occ. eigenvalues --   -0.24807  -0.23787  -0.23418  -0.23062  -0.20889
 Alpha  occ. eigenvalues --   -0.17860
 Alpha virt. eigenvalues --   -0.10519  -0.05918  -0.04330  -0.02359  -0.01917
 Alpha virt. eigenvalues --    0.00334   0.00481   0.01249   0.02767   0.03453
 Alpha virt. eigenvalues --    0.03610   0.04630   0.05197   0.05387   0.05666

 Mulliken charges:
               1
     1  O   -0.233075
     2  O   -0.147159
     3  O   -0.214706
     4  O   -0.224118
     5  O   -0.278542
     6  O   -0.228858
     7  N   -0.212570
     8  N   -0.135244
     9  N   -0.092481
    10  N   -0.311991
    11  C   -0.095219
    12  C    0.164358
    13  C   -0.146039
    14  C    0.062467
    15  C   -0.026633
    16  C    0.050379
    17  C   -0.031010
    18  C   -0.112452
    19  C    0.172456
    20  C   -0.098540
    21  C    0.121852
    22  C    0.033719
    23  C   -0.052025
    24  C   -0.059123
    25  C   -0.154046
    26  C    0.046511
    27  C    0.102331
    28  C   -0.120758
    29  C    0.121062
    30  C    0.005705
    31  C   -0.157810
    32  C    0.089301
    33  C   -0.109622
    34  C    0.160530
    35  C   -0.150076
    36  C   -0.154381
    37  C    0.121102
    38  C   -0.038546
    39  C    0.114621
    40  C    0.112567
    41  C    0.159011
    42  C    0.136808
    43  C   -0.076281
    44  H    0.193569
    45  H   -0.019537
    46  H    0.029480
    47  H   -0.025043
    48  H    0.076743
    49  H    0.019070
    50  H    0.047375
    51  H    0.070779
    52  H    0.179550
    53  H    0.028405
    54  H    0.028749
    55  H    0.027576
    56  H    0.199774
    57  H    0.069934
    58  H    0.078063
    59  H    0.020758
    60  H    0.027093
    61  H    0.047335
    62  H    0.019464
    63  H    0.050118
    64  H   -0.017150
    65  H    0.011839
    66  H   -0.019685
    67  H    0.044502
    68  H    0.028049
    69  H    0.128482
    70  H    0.008286
    71  H    0.035548
    72  H   -0.024468
    73  H    0.021924
    74  H    0.033674
    75  H    0.004230
    76  H    0.011730
    77  H    0.024716
    78  H    0.017315
    79  H    0.021761
    80  H    0.159341
    81  H    0.227178
 Sum of Mulliken charges =  -0.00000

 Dipole moment (field-independent basis, Debye):
    X=             -1.0855    Y=             -1.0355    Z=             -1.0449  Tot=              1.8282
 Quadrupole moment (field-independent basis, Debye-Ang):
   XX=           -247.4916   YY=           -244.8589   ZZ=           -253.7246
   XY=             18.2015   XZ=             11.9996   YZ=            -12.7690

 Normal termination of Gaussian 16 at Mon Jul  1 17:49:42 2019.
