 Gaussian 16, Revision A.03,
 Gaussian 16:  ES64L-G16RevA.03 25-Dec-2016

 --------------------------
 # td=(NStates=1) B3LYP/SVP
 --------------------------

 --
 TD
 --
 Symbolic Z-matrix:
 Charge =  0 Multiplicity = 1

                         Standard orientation:
 ---------------------------------------------------------------------
 Center     Atomic      Atomic             Coordinates (Angstroms)
 Number     Number       Type             X           Y           Z
 ---------------------------------------------------------------------
      1          8           0        4.601908   -4.773774   -1.943443
      2          8           0       -2.924943   -4.713441   -1.328543
      3          8           0       -7.058529   -1.617965   -1.809992
      4          8           0       -3.688368   -3.046121   -0.065549
      5          8           0       -7.617398   -0.829181    0.247849
      6          8           0        3.031768    2.485422    0.313342
      7          7           0        0.313371   -0.536175    0.586005
      8          7           0       -1.543649    1.771710    0.262558
      9          7           0        3.346032   -3.224828   -0.690587
     10          7           0        0.741550    2.916737    0.109627
     11          6           0       -0.650921   -2.393555    1.396020
     12          6           0       -0.980023   -1.063286    0.938594
     13          6           0        0.683937   -2.735250    1.289581
     14          6           0        1.306667   -1.538552    0.728379
     15          6           0       -3.842883    1.460205    0.206789
     16          6           0       -2.605760    0.851332    0.481192
     17          6           0       -2.267259   -0.481178    0.848191
     18          6           0       -3.599306    2.821919   -0.076361
     19          6           0       -1.710284   -3.366474    1.853227
     20          6           0        5.605268   -2.519471   -1.399195
     21          6           0        3.543572   -1.896229   -0.205118
     22          6           0       -2.127600    3.045840   -0.089237
     23          6           0        5.060953   -1.565918   -0.315537
     24          6           0       -5.118555    0.836637    0.398369
     25          6           0        2.620871   -1.156581    0.454855
     26          6           0        1.449939   -3.773217    1.810827
     27          6           0        4.504669   -3.685721   -1.355726
     28          6           0       -2.022482   -4.554746    0.868113
     29          6           0       -5.562431   -0.223137   -0.629663
     30          6           0       -4.575346    3.916418   -0.473994
     31          6           0       -1.266292    4.170440   -0.269195
     32          6           0        7.079065   -2.945924   -1.295928
     33          6           0        5.862410   -0.647306    0.297713
     34          6           0        0.105749    3.934177   -0.275813
     35          6           0        0.991494    5.145498   -0.542772
     36          6           0        2.231507    4.613999   -0.403743
     37          6           0       -2.976596   -4.009348   -0.192683
     38          6           0        5.551806    0.273309    1.531167
     39          6           0       -6.844087   -0.855720   -0.642131
     40          6           0        3.515378    5.409587   -0.374799
     41          6           0        2.151716    3.191493    0.032475
     42          6           0        0.505446    6.541576   -0.920831
     43          6           0        4.187073    5.624914    0.977770
     44          1           0        0.398669    0.411085    0.176587
     45          1           0       -2.978916   -1.192749    1.138352
     46          1           0       -2.751340   -2.946265    2.167874
     47          1           0       -1.324882   -3.681399    2.786681
     48          1           0        5.392851   -1.976654   -2.433063
     49          1           0       -4.956581    0.214624    1.242140
     50          1           0       -5.874256    1.656813    0.521173
     51          1           0        2.946725   -0.143230    0.820473
     52          1           0       -0.627967    1.789547    0.699340
     53          1           0        1.725952   -4.658700    1.171295
     54          1           0        2.373862   -3.317086    2.157874
     55          1           0        1.061778   -4.535694    2.584329
     56          1           0        2.675616   -3.729947   -0.634738
     57          1           0       -1.071126   -4.997202    0.494844
     58          1           0       -2.792884   -5.363396    1.436073
     59          1           0       -4.724700   -1.061578   -0.535812
     60          1           0       -5.270242    0.283549   -1.675052
     61          1           0       -4.454798    4.646984    0.403199
     62          1           0       -5.585992    3.452041   -0.512637
     63          1           0       -4.344934    4.449199   -1.443413
     64          1           0       -1.746812    5.212074   -0.357226
     65          1           0        7.725464   -2.075418   -1.480775
     66          1           0        7.243241   -3.746494   -2.141792
     67          1           0        7.365470   -3.353535   -0.175990
     68          1           0        7.003714   -0.462529   -0.015207
     69          1           0        4.948931    1.089683    1.341620
     70          1           0        6.326807    0.509978    2.127499
     71          1           0        4.826238   -0.257678    2.237371
     72          1           0        3.491745    6.241901   -1.208807
     73          1           0        4.353731    4.886866   -0.938908
     74          1           0       -0.154111    6.509916   -1.814402
     75          1           0        1.423718    7.217537   -1.345480
     76          1           0        0.017216    7.086598   -0.282968
     77          1           0        3.575667    6.229994    1.722752
     78          1           0        5.157830    6.266250    0.817711
     79          1           0        4.361929    4.692607    1.657243
     80          1           0       -3.413333   -4.340923   -2.034530
     81          1           0       -7.927105   -2.092790   -1.759377
 ---------------------------------------------------------------------

 SCF Done:  E(RB3LYP) =  -1949.10778460     A.U. after   16 cycles

 Excitation energies and oscillator strengths:

 Excited State   1:      Singlet-A      1.9593 eV  632.79 nm  f=0.4490  <S**2>=0.000
     156 ->157         0.70959
     156 <-157        -0.12988
 This state for optimization and/or second-order correction.
 Total Energy, E(TD-HF/TD-DFT) =  -1949.03578016
 Copying the excited state density for this state as the 1-particle RhoCI density.

 The electronic state is 1-A.
 Alpha  occ. eigenvalues --  -19.19250 -19.16603 -19.14303 -19.12656 -19.11804
 Alpha  occ. eigenvalues --  -19.11600 -14.37854 -14.36744 -14.35233 -14.28391
 Alpha  occ. eigenvalues --  -10.33817 -10.31537 -10.30157 -10.26927 -10.25637
 Alpha  occ. eigenvalues --  -10.24351 -10.24178 -10.23748 -10.23413 -10.23274
 Alpha  occ. eigenvalues --  -10.22132 -10.21913 -10.21573 -10.21382 -10.21198
 Alpha  occ. eigenvalues --  -10.21054 -10.20911 -10.20877 -10.20823 -10.20674
 Alpha  occ. eigenvalues --  -10.20438 -10.20395 -10.20264 -10.20101 -10.19900
 Alpha  occ. eigenvalues --  -10.19755 -10.19673 -10.19516 -10.19391 -10.19386
 Alpha  occ. eigenvalues --  -10.18961 -10.18142 -10.17407  -1.11807  -1.08347
 Alpha  occ. eigenvalues --   -1.05389  -1.02734  -1.02557  -0.99950  -0.96298
 Alpha  occ. eigenvalues --   -0.95461  -0.95052  -0.93048  -0.83011  -0.82673
 Alpha  occ. eigenvalues --   -0.81655  -0.81002  -0.79197  -0.78693  -0.77845
 Alpha  occ. eigenvalues --   -0.77088  -0.75898  -0.74456  -0.74099  -0.72692
 Alpha  occ. eigenvalues --   -0.71987  -0.70158  -0.69291  -0.68876  -0.68162
 Alpha  occ. eigenvalues --   -0.67202  -0.66409  -0.64953  -0.62295  -0.61831
 Alpha  occ. eigenvalues --   -0.60674  -0.58673  -0.58533  -0.58039  -0.57442
 Alpha  occ. eigenvalues --   -0.55994  -0.54808  -0.54058  -0.53924  -0.53336
 Alpha  occ. eigenvalues --   -0.52815  -0.51781  -0.51157  -0.50490  -0.50104
 Alpha  occ. eigenvalues --   -0.49500  -0.49035  -0.47985  -0.47514  -0.47123
 Alpha  occ. eigenvalues --   -0.46928  -0.46743  -0.46266  -0.45764  -0.45636
 Alpha  occ. eigenvalues --   -0.45234  -0.44636  -0.44241  -0.43730  -0.43583
 Alpha  occ. eigenvalues --   -0.43483  -0.43095  -0.42855  -0.42735  -0.42119
 Alpha  occ. eigenvalues --   -0.41642  -0.41565  -0.41463  -0.41305  -0.41156
 Alpha  occ. eigenvalues --   -0.40851  -0.40479  -0.40253  -0.39675  -0.39632
 Alpha  occ. eigenvalues --   -0.39256  -0.38997  -0.38938  -0.38823  -0.38302
 Alpha  occ. eigenvalues --   -0.38142  -0.37614  -0.37307  -0.37280  -0.36714
 Alpha  occ. eigenvalues --   -0.35859  -0.35712  -0.35357  -0.35053  -0.34971
 Alpha  occ. eigenvalues --   -0.34596  -0.34488  -0.34128  -0.33542  -0.33020
 Alpha  occ. eigenvalues --   -0.32438  -0.32027  -0.30363  -0.30094  -0.29442
 Alpha  occ. eigenvalues --   -0.28357  -0.27988  -0.26891  -0.25947  -0.25397
 Alpha  occ. eigenvalues --   -0.25186  -0.24890  -0.23962  -0.23627  -0.22292
 Alpha  occ. eigenvalues --   -0.17749
 Alpha virt. eigenvalues --   -0.10258  -0.05805  -0.03900  -0.01361  -0.01057
 Alpha virt. eigenvalues --    0.00281   0.01538   0.02774   0.03217   0.04064
 Alpha virt. eigenvalues --    0.04632   0.04765   0.05340   0.05849   0.06020

 Mulliken charges:
               1
     1  O   -0.232309
     2  O   -0.149280
     3  O   -0.257931
     4  O   -0.212418
     5  O   -0.181610
     6  O   -0.120208
     7  N   -0.151344
     8  N   -0.181640
     9  N   -0.019180
    10  N   -0.272519
    11  C   -0.104827
    12  C    0.065157
    13  C   -0.039646
    14  C    0.101811
    15  C   -0.074146
    16  C    0.117049
    17  C   -0.008783
    18  C   -0.157570
    19  C    0.065471
    20  C   -0.117465
    21  C    0.124057
    22  C    0.116946
    23  C    0.011488
    24  C    0.176613
    25  C   -0.151703
    26  C    0.014105
    27  C    0.145035
    28  C   -0.026838
    29  C   -0.129975
    30  C    0.062698
    31  C   -0.184284
    32  C    0.004131
    33  C   -0.177675
    34  C    0.087050
    35  C   -0.088207
    36  C   -0.199591
    37  C    0.123693
    38  C    0.081013
    39  C    0.162669
    40  C    0.050859
    41  C    0.146498
    42  C    0.132318
    43  C   -0.043416
    44  H    0.140949
    45  H   -0.038027
    46  H    0.027461
    47  H   -0.006972
    48  H    0.069805
    49  H   -0.003889
    50  H    0.018909
    51  H    0.041277
    52  H    0.150208
    53  H    0.011940
    54  H    0.042434
    55  H    0.015376
    56  H    0.010161
    57  H    0.045952
    58  H    0.072245
    59  H    0.093499
    60  H    0.043153
    61  H    0.041956
    62  H    0.019991
    63  H    0.045916
    64  H    0.000825
    65  H    0.026527
    66  H    0.054392
    67  H    0.041157
    68  H    0.034180
    69  H    0.037049
    70  H   -0.015093
    71  H    0.006358
    72  H    0.007063
    73  H   -0.003020
    74  H    0.017793
    75  H    0.025518
    76  H   -0.016144
    77  H    0.004747
    78  H    0.026294
    79  H    0.044624
    80  H    0.171395
    81  H    0.187892
 Sum of Mulliken charges =  -0.00000

 Dipole moment (field-independent basis, Debye):
    X=             -1.9077    Y=              0.4334    Z=              0.1346  Tot=              1.9609
 Quadrupole moment (field-independent basis, Debye-Ang):
   XX=           -258.1564   YY=           -240.1754   ZZ=           -253.6738
   XY=             14.9456   XZ=             16.7775   YZ=            -13.4071

 Normal termination of Gaussian 16 at Thu Jul  4 00:29:57 2019.
