 Gaussian 16, Revision A.03,
 Gaussian 16:  ES64L-G16RevA.03 25-Dec-2016

 --------------------------
 # td=(NStates=1) B3LYP/SVP
 --------------------------

 --
 TD
 --
 Symbolic Z-matrix:
 Charge =  0 Multiplicity = 1

                         Standard orientation:
 ---------------------------------------------------------------------
 Center     Atomic      Atomic             Coordinates (Angstroms)
 Number     Number       Type             X           Y           Z
 ---------------------------------------------------------------------
      1          8           0       -4.206039   -4.915802    1.921833
      2          8           0        3.080019   -4.604712    1.231467
      3          8           0        7.085750   -1.375087    1.866920
      4          8           0        3.868745   -2.986944   -0.006478
      5          8           0        7.551224   -0.439539   -0.044018
      6          8           0       -3.130714    2.477969   -0.391183
      7          7           0       -0.354288   -0.606053   -0.684909
      8          7           0        1.498745    1.855658   -0.304960
      9          7           0       -3.194376   -3.232456    0.638181
     10          7           0       -0.955351    2.921649   -0.207711
     11          6           0        0.787895   -2.503699   -1.443094
     12          6           0        0.954881   -1.116992   -1.015010
     13          6           0       -0.661429   -2.688694   -1.417368
     14          6           0       -1.256409   -1.585335   -0.928060
     15          6           0        3.671408    1.531266   -0.304420
     16          6           0        2.398204    0.904621   -0.604659
     17          6           0        2.141785   -0.339633   -0.936548
     18          6           0        3.394774    2.807954    0.156903
     19          6           0        1.971702   -3.318279   -1.940691
     20          6           0       -5.372188   -2.756531    1.426661
     21          6           0       -3.539661   -1.931694    0.047356
     22          6           0        1.942496    3.004037    0.033707
     23          6           0       -4.928512   -1.706332    0.476784
     24          6           0        5.090958    0.809514   -0.347457
     25          6           0       -2.643057   -1.196670   -0.560608
     26          6           0       -1.483563   -3.969732   -1.834020
     27          6           0       -4.247242   -3.847879    1.364398
     28          6           0        2.310461   -4.419374   -0.990777
     29          6           0        5.378317   -0.069307    0.910537
     30          6           0        4.509185    3.940298    0.509939
     31          6           0        1.169991    4.190038    0.249622
     32          6           0       -6.804627   -3.499387    1.352873
     33          6           0       -5.802916   -0.869840   -0.047756
     34          6           0       -0.257857    4.076694    0.173225
     35          6           0       -1.216203    5.198630    0.478500
     36          6           0       -2.438909    4.671090    0.251533
     37          6           0        3.138479   -3.925681    0.116432
     38          6           0       -5.499560    0.173835   -1.167519
     39          6           0        6.768077   -0.636106    0.829505
     40          6           0       -3.718003    5.259036    0.409774
     41          6           0       -2.231102    3.237313   -0.077181
     42          6           0       -0.814865    6.621197    0.899749
     43          6           0       -4.230246    5.823246   -0.873258
     44          1           0       -0.552603    0.265072   -0.295233
     45          1           0        2.961106   -1.144705   -1.115341
     46          1           0        2.914013   -2.727108   -2.299949
     47          1           0        1.509087   -3.861592   -2.770511
     48          1           0       -5.472511   -2.382620    2.407289
     49          1           0        4.991971    0.199311   -1.222446
     50          1           0        5.840333    1.435546   -0.281505
     51          1           0       -2.997934   -0.110791   -0.847357
     52          1           0        0.500006    1.783499   -0.633116
     53          1           0       -1.435539   -4.730300   -1.241951
     54          1           0       -2.510877   -3.768690   -1.918403
     55          1           0       -1.055287   -4.471781   -2.575825
     56          1           0       -2.266940   -3.637087    0.742466
     57          1           0        1.248544   -4.922158   -0.585409
     58          1           0        2.805651   -5.167960   -1.692822
     59          1           0        4.754588   -0.864630    1.236613
     60          1           0        5.447387    0.563772    1.937483
     61          1           0        4.164901    4.731683   -0.297518
     62          1           0        5.589645    3.597323    0.295739
     63          1           0        4.167130    4.431360    1.514468
     64          1           0        1.629523    5.060594    0.558820
     65          1           0       -7.713284   -3.002623    1.873977
     66          1           0       -6.607780   -4.253198    2.209655
     67          1           0       -6.846378   -3.857830    0.257181
     68          1           0       -6.788241   -0.840030    0.346411
     69          1           0       -5.057705    0.995020   -0.657803
     70          1           0       -6.568172    0.182588   -1.525765
     71          1           0       -4.722721   -0.110234   -1.927999
     72          1           0       -3.698325    6.124939    1.031164
     73          1           0       -4.445076    4.565156    1.045252
     74          1           0       -0.182320    6.480907    1.668394
     75          1           0       -1.785363    7.254425    1.244401
     76          1           0       -0.246928    7.170028    0.054319
     77          1           0       -3.663665    6.635206   -1.272334
     78          1           0       -5.312023    6.325636   -0.812810
     79          1           0       -4.186559    5.084325   -1.936601
     80          1           0        3.853219   -4.265668    1.819816
     81          1           0        7.890565   -1.791684    1.760296
 ---------------------------------------------------------------------

 SCF Done:  E(RB3LYP) =  -1949.09041594     A.U. after   18 cycles

 Excitation energies and oscillator strengths:

 Excited State   1:      Singlet-A      2.1936 eV  565.21 nm  f=0.3694  <S**2>=0.000
     156 ->157         0.70013
 This state for optimization and/or second-order correction.
 Total Energy, E(TD-HF/TD-DFT) =  -1949.00980224
 Copying the excited state density for this state as the 1-particle RhoCI density.

 The electronic state is 1-A.
 Alpha  occ. eigenvalues --  -19.20578 -19.17885 -19.14143 -19.11874 -19.11189
 Alpha  occ. eigenvalues --  -19.08409 -14.37129 -14.36905 -14.35877 -14.28190
 Alpha  occ. eigenvalues --  -10.33350 -10.31386 -10.28879 -10.24690 -10.24398
 Alpha  occ. eigenvalues --  -10.23823 -10.23477 -10.23466 -10.23190 -10.23160
 Alpha  occ. eigenvalues --  -10.22924 -10.22724 -10.22004 -10.21519 -10.21464
 Alpha  occ. eigenvalues --  -10.21026 -10.20842 -10.20789 -10.20337 -10.20205
 Alpha  occ. eigenvalues --  -10.20177 -10.20081 -10.19667 -10.19492 -10.19343
 Alpha  occ. eigenvalues --  -10.19099 -10.19007 -10.18734 -10.18607 -10.18448
 Alpha  occ. eigenvalues --  -10.17635 -10.17531 -10.17219  -1.13039  -1.11998
 Alpha  occ. eigenvalues --   -1.03192  -1.02885  -1.01793  -1.01526  -1.00608
 Alpha  occ. eigenvalues --   -0.97640  -0.92868  -0.90849  -0.83308  -0.82488
 Alpha  occ. eigenvalues --   -0.81133  -0.81060  -0.80500  -0.79171  -0.78123
 Alpha  occ. eigenvalues --   -0.77527  -0.76423  -0.74933  -0.73845  -0.73226
 Alpha  occ. eigenvalues --   -0.71234  -0.70131  -0.69130  -0.68809  -0.68546
 Alpha  occ. eigenvalues --   -0.67868  -0.65398  -0.63582  -0.62196  -0.61821
 Alpha  occ. eigenvalues --   -0.61569  -0.60198  -0.58874  -0.57907  -0.56984
 Alpha  occ. eigenvalues --   -0.56344  -0.55983  -0.55334  -0.54543  -0.53229
 Alpha  occ. eigenvalues --   -0.53027  -0.52341  -0.51093  -0.50904  -0.50135
 Alpha  occ. eigenvalues --   -0.49911  -0.49173  -0.48564  -0.48052  -0.47775
 Alpha  occ. eigenvalues --   -0.47318  -0.46643  -0.46334  -0.46119  -0.45790
 Alpha  occ. eigenvalues --   -0.44962  -0.44704  -0.44360  -0.43937  -0.43627
 Alpha  occ. eigenvalues --   -0.43496  -0.43195  -0.42928  -0.42572  -0.41988
 Alpha  occ. eigenvalues --   -0.41788  -0.41568  -0.41336  -0.41026  -0.40232
 Alpha  occ. eigenvalues --   -0.40138  -0.40058  -0.39801  -0.39691  -0.39506
 Alpha  occ. eigenvalues --   -0.39342  -0.39179  -0.39029  -0.38881  -0.38472
 Alpha  occ. eigenvalues --   -0.38234  -0.37961  -0.37295  -0.36865  -0.36592
 Alpha  occ. eigenvalues --   -0.35830  -0.35425  -0.35196  -0.34964  -0.34853
 Alpha  occ. eigenvalues --   -0.34471  -0.34251  -0.33340  -0.33289  -0.32844
 Alpha  occ. eigenvalues --   -0.32737  -0.32191  -0.30860  -0.30240  -0.30051
 Alpha  occ. eigenvalues --   -0.27980  -0.26986  -0.26150  -0.25900  -0.25504
 Alpha  occ. eigenvalues --   -0.25307  -0.24841  -0.23436  -0.23113  -0.21855
 Alpha  occ. eigenvalues --   -0.18801
 Alpha virt. eigenvalues --   -0.09993  -0.05104  -0.02913  -0.01822   0.00361
 Alpha virt. eigenvalues --    0.01265   0.01809   0.02302   0.03094   0.03956
 Alpha virt. eigenvalues --    0.04425   0.05196   0.05463   0.06135   0.06510

 Mulliken charges:
               1
     1  O   -0.199119
     2  O   -0.162997
     3  O   -0.124399
     4  O   -0.227791
     5  O   -0.217691
     6  O   -0.213699
     7  N   -0.078005
     8  N    0.028865
     9  N   -0.214716
    10  N   -0.271742
    11  C   -0.104240
    12  C   -0.038485
    13  C   -0.206989
    14  C    0.087370
    15  C   -0.128100
    16  C    0.126058
    17  C   -0.084409
    18  C   -0.161693
    19  C    0.093388
    20  C   -0.077954
    21  C    0.170823
    22  C    0.044513
    23  C    0.057165
    24  C    0.284146
    25  C   -0.175870
    26  C    0.270481
    27  C    0.148430
    28  C   -0.055816
    29  C   -0.046534
    30  C    0.017091
    31  C   -0.083727
    32  C   -0.022115
    33  C   -0.177318
    34  C    0.080000
    35  C   -0.105007
    36  C   -0.180103
    37  C    0.126853
    38  C    0.049500
    39  C    0.088025
    40  C    0.121884
    41  C    0.100297
    42  C    0.107680
    43  C   -0.066871
    44  H    0.103137
    45  H    0.041237
    46  H    0.057275
    47  H   -0.002041
    48  H    0.020241
    49  H    0.016621
    50  H   -0.054238
    51  H    0.064023
    52  H    0.153264
    53  H   -0.054561
    54  H    0.013141
    55  H   -0.055487
    56  H    0.131242
    57  H    0.064985
    58  H    0.063855
    59  H    0.018606
    60  H    0.043382
    61  H    0.045549
    62  H    0.059556
    63  H    0.047639
    64  H   -0.064128
    65  H    0.026492
    66  H    0.042263
    67  H    0.043668
    68  H   -0.020474
    69  H    0.066725
    70  H    0.025048
    71  H    0.035579
    72  H   -0.030513
    73  H    0.031678
    74  H   -0.003904
    75  H    0.038494
    76  H    0.041178
    77  H   -0.001876
    78  H    0.020929
    79  H    0.032866
    80  H    0.215198
    81  H    0.146170
 Sum of Mulliken charges =  -0.00000

 Dipole moment (field-independent basis, Debye):
    X=              4.3226    Y=             -0.1877    Z=              1.2641  Tot=              4.5075
 Quadrupole moment (field-independent basis, Debye-Ang):
   XX=           -253.6167   YY=           -237.9407   ZZ=           -252.8856
   XY=            -19.4792   XZ=             11.4424   YZ=             15.4369

 Normal termination of Gaussian 16 at Fri Jun 28 12:42:01 2019.
