 Gaussian 16, Revision A.03,
 Gaussian 16:  ES64L-G16RevA.03 25-Dec-2016

 --------------------------
 # td=(NStates=1) B3LYP/SVP
 --------------------------

 --
 TD
 --
 Symbolic Z-matrix:
 Charge =  0 Multiplicity = 1

                         Standard orientation:
 ---------------------------------------------------------------------
 Center     Atomic      Atomic             Coordinates (Angstroms)
 Number     Number       Type             X           Y           Z
 ---------------------------------------------------------------------
      1          8           0        4.624453   -4.546522   -1.982525
      2          8           0       -2.545281   -4.793392   -1.386632
      3          8           0       -7.035018   -1.633904   -1.861362
      4          8           0       -3.523493   -3.130441   -0.198975
      5          8           0       -7.581147   -0.892125    0.122050
      6          8           0        2.888871    2.631265    0.193378
      7          7           0        0.350885   -0.563284    0.731702
      8          7           0       -1.618479    1.710126    0.440263
      9          7           0        3.476099   -3.001147   -0.598743
     10          7           0        0.629070    2.973137    0.064298
     11          6           0       -0.611196   -2.479957    1.396030
     12          6           0       -0.860678   -1.236134    1.012757
     13          6           0        0.887754   -2.690049    1.298686
     14          6           0        1.388274   -1.478410    0.813046
     15          6           0       -3.868197    1.327905    0.481672
     16          6           0       -2.439693    0.666094    0.606814
     17          6           0       -2.179469   -0.658741    0.723717
     18          6           0       -3.659597    2.687088    0.131597
     19          6           0       -1.547717   -3.518683    1.958074
     20          6           0        5.625448   -2.495044   -1.343018
     21          6           0        3.685679   -1.786522   -0.049490
     22          6           0       -2.176889    2.862565    0.012197
     23          6           0        5.131166   -1.430019   -0.364855
     24          6           0       -5.067756    0.584108    0.351635
     25          6           0        2.644717   -1.119204    0.458076
     26          6           0        1.606359   -4.012640    1.773252
     27          6           0        4.499883   -3.468676   -1.375117
     28          6           0       -1.939376   -4.674917    0.954164
     29          6           0       -5.356558   -0.289933   -0.911361
     30          6           0       -4.697329    3.628115   -0.227564
     31          6           0       -1.492010    4.051387   -0.335217
     32          6           0        7.029943   -3.014685   -1.096309
     33          6           0        5.849595   -0.458250    0.187654
     34          6           0       -0.074591    4.101613   -0.223088
     35          6           0        0.738101    5.221961   -0.429653
     36          6           0        2.020357    4.787833   -0.417820
     37          6           0       -2.745296   -4.075650   -0.285047
     38          6           0        5.531451    0.682589    1.148425
     39          6           0       -6.838394   -0.909565   -0.807658
     40          6           0        3.356331    5.556924   -0.523350
     41          6           0        1.948951    3.348855   -0.018140
     42          6           0        0.293227    6.581195   -0.752007
     43          6           0        3.946977    5.847280    0.844009
     44          1           0        0.416401    0.387061    0.151294
     45          1           0       -3.056435   -1.133088    0.835082
     46          1           0       -2.512257   -3.213944    2.334134
     47          1           0       -1.042139   -4.007089    2.904652
     48          1           0        5.372260   -2.226362   -2.439791
     49          1           0       -5.055319   -0.181001    1.088641
     50          1           0       -5.868650    1.259795    0.953346
     51          1           0        2.934986    0.002020    0.636810
     52          1           0       -0.685701    1.557579    0.561879
     53          1           0        1.312400   -5.065146    1.253148
     54          1           0        2.585875   -3.564827    1.955021
     55          1           0        1.336298   -3.962069    3.020538
     56          1           0        2.569562   -3.493156   -0.678893
     57          1           0       -1.107415   -5.178903    0.518971
     58          1           0       -2.588600   -5.257483    1.608944
     59          1           0       -4.563456   -1.085423   -0.787490
     60          1           0       -5.182845    0.316406   -1.933415
     61          1           0       -5.013491    4.307631    0.662716
     62          1           0       -5.772955    3.243284   -0.579647
     63          1           0       -4.281678    4.285420   -1.095492
     64          1           0       -2.154212    4.890041   -0.684911
     65          1           0        7.891525   -2.212863   -0.856306
     66          1           0        7.260768   -3.578578   -2.043416
     67          1           0        7.133991   -3.781736   -0.006582
     68          1           0        6.805620   -0.272305   -0.158256
     69          1           0        5.105307    1.523536    0.673386
     70          1           0        6.478812    0.815815    1.822154
     71          1           0        4.689526    0.273935    1.950649
     72          1           0        3.182904    6.658647   -1.033175
     73          1           0        4.014930    4.804729   -1.287593
     74          1           0       -0.410549    6.737226   -1.566269
     75          1           0        1.125590    7.452047   -1.286676
     76          1           0       -0.260017    7.166512    0.096818
     77          1           0        3.137264    6.304734    1.564243
     78          1           0        4.896909    6.322275    0.736711
     79          1           0        4.174040    4.966849    1.529048
     80          1           0       -3.214584   -4.731284   -2.032132
     81          1           0       -7.921566   -2.071747   -1.890922
 ---------------------------------------------------------------------

 SCF Done:  E(RB3LYP) =  -1949.04713788     A.U. after   16 cycles

 Excitation energies and oscillator strengths:

 Excited State   1:      Singlet-A      1.7978 eV  689.65 nm  f=0.2808  <S**2>=0.000
     156 ->157         0.70558
 This state for optimization and/or second-order correction.
 Total Energy, E(TD-HF/TD-DFT) =  -1948.98107023
 Copying the excited state density for this state as the 1-particle RhoCI density.

 The electronic state is 1-A.
 Alpha  occ. eigenvalues --  -19.20133 -19.19116 -19.14432 -19.12773 -19.10193
 Alpha  occ. eigenvalues --  -19.09667 -14.37098 -14.37003 -14.36655 -14.28011
 Alpha  occ. eigenvalues --  -10.34244 -10.32515 -10.28257 -10.25611 -10.25509
 Alpha  occ. eigenvalues --  -10.23534 -10.23318 -10.22872 -10.22473 -10.22445
 Alpha  occ. eigenvalues --  -10.22428 -10.22324 -10.21767 -10.21731 -10.21575
 Alpha  occ. eigenvalues --  -10.21511 -10.21270 -10.21160 -10.21134 -10.20990
 Alpha  occ. eigenvalues --  -10.20631 -10.20017 -10.20006 -10.19854 -10.19718
 Alpha  occ. eigenvalues --  -10.19590 -10.19287 -10.19083 -10.18967 -10.18778
 Alpha  occ. eigenvalues --  -10.18667 -10.18531 -10.17723  -1.11922  -1.11849
 Alpha  occ. eigenvalues --   -1.02285  -1.02210  -1.02035  -1.01781  -0.99666
 Alpha  occ. eigenvalues --   -0.96488  -0.95580  -0.92445  -0.82539  -0.81867
 Alpha  occ. eigenvalues --   -0.81198  -0.80623  -0.79463  -0.79143  -0.76770
 Alpha  occ. eigenvalues --   -0.76291  -0.76147  -0.74971  -0.74149  -0.72164
 Alpha  occ. eigenvalues --   -0.70929  -0.69246  -0.69066  -0.68195  -0.67850
 Alpha  occ. eigenvalues --   -0.67119  -0.65876  -0.64569  -0.62917  -0.62382
 Alpha  occ. eigenvalues --   -0.62090  -0.60416  -0.59014  -0.57596  -0.57096
 Alpha  occ. eigenvalues --   -0.55776  -0.55176  -0.54363  -0.53464  -0.52932
 Alpha  occ. eigenvalues --   -0.52097  -0.51929  -0.50953  -0.49886  -0.49722
 Alpha  occ. eigenvalues --   -0.49034  -0.48657  -0.48300  -0.47939  -0.47522
 Alpha  occ. eigenvalues --   -0.47025  -0.46933  -0.46357  -0.45437  -0.44816
 Alpha  occ. eigenvalues --   -0.44658  -0.44548  -0.44379  -0.43892  -0.43518
 Alpha  occ. eigenvalues --   -0.42974  -0.42739  -0.42435  -0.42127  -0.42043
 Alpha  occ. eigenvalues --   -0.41751  -0.41488  -0.41284  -0.40897  -0.40452
 Alpha  occ. eigenvalues --   -0.40188  -0.39924  -0.39683  -0.39334  -0.39182
 Alpha  occ. eigenvalues --   -0.39020  -0.38948  -0.38692  -0.38142  -0.37930
 Alpha  occ. eigenvalues --   -0.37595  -0.37337  -0.36714  -0.36319  -0.35848
 Alpha  occ. eigenvalues --   -0.35403  -0.35172  -0.34723  -0.34283  -0.33835
 Alpha  occ. eigenvalues --   -0.33531  -0.33366  -0.33181  -0.33004  -0.32706
 Alpha  occ. eigenvalues --   -0.31634  -0.31270  -0.31049  -0.30019  -0.29475
 Alpha  occ. eigenvalues --   -0.28618  -0.27661  -0.26409  -0.26148  -0.24889
 Alpha  occ. eigenvalues --   -0.24296  -0.23937  -0.23834  -0.23314  -0.21231
 Alpha  occ. eigenvalues --   -0.17918
 Alpha virt. eigenvalues --   -0.10502  -0.05552  -0.03666  -0.02125   0.00826
 Alpha virt. eigenvalues --    0.00992   0.02247   0.02791   0.03188   0.03599
 Alpha virt. eigenvalues --    0.03902   0.04165   0.04528   0.04718   0.05946

 Mulliken charges:
               1
     1  O   -0.252688
     2  O   -0.137347
     3  O   -0.145838
     4  O   -0.230920
     5  O   -0.203157
     6  O   -0.176321
     7  N   -0.172764
     8  N    0.051264
     9  N   -0.083959
    10  N   -0.294443
    11  C   -0.084327
    12  C    0.084913
    13  C   -0.207341
    14  C    0.143860
    15  C   -0.110330
    16  C   -0.017678
    17  C    0.067561
    18  C   -0.072438
    19  C    0.052862
    20  C    0.004454
    21  C    0.048551
    22  C    0.086802
    23  C    0.049688
    24  C    0.067215
    25  C   -0.187885
    26  C    0.019773
    27  C    0.063222
    28  C    0.034177
    29  C   -0.057661
    30  C   -0.024623
    31  C   -0.134191
    32  C   -0.030888
    33  C   -0.177162
    34  C    0.120265
    35  C   -0.013467
    36  C   -0.185087
    37  C    0.134924
    38  C    0.021919
    39  C    0.123733
    40  C   -0.003726
    41  C    0.120625
    42  C   -0.022346
    43  C   -0.005714
    44  H    0.179924
    45  H   -0.070147
    46  H    0.004161
    47  H    0.020352
    48  H    0.054204
    49  H   -0.007376
    50  H    0.029637
    51  H    0.046154
    52  H    0.073082
    53  H    0.085670
    54  H    0.028461
    55  H    0.035768
    56  H    0.141304
    57  H    0.017383
    58  H    0.042508
    59  H    0.070400
    60  H    0.053228
    61  H    0.045665
    62  H    0.047024
    63  H    0.039568
    64  H   -0.013143
    65  H    0.046805
    66  H    0.045108
    67  H    0.041231
    68  H   -0.029369
    69  H    0.067442
    70  H    0.027322
    71  H    0.033521
    72  H    0.025749
    73  H    0.046727
    74  H    0.016057
    75  H    0.031849
    76  H    0.034043
    77  H    0.026053
    78  H    0.016147
    79  H    0.023057
    80  H    0.171896
    81  H    0.189034
 Sum of Mulliken charges =  -0.00000

 Dipole moment (field-independent basis, Debye):
    X=             -4.8633    Y=              0.3578    Z=             -1.2757  Tot=              5.0406
 Quadrupole moment (field-independent basis, Debye-Ang):
   XX=           -247.9725   YY=           -238.7722   ZZ=           -253.1766
   XY=             22.6208   XZ=             22.3798   YZ=             -9.5279

 Normal termination of Gaussian 16 at Thu Jul  4 10:53:25 2019.
