 Gaussian 16, Revision A.03,
 Gaussian 16:  ES64L-G16RevA.03 25-Dec-2016

 --------------------------
 # td=(NStates=1) B3LYP/SVP
 --------------------------

 --
 TD
 --
 Symbolic Z-matrix:
 Charge =  0 Multiplicity = 1

                         Standard orientation:
 ---------------------------------------------------------------------
 Center     Atomic      Atomic             Coordinates (Angstroms)
 Number     Number       Type             X           Y           Z
 ---------------------------------------------------------------------
      1          8           0        4.109788   -4.914437   -1.813881
      2          8           0       -3.243154   -4.753322   -1.187581
      3          8           0       -7.062753   -1.180402   -1.901703
      4          8           0       -3.768946   -2.877211   -0.147656
      5          8           0       -7.507596   -0.631248    0.265809
      6          8           0        3.153884    2.420750    0.246688
      7          7           0        0.265944   -0.518250    0.566622
      8          7           0       -1.359801    1.760558    0.295464
      9          7           0        3.221098   -3.286316   -0.495517
     10          7           0        0.869684    2.878542    0.025311
     11          6           0       -0.758776   -2.393671    1.452099
     12          6           0       -0.988605   -1.053875    0.923942
     13          6           0        0.686099   -2.590406    1.294012
     14          6           0        1.284309   -1.421885    0.739546
     15          6           0       -3.709497    1.573853    0.226915
     16          6           0       -2.390394    0.886400    0.558851
     17          6           0       -2.246239   -0.350122    0.997786
     18          6           0       -3.392552    2.936620   -0.086825
     19          6           0       -1.739450   -3.406020    2.046039
     20          6           0        5.277455   -2.790369   -1.472856
     21          6           0        3.455201   -1.987199   -0.193287
     22          6           0       -1.895575    2.963739   -0.037221
     23          6           0        4.952253   -1.757108   -0.522300
     24          6           0       -5.027049    0.955556    0.334700
     25          6           0        2.630596   -1.101899    0.365955
     26          6           0        1.415254   -3.819488    1.766699
     27          6           0        4.205565   -3.862246   -1.344385
     28          6           0       -2.326855   -4.494462    1.063026
     29          6           0       -5.433614    0.091040   -0.900119
     30          6           0       -4.371327    3.995596   -0.361747
     31          6           0       -1.071953    4.107554   -0.414384
     32          6           0        6.681695   -3.454275   -1.210403
     33          6           0        5.832020   -0.861222    0.081909
     34          6           0        0.298662    4.061295   -0.277314
     35          6           0        1.217778    5.125753   -0.668333
     36          6           0        2.501982    4.624611   -0.302087
     37          6           0       -3.177744   -3.863887   -0.113394
     38          6           0        5.493619    0.277981    1.150232
     39          6           0       -6.691439   -0.664364   -0.625200
     40          6           0        3.886029    5.257270   -0.283966
     41          6           0        2.169593    3.102113    0.031129
     42          6           0        0.710551    6.506115   -0.819555
     43          6           0        4.363600    5.443629    1.179728
     44          1           0        0.273849    0.194518   -0.306310
     45          1           0       -3.219119   -0.825371    1.087765
     46          1           0       -2.442256   -2.739669    2.311734
     47          1           0       -1.231765   -4.031119    2.903015
     48          1           0        5.390441   -2.535180   -2.526023
     49          1           0       -5.156311    0.423436    1.318092
     50          1           0       -5.771469    1.703856    0.578214
     51          1           0        2.943683    0.063355    0.436162
     52          1           0       -0.407064    1.725278    0.501202
     53          1           0        1.455543   -4.766366    0.961322
     54          1           0        2.330082   -3.632192    2.237079
     55          1           0        0.819408   -4.260240    2.567476
     56          1           0        2.275125   -3.726247   -0.528922
     57          1           0       -1.593792   -5.002547    0.618364
     58          1           0       -3.012099   -5.128636    1.761275
     59          1           0       -4.666157   -0.823805   -1.221069
     60          1           0       -5.359659    0.816593   -1.871619
     61          1           0       -4.162959    4.995907    0.396568
     62          1           0       -5.481037    3.629552   -0.279813
     63          1           0       -4.285272    4.517678   -1.412421
     64          1           0       -1.798928    4.927899   -0.858963
     65          1           0        7.496828   -2.640232   -1.301618
     66          1           0        6.904997   -4.269158   -1.871873
     67          1           0        6.903421   -3.627235   -0.114109
     68          1           0        6.813739   -0.843262   -0.353493
     69          1           0        4.717538    1.009780    0.609120
     70          1           0        6.425834    0.826577    1.554083
     71          1           0        4.917529   -0.308295    1.795150
     72          1           0        3.802301    6.351245   -0.645681
     73          1           0        4.605098    4.658471   -0.984171
     74          1           0       -0.109295    6.641343   -1.647163
     75          1           0        1.489249    7.362315   -0.882618
     76          1           0        0.097859    6.799562    0.103471
     77          1           0        3.638741    6.008496    1.739126
     78          1           0        5.474980    5.925416    1.302033
     79          1           0        4.350894    4.422460    1.629243
     80          1           0       -4.016937   -4.488363   -1.752413
     81          1           0       -7.888432   -1.930346   -1.763923
 ---------------------------------------------------------------------

 SCF Done:  E(RB3LYP) =  -1949.10297665     A.U. after   16 cycles

 Excitation energies and oscillator strengths:

 Excited State   1:      Singlet-A      1.9382 eV  639.68 nm  f=0.3620  <S**2>=0.000
     156 ->157         0.70669
 This state for optimization and/or second-order correction.
 Total Energy, E(TD-HF/TD-DFT) =  -1949.03174790
 Copying the excited state density for this state as the 1-particle RhoCI density.

 The electronic state is 1-A.
 Alpha  occ. eigenvalues --  -19.18237 -19.17467 -19.15684 -19.14474 -19.12204
 Alpha  occ. eigenvalues --  -19.09236 -14.38047 -14.36576 -14.36244 -14.28334
 Alpha  occ. eigenvalues --  -10.33751 -10.32989 -10.29146 -10.25654 -10.25312
 Alpha  occ. eigenvalues --  -10.23724 -10.23573 -10.23543 -10.23272 -10.23144
 Alpha  occ. eigenvalues --  -10.23143 -10.22550 -10.22520 -10.22081 -10.21840
 Alpha  occ. eigenvalues --  -10.21579 -10.21176 -10.20759 -10.20739 -10.20218
 Alpha  occ. eigenvalues --  -10.20139 -10.20047 -10.20002 -10.19918 -10.19902
 Alpha  occ. eigenvalues --  -10.19560 -10.19396 -10.19281 -10.19252 -10.19200
 Alpha  occ. eigenvalues --  -10.18380 -10.18331 -10.18221  -1.12313  -1.07489
 Alpha  occ. eigenvalues --   -1.07165  -1.02379  -1.01014  -0.98941  -0.98405
 Alpha  occ. eigenvalues --   -0.96689  -0.95671  -0.92571  -0.82960  -0.81807
 Alpha  occ. eigenvalues --   -0.81467  -0.81139  -0.78586  -0.78383  -0.77557
 Alpha  occ. eigenvalues --   -0.76816  -0.75985  -0.74195  -0.73238  -0.71924
 Alpha  occ. eigenvalues --   -0.71010  -0.68993  -0.68483  -0.67538  -0.67388
 Alpha  occ. eigenvalues --   -0.66746  -0.64890  -0.63919  -0.61417  -0.60373
 Alpha  occ. eigenvalues --   -0.59945  -0.58940  -0.57515  -0.57442  -0.56397
 Alpha  occ. eigenvalues --   -0.55981  -0.54721  -0.54202  -0.53567  -0.52533
 Alpha  occ. eigenvalues --   -0.52420  -0.52229  -0.50938  -0.50540  -0.49978
 Alpha  occ. eigenvalues --   -0.49069  -0.48731  -0.48328  -0.47956  -0.47664
 Alpha  occ. eigenvalues --   -0.46787  -0.46416  -0.45768  -0.45384  -0.44850
 Alpha  occ. eigenvalues --   -0.44624  -0.44429  -0.44272  -0.43841  -0.43738
 Alpha  occ. eigenvalues --   -0.43463  -0.43277  -0.42850  -0.42569  -0.42210
 Alpha  occ. eigenvalues --   -0.41858  -0.41317  -0.41151  -0.40517  -0.40394
 Alpha  occ. eigenvalues --   -0.40035  -0.39485  -0.39441  -0.39181  -0.39066
 Alpha  occ. eigenvalues --   -0.38828  -0.38563  -0.38482  -0.38192  -0.37967
 Alpha  occ. eigenvalues --   -0.37773  -0.37700  -0.37415  -0.36964  -0.36775
 Alpha  occ. eigenvalues --   -0.36504  -0.36436  -0.35836  -0.35192  -0.34801
 Alpha  occ. eigenvalues --   -0.34360  -0.34085  -0.33823  -0.33242  -0.32802
 Alpha  occ. eigenvalues --   -0.32294  -0.31946  -0.31896  -0.30595  -0.29897
 Alpha  occ. eigenvalues --   -0.29111  -0.28061  -0.27524  -0.25848  -0.25394
 Alpha  occ. eigenvalues --   -0.24878  -0.24155  -0.22777  -0.22436  -0.21631
 Alpha  occ. eigenvalues --   -0.18098
 Alpha virt. eigenvalues --   -0.10254  -0.05228  -0.03267  -0.02982  -0.01270
 Alpha virt. eigenvalues --    0.00060   0.00901   0.01467   0.02227   0.02576
 Alpha virt. eigenvalues --    0.03206   0.04005   0.04711   0.05344   0.05527

 Mulliken charges:
               1
     1  O   -0.130524
     2  O   -0.241308
     3  O   -0.326043
     4  O   -0.145415
     5  O   -0.200771
     6  O   -0.226498
     7  N   -0.142083
     8  N   -0.018048
     9  N   -0.135706
    10  N   -0.252975
    11  C   -0.126199
    12  C    0.035796
    13  C   -0.192134
    14  C    0.079710
    15  C   -0.064145
    16  C    0.071969
    17  C   -0.038149
    18  C   -0.062170
    19  C    0.122359
    20  C   -0.067646
    21  C    0.102867
    22  C    0.014704
    23  C   -0.024738
    24  C    0.062715
    25  C   -0.192953
    26  C    0.085916
    27  C    0.116556
    28  C    0.056846
    29  C   -0.103845
    30  C   -0.045172
    31  C   -0.123948
    32  C    0.012963
    33  C   -0.121707
    34  C    0.118211
    35  C   -0.062892
    36  C   -0.178990
    37  C    0.111683
    38  C    0.001017
    39  C    0.207923
    40  C    0.050945
    41  C    0.117691
    42  C    0.008098
    43  C   -0.043301
    44  H    0.193470
    45  H    0.004006
    46  H   -0.017375
    47  H    0.036481
    48  H    0.038383
    49  H    0.026697
    50  H    0.003184
    51  H    0.071475
    52  H    0.112676
    53  H    0.031711
    54  H    0.019160
    55  H   -0.018808
    56  H    0.146911
    57  H   -0.002536
    58  H    0.068679
    59  H    0.092796
    60  H    0.085004
    61  H    0.053314
    62  H    0.047165
    63  H    0.047607
    64  H    0.003713
    65  H    0.012669
    66  H    0.031430
    67  H    0.013296
    68  H   -0.015912
    69  H    0.119662
    70  H    0.035817
    71  H    0.021745
    72  H    0.005144
    73  H    0.043946
    74  H    0.026170
    75  H    0.031527
    76  H    0.029042
    77  H    0.008150
    78  H    0.030918
    79  H    0.033345
    80  H    0.189400
    81  H    0.229328
 Sum of Mulliken charges =  -0.00000

 Dipole moment (field-independent basis, Debye):
    X=             -4.1214    Y=             -0.6018    Z=             -0.4312  Tot=              4.1874
 Quadrupole moment (field-independent basis, Debye-Ang):
   XX=           -249.1743   YY=           -244.0157   ZZ=           -255.5791
   XY=             12.1763   XZ=              8.9411   YZ=             -9.8825

 Normal termination of Gaussian 16 at Thu Jul  4 05:04:56 2019.
