 Gaussian 16, Revision A.03,
 Gaussian 16:  ES64L-G16RevA.03 25-Dec-2016

 --------------------------
 # td=(NStates=1) B3LYP/SVP
 --------------------------

 --
 TD
 --
 Symbolic Z-matrix:
 Charge =  0 Multiplicity = 1

                         Standard orientation:
 ---------------------------------------------------------------------
 Center     Atomic      Atomic             Coordinates (Angstroms)
 Number     Number       Type             X           Y           Z
 ---------------------------------------------------------------------
      1          8           0        4.633133   -4.625969   -1.790160
      2          8           0       -2.803649   -4.762783   -1.247653
      3          8           0       -6.885277   -1.855281   -1.720096
      4          8           0       -3.997192   -3.252429    0.039235
      5          8           0       -7.471728   -0.849251    0.184453
      6          8           0        2.848382    2.468581    0.327201
      7          7           0        0.362974   -0.510128    0.526737
      8          7           0       -1.599817    1.783666    0.287476
      9          7           0        3.583558   -3.034019   -0.516703
     10          7           0        0.579900    2.967985    0.113361
     11          6           0       -0.631210   -2.476080    1.280112
     12          6           0       -0.758420   -1.092955    0.855252
     13          6           0        0.814256   -2.562449    1.124208
     14          6           0        1.407532   -1.438365    0.707135
     15          6           0       -3.823137    1.417644    0.395746
     16          6           0       -2.510514    0.744395    0.533508
     17          6           0       -2.116028   -0.555910    0.765424
     18          6           0       -3.687977    2.669658    0.039431
     19          6           0       -1.549522   -3.550351    1.824052
     20          6           0        5.759749   -2.510168   -1.317544
     21          6           0        3.795664   -1.732813    0.011306
     22          6           0       -2.275684    2.897117   -0.116410
     23          6           0        5.168030   -1.421275   -0.447610
     24          6           0       -5.115835    0.509201    0.340498
     25          6           0        2.775220   -0.919711    0.438528
     26          6           0        1.569373   -3.801007    1.700805
     27          6           0        4.687516   -3.580690   -1.277640
     28          6           0       -2.131415   -4.523965    0.837214
     29          6           0       -5.371881   -0.252469   -0.865814
     30          6           0       -4.655940    3.833570   -0.284394
     31          6           0       -1.498898    4.030563   -0.274767
     32          6           0        7.182420   -3.006885   -1.021067
     33          6           0        5.872440   -0.362364    0.113161
     34          6           0       -0.097580    4.040910   -0.318270
     35          6           0        0.801699    5.205476   -0.596921
     36          6           0        2.040750    4.718008   -0.325089
     37          6           0       -2.973088   -4.016370   -0.224150
     38          6           0        5.359076    0.520675    1.229384
     39          6           0       -6.681199   -1.024316   -0.680389
     40          6           0        3.417309    5.332712   -0.375521
     41          6           0        1.927318    3.238470    0.014463
     42          6           0        0.252494    6.522042   -0.967230
     43          6           0        3.868471    5.910996    0.988641
     44          1           0        0.435206    0.431614   -0.072098
     45          1           0       -2.996300   -1.348556    0.880702
     46          1           0       -2.394842   -2.930252    2.517214
     47          1           0       -0.839414   -4.146758    2.553757
     48          1           0        5.925992   -2.363997   -2.341721
     49          1           0       -4.840609   -0.027183    1.285372
     50          1           0       -5.822443    1.118957    0.623653
     51          1           0        3.169324   -0.019385    0.702402
     52          1           0       -0.557815    1.805279    0.240672
     53          1           0        1.852059   -4.539810    0.935196
     54          1           0        2.547059   -3.401267    2.227150
     55          1           0        1.158062   -4.284018    2.543121
     56          1           0        2.792709   -3.705292   -0.573977
     57          1           0       -1.288025   -5.357986    0.561488
     58          1           0       -2.864810   -5.269446    1.258245
     59          1           0       -4.521805   -0.851395   -1.025161
     60          1           0       -5.247181    0.527630   -1.647172
     61          1           0       -4.332925    4.779731    0.504050
     62          1           0       -5.714968    3.452488   -0.158049
     63          1           0       -4.491020    4.203776   -1.239967
     64          1           0       -2.026697    4.838270   -0.812794
     65          1           0        8.051751   -2.335512   -1.137999
     66          1           0        7.379645   -3.864503   -1.655774
     67          1           0        7.422654   -3.273193    0.093099
     68          1           0        6.839619    0.025956   -0.262409
     69          1           0        4.902909    1.471398    0.889900
     70          1           0        6.362178    0.878509    1.606108
     71          1           0        4.565336    0.134988    1.903258
     72          1           0        3.412005    6.191918   -1.124116
     73          1           0        4.187058    4.600560   -0.711453
     74          1           0       -0.031875    6.517327   -2.033720
     75          1           0        1.010887    7.230968   -0.693983
     76          1           0       -0.647316    6.741893   -0.192264
     77          1           0        3.016079    6.407741    1.484368
     78          1           0        4.929599    6.260763    0.886629
     79          1           0        3.814768    4.961057    1.784481
     80          1           0       -3.434965   -4.465367   -2.046933
     81          1           0       -7.723469   -2.412134   -1.607541
 ---------------------------------------------------------------------

 SCF Done:  E(RB3LYP) =  -1949.09310530     A.U. after   16 cycles

 Excitation energies and oscillator strengths:

 Excited State   1:      Singlet-A      1.8935 eV  654.81 nm  f=0.2873  <S**2>=0.000
     156 ->157         0.70378
 This state for optimization and/or second-order correction.
 Total Energy, E(TD-HF/TD-DFT) =  -1949.02352225
 Copying the excited state density for this state as the 1-particle RhoCI density.

 The electronic state is 1-A.
 Alpha  occ. eigenvalues --  -19.22388 -19.17901 -19.13277 -19.12635 -19.11508
 Alpha  occ. eigenvalues --  -19.10424 -14.37795 -14.35160 -14.34707 -14.28665
 Alpha  occ. eigenvalues --  -10.33955 -10.31906 -10.28575 -10.26430 -10.23713
 Alpha  occ. eigenvalues --  -10.23363 -10.23144 -10.23056 -10.22867 -10.22676
 Alpha  occ. eigenvalues --  -10.22504 -10.22502 -10.21593 -10.21547 -10.20351
 Alpha  occ. eigenvalues --  -10.20299 -10.20203 -10.20136 -10.20088 -10.19876
 Alpha  occ. eigenvalues --  -10.19845 -10.19801 -10.19449 -10.19388 -10.19286
 Alpha  occ. eigenvalues --  -10.19263 -10.19112 -10.18978 -10.18900 -10.18231
 Alpha  occ. eigenvalues --  -10.17905 -10.17829 -10.17796  -1.12829  -1.09495
 Alpha  occ. eigenvalues --   -1.05901  -1.00933  -1.00479  -0.98816  -0.98349
 Alpha  occ. eigenvalues --   -0.97428  -0.92891  -0.92029  -0.82511  -0.81682
 Alpha  occ. eigenvalues --   -0.80763  -0.80587  -0.79683  -0.78745  -0.77997
 Alpha  occ. eigenvalues --   -0.77661  -0.76336  -0.75182  -0.73624  -0.71689
 Alpha  occ. eigenvalues --   -0.70582  -0.69298  -0.68990  -0.68634  -0.67621
 Alpha  occ. eigenvalues --   -0.67171  -0.64870  -0.64045  -0.62001  -0.61365
 Alpha  occ. eigenvalues --   -0.61037  -0.59919  -0.58803  -0.56728  -0.56375
 Alpha  occ. eigenvalues --   -0.55403  -0.55291  -0.54836  -0.53301  -0.52794
 Alpha  occ. eigenvalues --   -0.52357  -0.51595  -0.51071  -0.50714  -0.50196
 Alpha  occ. eigenvalues --   -0.49327  -0.49189  -0.49007  -0.47619  -0.47446
 Alpha  occ. eigenvalues --   -0.46994  -0.46613  -0.45717  -0.45142  -0.44997
 Alpha  occ. eigenvalues --   -0.44355  -0.44172  -0.44108  -0.43671  -0.43475
 Alpha  occ. eigenvalues --   -0.43243  -0.42712  -0.42678  -0.42286  -0.41780
 Alpha  occ. eigenvalues --   -0.41744  -0.41297  -0.41151  -0.41046  -0.40730
 Alpha  occ. eigenvalues --   -0.40527  -0.40096  -0.39866  -0.39613  -0.39270
 Alpha  occ. eigenvalues --   -0.38952  -0.38838  -0.38640  -0.38322  -0.38116
 Alpha  occ. eigenvalues --   -0.38028  -0.37230  -0.37026  -0.36555  -0.36101
 Alpha  occ. eigenvalues --   -0.35790  -0.35251  -0.34920  -0.34771  -0.34301
 Alpha  occ. eigenvalues --   -0.33995  -0.33823  -0.33674  -0.32642  -0.32423
 Alpha  occ. eigenvalues --   -0.32078  -0.31512  -0.30868  -0.29479  -0.28618
 Alpha  occ. eigenvalues --   -0.28578  -0.27518  -0.26497  -0.26220  -0.25589
 Alpha  occ. eigenvalues --   -0.24799  -0.24377  -0.24139  -0.23408  -0.21266
 Alpha  occ. eigenvalues --   -0.17890
 Alpha virt. eigenvalues --   -0.10126  -0.05387  -0.03529  -0.03199   0.00375
 Alpha virt. eigenvalues --    0.00733   0.00789   0.02134   0.03513   0.03996
 Alpha virt. eigenvalues --    0.04117   0.04467   0.05423   0.05512   0.05952

 Mulliken charges:
               1
     1  O   -0.155488
     2  O   -0.144892
     3  O   -0.212702
     4  O   -0.331304
     5  O   -0.191828
     6  O   -0.220134
     7  N   -0.069548
     8  N   -0.123535
     9  N   -0.228305
    10  N   -0.306667
    11  C   -0.120357
    12  C    0.014073
    13  C   -0.165849
    14  C    0.123548
    15  C   -0.162517
    16  C    0.087746
    17  C   -0.133014
    18  C   -0.091881
    19  C    0.048960
    20  C    0.033969
    21  C    0.095738
    22  C    0.051220
    23  C   -0.000518
    24  C    0.129663
    25  C   -0.000584
    26  C    0.043994
    27  C    0.087357
    28  C    0.004227
    29  C    0.106078
    30  C    0.078346
    31  C   -0.087125
    32  C   -0.003430
    33  C   -0.154952
    34  C    0.053754
    35  C   -0.082530
    36  C   -0.220104
    37  C    0.170052
    38  C    0.035853
    39  C    0.167602
    40  C    0.062915
    41  C    0.179176
    42  C    0.094004
    43  C   -0.032510
    44  H    0.189783
    45  H    0.066495
    46  H    0.057143
    47  H    0.026816
    48  H    0.014663
    49  H    0.011444
    50  H   -0.058777
    51  H   -0.057561
    52  H    0.129359
    53  H    0.016264
    54  H    0.032989
    55  H   -0.001137
    56  H    0.136866
    57  H    0.044618
    58  H    0.059115
    59  H   -0.004716
    60  H    0.025684
    61  H    0.053134
    62  H    0.034952
    63  H    0.015788
    64  H   -0.021967
    65  H    0.013715
    66  H    0.026104
    67  H    0.013444
    68  H    0.003036
    69  H    0.063192
    70  H    0.009045
    71  H    0.044632
    72  H    0.000460
    73  H    0.018519
    74  H    0.044589
    75  H    0.011747
    76  H    0.047080
    77  H    0.014391
    78  H    0.040929
    79  H    0.018352
    80  H    0.232883
    81  H    0.198425
 Sum of Mulliken charges =  -0.00000

 Dipole moment (field-independent basis, Debye):
    X=             -2.1203    Y=             -0.1543    Z=             -2.7567  Tot=              3.4812
 Quadrupole moment (field-independent basis, Debye-Ang):
   XX=           -251.6806   YY=           -232.9633   ZZ=           -252.5398
   XY=             17.7936   XZ=             17.3686   YZ=             -8.4899

 Normal termination of Gaussian 16 at Wed Jul  3 14:08:44 2019.
