 Gaussian 16, Revision A.03,
 Gaussian 16:  ES64L-G16RevA.03 25-Dec-2016

 --------------------------
 # td=(NStates=1) B3LYP/SVP
 --------------------------

 --
 TD
 --
 Symbolic Z-matrix:
 Charge =  0 Multiplicity = 1

                         Standard orientation:
 ---------------------------------------------------------------------
 Center     Atomic      Atomic             Coordinates (Angstroms)
 Number     Number       Type             X           Y           Z
 ---------------------------------------------------------------------
      1          8           0       -4.271049   -4.787481    1.924208
      2          8           0        3.447489   -4.838045    1.326178
      3          8           0        6.971644   -1.494192    1.604668
      4          8           0        3.883170   -2.897233    0.060108
      5          8           0        7.681080   -0.336739   -0.215990
      6          8           0       -3.085607    2.290235   -0.134835
      7          7           0       -0.282718   -0.563483   -0.664979
      8          7           0        1.557147    1.866817   -0.379979
      9          7           0       -3.386214   -3.102480    0.627909
     10          7           0       -0.802867    2.899967   -0.091545
     11          6           0        0.722459   -2.469189   -1.169866
     12          6           0        0.908131   -1.093951   -0.793976
     13          6           0       -0.684819   -2.737591   -1.115760
     14          6           0       -1.300493   -1.542299   -0.775728
     15          6           0        3.682408    1.552587   -0.390927
     16          6           0        2.472274    0.904693   -0.646892
     17          6           0        2.205977   -0.455574   -0.793362
     18          6           0        3.479599    2.827272    0.107857
     19          6           0        1.807761   -3.462655   -1.741680
     20          6           0       -5.600163   -2.741238    1.296266
     21          6           0       -3.670010   -1.955069   -0.046979
     22          6           0        2.044856    3.034371   -0.067464
     23          6           0       -5.152319   -1.655067    0.263945
     24          6           0        5.099150    0.810887   -0.492219
     25          6           0       -2.681658   -1.137552   -0.622252
     26          6           0       -1.492125   -3.944204   -1.671962
     27          6           0       -4.413595   -3.779280    1.400139
     28          6           0        2.255786   -4.529054   -0.766580
     29          6           0        5.389022    0.033576    0.733876
     30          6           0        4.479504    3.933827    0.462655
     31          6           0        1.245717    4.159338    0.248627
     32          6           0       -6.963909   -3.443402    0.832095
     33          6           0       -5.896050   -0.768514   -0.242098
     34          6           0       -0.148183    4.091684    0.129897
     35          6           0       -1.227968    5.104074    0.490530
     36          6           0       -2.410934    4.632111    0.383445
     37          6           0        3.325825   -3.961647    0.329663
     38          6           0       -5.377114    0.418386   -1.191095
     39          6           0        6.875559   -0.660367    0.643893
     40          6           0       -3.764515    5.284231    0.590326
     41          6           0       -2.202549    3.211862    0.018035
     42          6           0       -0.668589    6.606515    0.736201
     43          6           0       -4.420947    5.701289   -0.724806
     44          1           0       -0.630866    0.204033    0.014260
     45          1           0        3.150339   -0.998489   -0.963305
     46          1           0        2.546090   -2.836633   -2.065668
     47          1           0        1.411396   -3.946955   -2.637601
     48          1           0       -5.909376   -2.372214    2.312039
     49          1           0        4.978549    0.041106   -1.471369
     50          1           0        5.865531    1.579910   -0.681815
     51          1           0       -2.924341   -0.090767   -0.963890
     52          1           0        0.563062    1.745713   -0.222489
     53          1           0       -1.947118   -4.846283   -0.832599
     54          1           0       -2.504755   -3.670426   -2.351152
     55          1           0       -0.651265   -4.634762   -2.316726
     56          1           0       -2.240927   -3.315026    0.743510
     57          1           0        1.516505   -4.933131   -0.127187
     58          1           0        2.659280   -5.340865   -1.306863
     59          1           0        4.845025   -0.869242    0.708085
     60          1           0        5.336996    0.522112    1.726011
     61          1           0        4.558257    4.763868   -0.275374
     62          1           0        5.526962    3.412885    0.294223
     63          1           0        4.478343    4.197083    1.481994
     64          1           0        1.662916    5.205824    0.298581
     65          1           0       -7.758822   -2.637700    0.768439
     66          1           0       -7.245812   -4.160852    1.820392
     67          1           0       -6.916833   -3.985039   -0.225481
     68          1           0       -6.931274   -0.832475   -0.243201
     69          1           0       -5.097067    1.171020   -0.706839
     70          1           0       -6.323930    0.554055   -1.741262
     71          1           0       -4.510052   -0.267091   -1.780137
     72          1           0       -3.844382    6.239122    1.213505
     73          1           0       -4.447395    4.708346    1.174954
     74          1           0        0.037961    6.699402    1.628082
     75          1           0       -1.581572    7.364462    1.067898
     76          1           0       -0.116107    6.898606   -0.096275
     77          1           0       -3.909673    6.593144   -1.286345
     78          1           0       -5.359458    5.943831   -0.697475
     79          1           0       -4.487239    4.929617   -1.297944
     80          1           0        4.157202   -4.323115    1.742998
     81          1           0        7.924087   -1.731478    1.858668
 ---------------------------------------------------------------------

 SCF Done:  E(RB3LYP) =  -1949.00712533     A.U. after   17 cycles

 Excitation energies and oscillator strengths:

 Excited State   1:      Singlet-A      1.9195 eV  645.90 nm  f=0.3800  <S**2>=0.000
     156 ->157         0.70742
     156 <-157        -0.11429
 This state for optimization and/or second-order correction.
 Total Energy, E(TD-HF/TD-DFT) =  -1948.93658329
 Copying the excited state density for this state as the 1-particle RhoCI density.

 The electronic state is 1-A.
 Alpha  occ. eigenvalues --  -19.22858 -19.20604 -19.15976 -19.13291 -19.12215
 Alpha  occ. eigenvalues --  -19.09478 -14.37549 -14.36750 -14.34964 -14.28268
 Alpha  occ. eigenvalues --  -10.35004 -10.31989 -10.30368 -10.26269 -10.24550
 Alpha  occ. eigenvalues --  -10.23765 -10.23341 -10.23199 -10.22883 -10.22219
 Alpha  occ. eigenvalues --  -10.22031 -10.21775 -10.21731 -10.21686 -10.20854
 Alpha  occ. eigenvalues --  -10.20707 -10.20453 -10.20343 -10.20031 -10.19980
 Alpha  occ. eigenvalues --  -10.19889 -10.19863 -10.19844 -10.19606 -10.19459
 Alpha  occ. eigenvalues --  -10.19277 -10.18899 -10.18776 -10.18611 -10.18295
 Alpha  occ. eigenvalues --  -10.17961 -10.17159 -10.15260  -1.13859  -1.11931
 Alpha  occ. eigenvalues --   -1.08109  -1.03896  -1.00664  -1.00142  -0.98700
 Alpha  occ. eigenvalues --   -0.97343  -0.94125  -0.89701  -0.81710  -0.81000
 Alpha  occ. eigenvalues --   -0.80689  -0.80344  -0.79363  -0.78165  -0.76612
 Alpha  occ. eigenvalues --   -0.76348  -0.75390  -0.74296  -0.73539  -0.71377
 Alpha  occ. eigenvalues --   -0.69878  -0.68850  -0.68115  -0.67601  -0.67131
 Alpha  occ. eigenvalues --   -0.66215  -0.64835  -0.63741  -0.62904  -0.61375
 Alpha  occ. eigenvalues --   -0.60859  -0.60706  -0.58511  -0.56885  -0.56346
 Alpha  occ. eigenvalues --   -0.55789  -0.55166  -0.54661  -0.53337  -0.52922
 Alpha  occ. eigenvalues --   -0.52147  -0.51483  -0.50874  -0.50763  -0.49547
 Alpha  occ. eigenvalues --   -0.49373  -0.49144  -0.48709  -0.47768  -0.47400
 Alpha  occ. eigenvalues --   -0.47052  -0.46402  -0.45758  -0.45567  -0.45330
 Alpha  occ. eigenvalues --   -0.44941  -0.44606  -0.44267  -0.43971  -0.43782
 Alpha  occ. eigenvalues --   -0.43393  -0.43210  -0.43042  -0.42654  -0.42165
 Alpha  occ. eigenvalues --   -0.41655  -0.41508  -0.41107  -0.40710  -0.40457
 Alpha  occ. eigenvalues --   -0.40209  -0.39961  -0.39705  -0.39089  -0.38931
 Alpha  occ. eigenvalues --   -0.38880  -0.38320  -0.37760  -0.37363  -0.37033
 Alpha  occ. eigenvalues --   -0.36973  -0.36897  -0.36809  -0.36470  -0.35930
 Alpha  occ. eigenvalues --   -0.35829  -0.35777  -0.35479  -0.35207  -0.34537
 Alpha  occ. eigenvalues --   -0.34281  -0.34157  -0.33900  -0.32978  -0.32700
 Alpha  occ. eigenvalues --   -0.32581  -0.32054  -0.31560  -0.29845  -0.29321
 Alpha  occ. eigenvalues --   -0.27877  -0.27019  -0.26231  -0.26003  -0.25483
 Alpha  occ. eigenvalues --   -0.25245  -0.24875  -0.24161  -0.23461  -0.20909
 Alpha  occ. eigenvalues --   -0.17577
 Alpha virt. eigenvalues --   -0.09964  -0.05185  -0.03100  -0.02032  -0.00275
 Alpha virt. eigenvalues --    0.00695   0.02381   0.02674   0.03043   0.03792
 Alpha virt. eigenvalues --    0.04035   0.04640   0.05110   0.05411   0.05457

 Mulliken charges:
               1
     1  O   -0.104361
     2  O   -0.118294
     3  O   -0.144412
     4  O   -0.229039
     5  O   -0.235653
     6  O   -0.270961
     7  N   -0.065208
     8  N    0.008680
     9  N   -0.242142
    10  N   -0.350461
    11  C   -0.166311
    12  C    0.069893
    13  C   -0.098213
    14  C    0.022937
    15  C   -0.095100
    16  C    0.047301
    17  C   -0.060780
    18  C   -0.147726
    19  C    0.183399
    20  C   -0.129909
    21  C    0.089677
    22  C    0.060170
    23  C    0.110764
    24  C    0.043480
    25  C   -0.119583
    26  C   -0.101108
    27  C    0.185540
    28  C    0.040752
    29  C    0.005986
    30  C    0.092217
    31  C   -0.102435
    32  C   -0.069253
    33  C   -0.224708
    34  C    0.056239
    35  C   -0.062872
    36  C   -0.112928
    37  C    0.142572
    38  C    0.102809
    39  C    0.108395
    40  C    0.067891
    41  C    0.169722
    42  C    0.036361
    43  C    0.114911
    44  H    0.191904
    45  H    0.018894
    46  H   -0.025996
    47  H    0.002701
    48  H    0.053010
    49  H    0.041546
    50  H    0.021774
    51  H    0.060674
    52  H    0.106568
    53  H    0.050297
    54  H    0.074774
    55  H    0.032818
    56  H    0.189075
    57  H    0.014161
    58  H    0.022640
    59  H    0.010310
    60  H    0.032676
    61  H    0.041110
    62  H    0.003720
    63  H    0.017111
    64  H   -0.005700
    65  H    0.040147
    66  H    0.049528
    67  H    0.048627
    68  H   -0.033100
    69  H   -0.006414
    70  H    0.002191
    71  H    0.059788
    72  H   -0.003600
    73  H   -0.005233
    74  H    0.028611
    75  H    0.036448
    76  H    0.022993
    77  H    0.013736
    78  H   -0.051192
    79  H   -0.038041
    80  H    0.168483
    81  H    0.204724
 Sum of Mulliken charges =  -0.00000

 Dipole moment (field-independent basis, Debye):
    X=              3.1619    Y=             -1.3505    Z=              2.6726  Tot=              4.3548
 Quadrupole moment (field-independent basis, Debye-Ang):
   XX=           -235.9066   YY=           -240.5936   ZZ=           -252.6738
   XY=            -19.4267   XZ=             21.9508   YZ=              7.2681

 Normal termination of Gaussian 16 at Fri Jul  5 08:48:27 2019.
