 Gaussian 16, Revision A.03,
 Gaussian 16:  ES64L-G16RevA.03 25-Dec-2016

 --------------------------
 # td=(NStates=1) B3LYP/SVP
 --------------------------

 --
 TD
 --
 Symbolic Z-matrix:
 Charge =  0 Multiplicity = 1

                         Standard orientation:
 ---------------------------------------------------------------------
 Center     Atomic      Atomic             Coordinates (Angstroms)
 Number     Number       Type             X           Y           Z
 ---------------------------------------------------------------------
      1          8           0        4.776316   -4.619000   -1.795350
      2          8           0       -2.880550   -5.048010   -1.212695
      3          8           0       -7.087746   -1.525429   -1.919307
      4          8           0       -3.698113   -3.245922   -0.037452
      5          8           0       -7.631272   -0.930262    0.186580
      6          8           0        2.983007    2.632640    0.126031
      7          7           0        0.356064   -0.564508    0.649707
      8          7           0       -1.645348    1.726653    0.305639
      9          7           0        3.518009   -3.052442   -0.722898
     10          7           0        0.676128    2.928653    0.008722
     11          6           0       -0.576787   -2.379222    1.316154
     12          6           0       -0.886169   -1.159547    0.871060
     13          6           0        0.866925   -2.679518    1.183265
     14          6           0        1.365156   -1.511685    0.659048
     15          6           0       -3.926530    1.313486    0.434592
     16          6           0       -2.539745    0.715932    0.559067
     17          6           0       -2.213949   -0.581559    0.784196
     18          6           0       -3.693942    2.627413    0.151805
     19          6           0       -1.541057   -3.553603    1.892269
     20          6           0        5.705434   -2.545976   -1.272915
     21          6           0        3.710476   -1.796786   -0.053004
     22          6           0       -2.278666    2.949420   -0.000201
     23          6           0        5.225718   -1.424788   -0.315938
     24          6           0       -5.153586    0.533745    0.391014
     25          6           0        2.749338   -1.023661    0.466288
     26          6           0        1.675249   -3.809748    1.777046
     27          6           0        4.671151   -3.488932   -1.364854
     28          6           0       -1.935525   -4.582561    0.871505
     29          6           0       -5.463099   -0.291019   -0.805550
     30          6           0       -4.611272    3.843461   -0.289355
     31          6           0       -1.522741    4.084554   -0.121394
     32          6           0        7.107037   -3.059087   -1.017359
     33          6           0        5.819688   -0.330500    0.188944
     34          6           0       -0.076970    4.082729   -0.270199
     35          6           0        0.847235    5.262139   -0.584643
     36          6           0        2.102278    4.753665   -0.454615
     37          6           0       -2.914175   -4.170176   -0.202692
     38          6           0        5.411677    0.650779    1.240540
     39          6           0       -6.796511   -0.929777   -0.767335
     40          6           0        3.401836    5.458819   -0.520746
     41          6           0        1.973242    3.297029   -0.076757
     42          6           0        0.260304    6.561333   -0.801241
     43          6           0        3.982311    5.799878    0.952654
     44          1           0        0.403109    0.367032    0.333475
     45          1           0       -3.084831   -1.260561    0.943264
     46          1           0       -2.551554   -2.958326    2.083033
     47          1           0       -0.979081   -3.962673    2.695266
     48          1           0        5.661895   -1.887416   -2.211173
     49          1           0       -5.232572    0.039671    1.320665
     50          1           0       -5.816258    1.389907    0.703456
     51          1           0        3.081032    0.018468    0.813821
     52          1           0       -0.704740    1.851147    0.303864
     53          1           0        1.871684   -4.695788    1.121203
     54          1           0        2.508967   -3.390942    2.285272
     55          1           0        1.303121   -4.230878    2.600948
     56          1           0        2.711822   -3.740288   -0.853587
     57          1           0       -1.051234   -4.946025    0.248217
     58          1           0       -2.378998   -5.501647    1.506970
     59          1           0       -4.556082   -1.028778   -1.072788
     60          1           0       -5.243497    0.166989   -1.851799
     61          1           0       -4.534307    4.618828    0.620851
     62          1           0       -5.721152    3.486830   -0.327624
     63          1           0       -4.342534    4.278446   -1.122394
     64          1           0       -2.055978    5.061974   -0.126153
     65          1           0        8.022728   -2.189660   -1.066425
     66          1           0        7.259087   -3.947653   -1.734102
     67          1           0        7.185950   -3.632246   -0.160679
     68          1           0        6.802289   -0.095327   -0.285276
     69          1           0        4.786393    1.499671    0.902943
     70          1           0        6.429959    0.961418    1.462583
     71          1           0        4.890694    0.211633    2.046266
     72          1           0        3.321643    6.392657   -1.059299
     73          1           0        4.232506    4.563801   -0.602009
     74          1           0       -0.390773    6.770330   -1.827415
     75          1           0        1.077628    7.227630   -0.859436
     76          1           0       -0.563462    6.869760    0.016156
     77          1           0        3.403168    6.513900    1.449595
     78          1           0        5.194916    5.896447    0.821510
     79          1           0        4.047510    4.704881    1.286704
     80          1           0       -3.482241   -4.673788   -2.026133
     81          1           0       -7.999912   -1.827458   -1.774314
 ---------------------------------------------------------------------

 SCF Done:  E(RB3LYP) =  -1949.07940237     A.U. after   16 cycles

 Excitation energies and oscillator strengths:

 Excited State   1:      Singlet-A      1.9009 eV  652.23 nm  f=0.2852  <S**2>=0.000
     155 ->157         0.10542
     156 ->157         0.70075
 This state for optimization and/or second-order correction.
 Total Energy, E(TD-HF/TD-DFT) =  -1949.00954457
 Copying the excited state density for this state as the 1-particle RhoCI density.

 The electronic state is 1-A.
 Alpha  occ. eigenvalues --  -19.21114 -19.19300 -19.14469 -19.12653 -19.10702
 Alpha  occ. eigenvalues --  -19.09894 -14.36319 -14.36151 -14.35630 -14.29794
 Alpha  occ. eigenvalues --  -10.33679 -10.32898 -10.27780 -10.26611 -10.24795
 Alpha  occ. eigenvalues --  -10.24749 -10.23875 -10.23840 -10.22734 -10.22729
 Alpha  occ. eigenvalues --  -10.22086 -10.22011 -10.21734 -10.21454 -10.21380
 Alpha  occ. eigenvalues --  -10.21228 -10.20986 -10.20883 -10.20482 -10.20397
 Alpha  occ. eigenvalues --  -10.20286 -10.20257 -10.20145 -10.19801 -10.19596
 Alpha  occ. eigenvalues --  -10.19302 -10.19224 -10.19180 -10.19018 -10.18712
 Alpha  occ. eigenvalues --  -10.18576 -10.18314 -10.17267  -1.10784  -1.10365
 Alpha  occ. eigenvalues --   -1.03144  -1.01924  -1.01707  -0.98516  -0.98265
 Alpha  occ. eigenvalues --   -0.97206  -0.92906  -0.91412  -0.83680  -0.81457
 Alpha  occ. eigenvalues --   -0.81091  -0.80668  -0.80213  -0.79038  -0.78338
 Alpha  occ. eigenvalues --   -0.77229  -0.76816  -0.75459  -0.74455  -0.72707
 Alpha  occ. eigenvalues --   -0.71999  -0.69973  -0.69290  -0.68626  -0.68096
 Alpha  occ. eigenvalues --   -0.67484  -0.65601  -0.65103  -0.61875  -0.61549
 Alpha  occ. eigenvalues --   -0.60173  -0.59578  -0.59013  -0.57101  -0.56642
 Alpha  occ. eigenvalues --   -0.55809  -0.55592  -0.54036  -0.53908  -0.53552
 Alpha  occ. eigenvalues --   -0.52805  -0.51617  -0.51276  -0.50585  -0.49617
 Alpha  occ. eigenvalues --   -0.49338  -0.49110  -0.48647  -0.48447  -0.47912
 Alpha  occ. eigenvalues --   -0.47017  -0.46539  -0.46192  -0.45926  -0.45674
 Alpha  occ. eigenvalues --   -0.45454  -0.44652  -0.44411  -0.43891  -0.43819
 Alpha  occ. eigenvalues --   -0.43652  -0.43157  -0.42900  -0.42542  -0.42133
 Alpha  occ. eigenvalues --   -0.41992  -0.41778  -0.41689  -0.41317  -0.41117
 Alpha  occ. eigenvalues --   -0.40697  -0.40545  -0.40045  -0.39858  -0.39584
 Alpha  occ. eigenvalues --   -0.39486  -0.39119  -0.39028  -0.38574  -0.38048
 Alpha  occ. eigenvalues --   -0.37988  -0.37652  -0.37355  -0.36867  -0.36536
 Alpha  occ. eigenvalues --   -0.35903  -0.35505  -0.35016  -0.34562  -0.34384
 Alpha  occ. eigenvalues --   -0.34167  -0.33986  -0.33039  -0.32318  -0.31784
 Alpha  occ. eigenvalues --   -0.31729  -0.31616  -0.30904  -0.29770  -0.29455
 Alpha  occ. eigenvalues --   -0.28421  -0.28275  -0.26512  -0.26148  -0.25727
 Alpha  occ. eigenvalues --   -0.24929  -0.24655  -0.23949  -0.23089  -0.21762
 Alpha  occ. eigenvalues --   -0.18598
 Alpha virt. eigenvalues --   -0.10875  -0.05729  -0.02876  -0.02254  -0.01537
 Alpha virt. eigenvalues --    0.00478   0.00482   0.01793   0.03172   0.03693
 Alpha virt. eigenvalues --    0.03754   0.04418   0.05005   0.05523   0.05869

 Mulliken charges:
               1
     1  O   -0.220094
     2  O   -0.216808
     3  O   -0.153148
     4  O   -0.238256
     5  O   -0.286770
     6  O   -0.222885
     7  N   -0.071724
     8  N   -0.050471
     9  N   -0.181349
    10  N   -0.301792
    11  C   -0.170568
    12  C    0.091668
    13  C   -0.164552
    14  C    0.081160
    15  C   -0.129930
    16  C    0.083587
    17  C   -0.089775
    18  C   -0.130639
    19  C    0.133487
    20  C    0.032486
    21  C    0.121563
    22  C    0.079108
    23  C   -0.021024
    24  C    0.187017
    25  C   -0.129521
    26  C    0.172669
    27  C    0.063406
    28  C   -0.041434
    29  C   -0.023929
    30  C    0.088999
    31  C   -0.090304
    32  C    0.039431
    33  C   -0.220415
    34  C    0.061964
    35  C   -0.031927
    36  C   -0.165657
    37  C    0.153310
    38  C    0.088148
    39  C    0.174893
    40  C    0.017611
    41  C    0.166917
    42  C    0.020700
    43  C   -0.047700
    44  H    0.102343
    45  H    0.028611
    46  H    0.031670
    47  H   -0.000561
    48  H    0.062948
    49  H   -0.000311
    50  H    0.007955
    51  H    0.037234
    52  H    0.065538
    53  H    0.019599
    54  H    0.009320
    55  H   -0.053184
    56  H    0.157650
    57  H    0.036527
    58  H    0.069654
    59  H    0.067820
    60  H    0.040212
    61  H    0.041355
    62  H    0.029453
    63  H   -0.001027
    64  H   -0.014909
    65  H    0.046976
    66  H    0.033154
    67  H   -0.008423
    68  H   -0.009943
    69  H    0.080984
    70  H    0.008943
    71  H    0.013616
    72  H    0.007038
    73  H    0.041469
    74  H    0.041997
    75  H    0.000280
    76  H    0.048419
    77  H    0.022704
    78  H    0.028165
    79  H    0.034521
    80  H    0.236529
    81  H    0.178224
 Sum of Mulliken charges =  -0.00000

 Dipole moment (field-independent basis, Debye):
    X=             -3.4542    Y=              1.5355    Z=             -1.3161  Tot=              4.0027
 Quadrupole moment (field-independent basis, Debye-Ang):
   XX=           -259.8497   YY=           -238.8268   ZZ=           -253.2426
   XY=             12.6112   XZ=             22.6439   YZ=             -7.4483

 Normal termination of Gaussian 16 at Fri Jul  5 07:57:48 2019.
