 Gaussian 16, Revision A.03,
 Gaussian 16:  ES64L-G16RevA.03 25-Dec-2016

 --------------------------
 # td=(NStates=1) B3LYP/SVP
 --------------------------

 --
 TD
 --
 Symbolic Z-matrix:
 Charge =  0 Multiplicity = 1

                         Standard orientation:
 ---------------------------------------------------------------------
 Center     Atomic      Atomic             Coordinates (Angstroms)
 Number     Number       Type             X           Y           Z
 ---------------------------------------------------------------------
      1          8           0       -4.534138   -4.684961    1.980531
      2          8           0        3.243728   -4.737599    1.197984
      3          8           0        7.089500   -1.335418    1.892221
      4          8           0        4.046594   -3.213774   -0.295883
      5          8           0        7.665558   -0.669698   -0.197089
      6          8           0       -2.986558    2.275362   -0.186882
      7          7           0       -0.347711   -0.626605   -0.571580
      8          7           0        1.483292    1.782910   -0.240899
      9          7           0       -3.490215   -3.187223    0.606529
     10          7           0       -0.707923    2.859267   -0.084366
     11          6           0        0.601363   -2.479866   -1.309438
     12          6           0        0.821121   -1.098077   -0.943504
     13          6           0       -0.754986   -2.652281   -1.188086
     14          6           0       -1.366310   -1.447451   -0.752036
     15          6           0        3.751293    1.441396   -0.232374
     16          6           0        2.499254    0.822040   -0.507503
     17          6           0        2.149865   -0.500540   -0.857024
     18          6           0        3.568265    2.718333    0.063908
     19          6           0        1.603415   -3.466708   -1.832214
     20          6           0       -5.702617   -2.540424    1.386335
     21          6           0       -3.677058   -1.836790    0.131023
     22          6           0        2.131952    2.960763    0.081053
     23          6           0       -5.102887   -1.507699    0.480545
     24          6           0        5.090576    0.824180   -0.382287
     25          6           0       -2.709358   -1.064789   -0.413572
     26          6           0       -1.584030   -3.883718   -1.724815
     27          6           0       -4.567716   -3.566243    1.394341
     28          6           0        2.155198   -4.538710   -0.880283
     29          6           0        5.457784   -0.229576    0.746808
     30          6           0        4.553383    3.853510    0.442637
     31          6           0        1.385728    4.196460    0.288125
     32          6           0       -7.013397   -3.171185    1.105559
     33          6           0       -5.879694   -0.505759   -0.149204
     34          6           0       -0.054456    4.030833    0.193308
     35          6           0       -1.072606    5.123232    0.441563
     36          6           0       -2.253633    4.627281    0.295093
     37          6           0        3.215062   -4.042872    0.057906
     38          6           0       -5.413228    0.465707   -1.265337
     39          6           0        6.874025   -0.670646    0.787760
     40          6           0       -3.585996    5.323667    0.274409
     41          6           0       -2.091169    3.176431   -0.051473
     42          6           0       -0.558885    6.560367    0.878747
     43          6           0       -4.228978    5.535500   -1.095740
     44          1           0       -0.459405    0.289932   -0.002547
     45          1           0        3.023171   -1.310615   -0.780925
     46          1           0        2.462778   -2.815646   -2.015689
     47          1           0        1.342275   -3.781511   -2.889104
     48          1           0       -5.985627   -2.178120    2.486159
     49          1           0        4.878577    0.139362   -1.319996
     50          1           0        5.822193    1.613538   -0.754558
     51          1           0       -3.066650   -0.051060   -0.370738
     52          1           0        0.346034    1.924081   -0.525341
     53          1           0       -1.397332   -4.894282   -1.176290
     54          1           0       -2.566700   -3.745935   -1.819312
     55          1           0       -1.258169   -4.071024   -2.829048
     56          1           0       -2.656994   -3.801346    0.766299
     57          1           0        1.342480   -4.918900   -0.340574
     58          1           0        2.482235   -5.459413   -1.424234
     59          1           0        4.788727   -1.094542    0.680252
     60          1           0        5.165353    0.387842    1.821877
     61          1           0        4.078836    4.695920   -0.055977
     62          1           0        5.604190    3.569806    0.120128
     63          1           0        4.570578    4.203821    1.552106
     64          1           0        1.775390    5.154440    0.757836
     65          1           0       -7.637675   -2.246746    1.086432
     66          1           0       -7.236919   -3.833645    1.846241
     67          1           0       -7.040653   -3.467707    0.194808
     68          1           0       -6.789027   -0.437922    0.124006
     69          1           0       -4.702785    1.288126   -0.902253
     70          1           0       -6.393535    0.937335   -1.662951
     71          1           0       -4.915439   -0.181547   -1.955058
     72          1           0       -3.566358    6.313501    0.678898
     73          1           0       -4.290218    4.894102    1.073047
     74          1           0        0.173036    6.527780    1.765414
     75          1           0       -1.305841    7.266218    0.955783
     76          1           0        0.193813    6.733137    0.143166
     77          1           0       -3.459519    6.270854   -1.615473
     78          1           0       -5.182541    5.958933   -1.393535
     79          1           0       -4.353573    4.408965   -1.477055
     80          1           0        3.954134   -4.261502    1.797020
     81          1           0        8.053907   -1.634178    1.580949
 ---------------------------------------------------------------------

 SCF Done:  E(RB3LYP) =  -1949.10611836     A.U. after   16 cycles

 Excitation energies and oscillator strengths:

 Excited State   1:      Singlet-A      1.9438 eV  637.83 nm  f=0.3561  <S**2>=0.000
     156 ->157         0.70710
     156 <-157        -0.10456
 This state for optimization and/or second-order correction.
 Total Energy, E(TD-HF/TD-DFT) =  -1949.03468394
 Copying the excited state density for this state as the 1-particle RhoCI density.

 The electronic state is 1-A.
 Alpha  occ. eigenvalues --  -19.21529 -19.20397 -19.15020 -19.12829 -19.11123
 Alpha  occ. eigenvalues --  -19.09681 -14.38623 -14.36751 -14.34649 -14.30871
 Alpha  occ. eigenvalues --  -10.34313 -10.32550 -10.28285 -10.28093 -10.24729
 Alpha  occ. eigenvalues --  -10.24161 -10.23918 -10.23247 -10.23141 -10.23071
 Alpha  occ. eigenvalues --  -10.22639 -10.22346 -10.21411 -10.21057 -10.20997
 Alpha  occ. eigenvalues --  -10.20908 -10.20804 -10.20692 -10.20634 -10.20574
 Alpha  occ. eigenvalues --  -10.20167 -10.19803 -10.19587 -10.19546 -10.19525
 Alpha  occ. eigenvalues --  -10.19494 -10.19448 -10.19409 -10.19346 -10.19255
 Alpha  occ. eigenvalues --  -10.18650 -10.18406 -10.16840  -1.11570  -1.11502
 Alpha  occ. eigenvalues --   -1.02479  -1.01189  -1.00698  -0.99590  -0.98829
 Alpha  occ. eigenvalues --   -0.96067  -0.92658  -0.91773  -0.82347  -0.82057
 Alpha  occ. eigenvalues --   -0.82023  -0.80678  -0.80339  -0.78463  -0.77989
 Alpha  occ. eigenvalues --   -0.76644  -0.76348  -0.75300  -0.74129  -0.72121
 Alpha  occ. eigenvalues --   -0.70888  -0.70057  -0.69986  -0.68616  -0.68437
 Alpha  occ. eigenvalues --   -0.67281  -0.64527  -0.64022  -0.62158  -0.61536
 Alpha  occ. eigenvalues --   -0.61016  -0.59120  -0.58134  -0.57335  -0.56652
 Alpha  occ. eigenvalues --   -0.55942  -0.55273  -0.54748  -0.54567  -0.53164
 Alpha  occ. eigenvalues --   -0.52589  -0.52296  -0.51492  -0.50697  -0.50358
 Alpha  occ. eigenvalues --   -0.49710  -0.49385  -0.48855  -0.48383  -0.47896
 Alpha  occ. eigenvalues --   -0.47649  -0.47332  -0.46542  -0.46045  -0.45263
 Alpha  occ. eigenvalues --   -0.44735  -0.44495  -0.44269  -0.44082  -0.43520
 Alpha  occ. eigenvalues --   -0.43487  -0.43099  -0.42834  -0.42570  -0.42109
 Alpha  occ. eigenvalues --   -0.41760  -0.41387  -0.41265  -0.40943  -0.40675
 Alpha  occ. eigenvalues --   -0.40639  -0.40362  -0.40092  -0.39955  -0.39577
 Alpha  occ. eigenvalues --   -0.39408  -0.39241  -0.38868  -0.38758  -0.38375
 Alpha  occ. eigenvalues --   -0.38135  -0.37946  -0.37531  -0.36983  -0.36506
 Alpha  occ. eigenvalues --   -0.36049  -0.35584  -0.35421  -0.35200  -0.34960
 Alpha  occ. eigenvalues --   -0.34514  -0.34058  -0.33510  -0.33125  -0.32783
 Alpha  occ. eigenvalues --   -0.32336  -0.31997  -0.31472  -0.30493  -0.29333
 Alpha  occ. eigenvalues --   -0.28398  -0.28298  -0.26580  -0.25815  -0.25404
 Alpha  occ. eigenvalues --   -0.25221  -0.25063  -0.24806  -0.24343  -0.21972
 Alpha  occ. eigenvalues --   -0.18168
 Alpha virt. eigenvalues --   -0.10388  -0.06329  -0.04037  -0.02887  -0.01449
 Alpha virt. eigenvalues --   -0.00931   0.01278   0.02423   0.03435   0.03869
 Alpha virt. eigenvalues --    0.04117   0.04396   0.04635   0.05348   0.06182

 Mulliken charges:
               1
     1  O   -0.276427
     2  O   -0.184780
     3  O   -0.170031
     4  O   -0.245130
     5  O   -0.291230
     6  O   -0.258895
     7  N    0.012716
     8  N   -0.236975
     9  N   -0.156048
    10  N   -0.328814
    11  C   -0.125030
    12  C   -0.000089
    13  C   -0.165738
    14  C    0.090579
    15  C   -0.063150
    16  C    0.101075
    17  C   -0.134681
    18  C   -0.126485
    19  C    0.078363
    20  C   -0.103860
    21  C    0.099189
    22  C    0.087030
    23  C   -0.028500
    24  C    0.042568
    25  C   -0.088662
    26  C    0.079712
    27  C    0.111943
    28  C    0.094470
    29  C   -0.049060
    30  C    0.068677
    31  C   -0.117923
    32  C    0.194837
    33  C   -0.046708
    34  C    0.050394
    35  C   -0.069623
    36  C   -0.180454
    37  C    0.132068
    38  C    0.007969
    39  C    0.176175
    40  C    0.090103
    41  C    0.206701
    42  C    0.152586
    43  C   -0.066890
    44  H    0.174531
    45  H    0.077285
    46  H    0.001804
    47  H    0.021623
    48  H    0.052835
    49  H    0.029701
    50  H    0.037990
    51  H   -0.012556
    52  H    0.220825
    53  H    0.028386
    54  H   -0.011585
    55  H    0.021587
    56  H    0.153846
    57  H   -0.001414
    58  H    0.052004
    59  H    0.057766
    60  H    0.051878
    61  H    0.024465
    62  H    0.028910
    63  H    0.039561
    64  H    0.007975
    65  H    0.002103
    66  H    0.016557
    67  H   -0.054938
    68  H   -0.083947
    69  H    0.110125
    70  H    0.018326
    71  H    0.029002
    72  H   -0.027591
    73  H    0.014292
    74  H    0.028351
    75  H    0.005978
    76  H    0.008029
    77  H    0.021442
    78  H    0.019540
    79  H    0.047983
    80  H    0.223386
    81  H    0.201975
 Sum of Mulliken charges =  -0.00000

 Dipole moment (field-independent basis, Debye):
    X=              2.0018    Y=              1.8649    Z=              1.2491  Tot=              3.0075
 Quadrupole moment (field-independent basis, Debye-Ang):
   XX=           -254.4427   YY=           -236.9976   ZZ=           -257.8170
   XY=            -18.6481   XZ=             21.7937   YZ=             13.3569

 Normal termination of Gaussian 16 at Fri Jun 28 17:56:57 2019.
