 Gaussian 16, Revision A.03,
 Gaussian 16:  ES64L-G16RevA.03 25-Dec-2016

 --------------------------
 # td=(NStates=1) B3LYP/SVP
 --------------------------

 --
 TD
 --
 Symbolic Z-matrix:
 Charge =  0 Multiplicity = 1

                         Standard orientation:
 ---------------------------------------------------------------------
 Center     Atomic      Atomic             Coordinates (Angstroms)
 Number     Number       Type             X           Y           Z
 ---------------------------------------------------------------------
      1          8           0       -4.566859   -4.756116    1.899731
      2          8           0        2.859337   -4.820976    1.390119
      3          8           0        6.914586   -1.520874    1.906832
      4          8           0        3.747153   -3.155398    0.141972
      5          8           0        7.670357   -0.614287    0.007261
      6          8           0       -3.025464    2.635543   -0.345830
      7          7           0       -0.289901   -0.607687   -0.534425
      8          7           0        1.586035    1.834477   -0.522458
      9          7           0       -3.318642   -3.080365    0.775844
     10          7           0       -0.731256    2.970988   -0.252497
     11          6           0        0.721547   -2.444997   -1.434391
     12          6           0        0.881680   -1.083928   -0.997927
     13          6           0       -0.680689   -2.750400   -1.128375
     14          6           0       -1.278465   -1.559293   -0.649454
     15          6           0        3.736164    1.401658   -0.379676
     16          6           0        2.408039    0.834055   -0.746243
     17          6           0        2.183309   -0.471124   -0.993056
     18          6           0        3.595748    2.735909   -0.005324
     19          6           0        1.695208   -3.441052   -1.884993
     20          6           0       -5.572245   -2.572032    1.347500
     21          6           0       -3.609748   -1.841519    0.067082
     22          6           0        2.148416    3.023143   -0.112652
     23          6           0       -5.018184   -1.549991    0.255867
     24          6           0        5.104619    0.764914   -0.423756
     25          6           0       -2.675976   -1.121716   -0.613329
     26          6           0       -1.331711   -3.942173   -1.724084
     27          6           0       -4.482711   -3.598135    1.448042
     28          6           0        2.029533   -4.525685   -0.857987
     29          6           0        5.401091   -0.299317    0.750013
     30          6           0        4.642944    3.831613    0.125187
     31          6           0        1.358530    4.115945    0.242827
     32          6           0       -7.028462   -3.137110    1.078470
     33          6           0       -5.768868   -0.609386   -0.289600
     34          6           0       -0.043700    4.045419    0.172404
     35          6           0       -0.943639    5.284188    0.556065
     36          6           0       -2.192617    4.745540    0.352423
     37          6           0        2.888068   -4.059588    0.201177
     38          6           0       -5.494304    0.327725   -1.386280
     39          6           0        6.672476   -0.830193    0.764418
     40          6           0       -3.545199    5.367589    0.599400
     41          6           0       -2.019976    3.331817   -0.120941
     42          6           0       -0.471467    6.613424    1.036174
     43          6           0       -4.326079    5.654339   -0.637653
     44          1           0       -0.355062    0.256602   -0.118305
     45          1           0        3.058273   -1.060232   -1.262745
     46          1           0        2.624206   -3.109960   -2.327511
     47          1           0        1.142931   -3.920802   -2.706094
     48          1           0       -5.453548   -2.038022    2.376460
     49          1           0        5.315875   -0.054906   -1.253821
     50          1           0        5.817048    1.494688   -0.293091
     51          1           0       -2.815407    0.002573   -0.748987
     52          1           0        0.531488    1.824750   -0.400120
     53          1           0       -1.439250   -4.776532   -0.908347
     54          1           0       -2.544770   -4.148913   -1.825825
     55          1           0       -1.003943   -4.189189   -2.843772
     56          1           0       -2.467695   -3.610806    0.843586
     57          1           0        1.089901   -4.989188   -0.301702
     58          1           0        2.514515   -5.405022   -1.474687
     59          1           0        4.781129   -1.208409    0.842820
     60          1           0        5.192246    0.256547    1.669042
     61          1           0        4.599021    4.635076   -0.596711
     62          1           0        5.566940    3.478332    0.474254
     63          1           0        4.419437    4.518920    1.128085
     64          1           0        1.857427    4.928763    0.869353
     65          1           0       -7.806679   -2.466233    1.031109
     66          1           0       -7.115310   -3.844082    1.873256
     67          1           0       -6.957644   -3.598532    0.140278
     68          1           0       -6.787800   -0.541792   -0.076087
     69          1           0       -4.807369    1.197791   -1.021257
     70          1           0       -6.457199    0.814874   -1.866994
     71          1           0       -4.898715   -0.286504   -2.214687
     72          1           0       -3.286133    6.291338    1.217789
     73          1           0       -4.004996    4.524032    1.288685
     74          1           0        0.110434    6.642486    1.989597
     75          1           0       -1.421248    7.374944    1.179030
     76          1           0        0.088811    6.847896    0.261863
     77          1           0       -3.986575    6.453032   -1.401515
     78          1           0       -5.326013    5.979602   -0.331033
     79          1           0       -4.470860    4.893191   -1.206650
     80          1           0        3.434156   -4.563922    2.181224
     81          1           0        7.845859   -2.005244    1.879613
 ---------------------------------------------------------------------

 SCF Done:  E(RB3LYP) =  -1949.11296503     A.U. after   16 cycles

 Excitation energies and oscillator strengths:

 Excited State   1:      Singlet-A      1.9678 eV  630.07 nm  f=0.3987  <S**2>=0.000
     156 ->157         0.70629
     156 <-157        -0.10778
 This state for optimization and/or second-order correction.
 Total Energy, E(TD-HF/TD-DFT) =  -1949.04064974
 Copying the excited state density for this state as the 1-particle RhoCI density.

 The electronic state is 1-A.
 Alpha  occ. eigenvalues --  -19.18123 -19.17349 -19.14150 -19.11378 -19.11106
 Alpha  occ. eigenvalues --  -19.09857 -14.38107 -14.36998 -14.36272 -14.30034
 Alpha  occ. eigenvalues --  -10.34136 -10.31115 -10.29742 -10.26221 -10.24814
 Alpha  occ. eigenvalues --  -10.24755 -10.24089 -10.23732 -10.23624 -10.23438
 Alpha  occ. eigenvalues --  -10.23337 -10.22265 -10.21839 -10.21413 -10.21337
 Alpha  occ. eigenvalues --  -10.21311 -10.21047 -10.20985 -10.20978 -10.20362
 Alpha  occ. eigenvalues --  -10.20300 -10.20224 -10.20199 -10.19987 -10.19878
 Alpha  occ. eigenvalues --  -10.19654 -10.19528 -10.19522 -10.19425 -10.18991
 Alpha  occ. eigenvalues --  -10.18496 -10.17970 -10.16492  -1.07514  -1.07050
 Alpha  occ. eigenvalues --   -1.01715  -1.00638  -0.99927  -0.99078  -0.98984
 Alpha  occ. eigenvalues --   -0.96231  -0.93114  -0.92556  -0.83615  -0.82219
 Alpha  occ. eigenvalues --   -0.81878  -0.81465  -0.80073  -0.79464  -0.78618
 Alpha  occ. eigenvalues --   -0.78223  -0.76897  -0.75788  -0.74913  -0.72766
 Alpha  occ. eigenvalues --   -0.71560  -0.70160  -0.70107  -0.69730  -0.68555
 Alpha  occ. eigenvalues --   -0.68422  -0.66011  -0.64566  -0.62322  -0.61568
 Alpha  occ. eigenvalues --   -0.61019  -0.59759  -0.58251  -0.57712  -0.56783
 Alpha  occ. eigenvalues --   -0.56468  -0.55709  -0.54807  -0.54297  -0.53602
 Alpha  occ. eigenvalues --   -0.53056  -0.52025  -0.51248  -0.50401  -0.49776
 Alpha  occ. eigenvalues --   -0.49409  -0.48931  -0.47746  -0.47407  -0.47292
 Alpha  occ. eigenvalues --   -0.46565  -0.46368  -0.46152  -0.45826  -0.45634
 Alpha  occ. eigenvalues --   -0.45331  -0.44962  -0.44588  -0.44093  -0.43989
 Alpha  occ. eigenvalues --   -0.43595  -0.43373  -0.42723  -0.42569  -0.42122
 Alpha  occ. eigenvalues --   -0.41819  -0.41579  -0.41475  -0.41157  -0.40944
 Alpha  occ. eigenvalues --   -0.40891  -0.40383  -0.40035  -0.39790  -0.39624
 Alpha  occ. eigenvalues --   -0.39420  -0.39164  -0.39076  -0.38719  -0.38400
 Alpha  occ. eigenvalues --   -0.38221  -0.37828  -0.37554  -0.37347  -0.37000
 Alpha  occ. eigenvalues --   -0.35689  -0.35641  -0.35459  -0.35257  -0.34514
 Alpha  occ. eigenvalues --   -0.34440  -0.33656  -0.32952  -0.32528  -0.32436
 Alpha  occ. eigenvalues --   -0.31897  -0.31816  -0.30180  -0.29771  -0.28986
 Alpha  occ. eigenvalues --   -0.28569  -0.26553  -0.26455  -0.26377  -0.25633
 Alpha  occ. eigenvalues --   -0.25318  -0.24963  -0.24253  -0.23780  -0.22098
 Alpha  occ. eigenvalues --   -0.18334
 Alpha virt. eigenvalues --   -0.10574  -0.05552  -0.04095  -0.03711  -0.00663
 Alpha virt. eigenvalues --   -0.00492   0.02050   0.02396   0.02713   0.03117
 Alpha virt. eigenvalues --    0.03466   0.03904   0.04350   0.04942   0.05835

 Mulliken charges:
               1
     1  O   -0.239201
     2  O   -0.265831
     3  O   -0.246760
     4  O   -0.249997
     5  O   -0.293999
     6  O   -0.241394
     7  N    0.007022
     8  N   -0.067254
     9  N   -0.191008
    10  N   -0.245742
    11  C   -0.158892
    12  C    0.047224
    13  C   -0.085417
    14  C    0.044162
    15  C   -0.094720
    16  C    0.101220
    17  C   -0.065445
    18  C   -0.119678
    19  C    0.165598
    20  C   -0.084533
    21  C    0.172115
    22  C    0.080845
    23  C    0.023984
    24  C    0.110271
    25  C   -0.134462
    26  C   -0.077083
    27  C    0.136352
    28  C   -0.040524
    29  C   -0.019990
    30  C    0.099172
    31  C   -0.137784
    32  C    0.131168
    33  C   -0.136124
    34  C    0.050767
    35  C   -0.105606
    36  C   -0.197024
    37  C    0.185884
    38  C   -0.047689
    39  C    0.150485
    40  C    0.054760
    41  C    0.139412
    42  C    0.113489
    43  C    0.089241
    44  H    0.088846
    45  H   -0.001093
    46  H    0.009679
    47  H   -0.005043
    48  H    0.061284
    49  H    0.048766
    50  H   -0.015667
    51  H    0.050866
    52  H    0.149594
    53  H    0.027523
    54  H    0.034539
    55  H    0.069454
    56  H    0.125314
    57  H    0.064551
    58  H    0.080746
    59  H    0.059800
    60  H    0.036074
    61  H    0.042364
    62  H    0.008772
    63  H    0.004363
    64  H    0.004085
    65  H    0.004261
    66  H    0.026365
    67  H    0.002078
    68  H   -0.030786
    69  H    0.102806
    70  H    0.027472
    71  H    0.046257
    72  H   -0.002328
    73  H    0.035565
    74  H    0.039474
    75  H    0.038746
    76  H   -0.002554
    77  H    0.008663
    78  H   -0.003022
    79  H   -0.032839
    80  H    0.217245
    81  H    0.220764
 Sum of Mulliken charges =  -0.00000

 Dipole moment (field-independent basis, Debye):
    X=              1.4313    Y=              0.5248    Z=              1.1345  Tot=              1.9003
 Quadrupole moment (field-independent basis, Debye-Ang):
   XX=           -265.9730   YY=           -239.8834   ZZ=           -251.4663
   XY=            -14.7766   XZ=             16.4459   YZ=             15.3750

 Normal termination of Gaussian 16 at Wed Jul  3 11:22:22 2019.
