 Gaussian 16, Revision A.03,
 Gaussian 16:  ES64L-G16RevA.03 25-Dec-2016

 --------------------------
 # td=(NStates=1) B3LYP/SVP
 --------------------------

 --
 TD
 --
 Symbolic Z-matrix:
 Charge =  0 Multiplicity = 1

                         Standard orientation:
 ---------------------------------------------------------------------
 Center     Atomic      Atomic             Coordinates (Angstroms)
 Number     Number       Type             X           Y           Z
 ---------------------------------------------------------------------
      1          8           0       -4.351927   -4.792787    1.855007
      2          8           0        3.233058   -5.014845    1.164199
      3          8           0        6.915376   -1.389484    1.998739
      4          8           0        3.531731   -3.035928    0.051105
      5          8           0        7.576747   -0.729174   -0.162918
      6          8           0       -3.015664    2.447106   -0.128530
      7          7           0       -0.331396   -0.488195   -0.662067
      8          7           0        1.621285    1.850438   -0.497690
      9          7           0       -3.334009   -3.121966    0.635435
     10          7           0       -0.737816    2.894068   -0.137949
     11          6           0        0.670448   -2.400275   -1.228954
     12          6           0        0.977341   -1.061186   -1.016199
     13          6           0       -0.783008   -2.680034   -1.258978
     14          6           0       -1.379987   -1.441327   -0.761637
     15          6           0        3.804092    1.431036   -0.313393
     16          6           0        2.467242    0.865571   -0.582280
     17          6           0        2.188403   -0.408493   -0.926992
     18          6           0        3.585319    2.786506    0.034349
     19          6           0        1.602624   -3.405239   -1.944395
     20          6           0       -5.522489   -2.726592    1.259019
     21          6           0       -3.638937   -1.839802    0.152631
     22          6           0        2.145732    3.023315    0.011759
     23          6           0       -5.077086   -1.605273    0.385666
     24          6           0        5.060422    0.740995   -0.431125
     25          6           0       -2.666025   -1.008009   -0.423673
     26          6           0       -1.441299   -3.892996   -1.696958
     27          6           0       -4.430281   -3.683262    1.374452
     28          6           0        2.083824   -4.544134   -0.931516
     29          6           0        5.441768   -0.117174    0.729938
     30          6           0        4.610334    3.803035    0.457100
     31          6           0        1.290528    4.114297    0.300888
     32          6           0       -6.985661   -3.290558    1.059049
     33          6           0       -5.982734   -0.737379   -0.173848
     34          6           0       -0.106380    4.018420    0.140381
     35          6           0       -0.963122    5.175933    0.464804
     36          6           0       -2.202279    4.653020    0.368583
     37          6           0        3.049840   -4.191422    0.110219
     38          6           0       -5.521504    0.469368   -1.126099
     39          6           0        6.767334   -0.725619    0.797111
     40          6           0       -3.548536    5.356698    0.506951
     41          6           0       -2.105177    3.237789   -0.044588
     42          6           0       -0.511648    6.557896    0.788425
     43          6           0       -4.266085    5.775193   -0.847798
     44          1           0       -0.458982    0.396161   -0.155062
     45          1           0        2.805795   -1.218933   -0.966619
     46          1           0        2.546046   -2.881192   -2.346047
     47          1           0        0.962359   -3.772810   -2.919183
     48          1           0       -5.418736   -2.217177    2.350936
     49          1           0        5.166019    0.331585   -1.398387
     50          1           0        5.859134    1.527494   -0.602156
     51          1           0       -3.000269   -0.040252   -0.390512
     52          1           0        0.794656    1.713930   -0.806069
     53          1           0       -1.166711   -4.651317   -0.878378
     54          1           0       -2.415578   -3.663097   -1.644521
     55          1           0       -1.313007   -4.289659   -2.691772
     56          1           0       -2.434737   -3.555910    0.989921
     57          1           0        1.404724   -5.323372   -0.393791
     58          1           0        2.706630   -5.324071   -1.399261
     59          1           0        4.535573   -0.920476    0.644385
     60          1           0        5.228852    0.409025    1.609507
     61          1           0        4.392377    4.610081   -0.005291
     62          1           0        5.650757    3.657326    0.198949
     63          1           0        4.671030    3.981338    1.515269
     64          1           0        1.764933    5.177384    0.627512
     65          1           0       -7.752405   -2.345745    1.025446
     66          1           0       -7.195463   -3.919881    1.757215
     67          1           0       -6.765394   -3.653307    0.061064
     68          1           0       -6.849632   -0.605669    0.237513
     69          1           0       -5.129791    1.327577   -0.629033
     70          1           0       -6.442787    0.784533   -1.490904
     71          1           0       -4.695034    0.260692   -1.911299
     72          1           0       -3.612473    6.167557    1.193840
     73          1           0       -4.276290    4.724454    1.098035
     74          1           0        0.002671    6.595806    1.711671
     75          1           0       -1.502755    7.237707    0.830930
     76          1           0        0.127011    7.048559    0.013652
     77          1           0       -3.802176    6.351463   -1.541505
     78          1           0       -5.179210    6.265361   -0.748665
     79          1           0       -4.377538    4.865889   -1.511359
     80          1           0        4.056660   -4.526992    1.728734
     81          1           0        7.794633   -1.845371    1.852951
 ---------------------------------------------------------------------

 SCF Done:  E(RB3LYP) =  -1949.06456733     A.U. after   17 cycles

 Excitation energies and oscillator strengths:

 Excited State   1:      Singlet-A      1.8099 eV  685.05 nm  f=0.4083  <S**2>=0.000
     156 ->157         0.71192
     156 <-157        -0.13396
 This state for optimization and/or second-order correction.
 Total Energy, E(TD-HF/TD-DFT) =  -1948.99805595
 Copying the excited state density for this state as the 1-particle RhoCI density.

 The electronic state is 1-A.
 Alpha  occ. eigenvalues --  -19.21299 -19.19335 -19.13327 -19.13196 -19.11521
 Alpha  occ. eigenvalues --  -19.10106 -14.36667 -14.35974 -14.35293 -14.27812
 Alpha  occ. eigenvalues --  -10.33548 -10.32588 -10.29208 -10.25647 -10.24691
 Alpha  occ. eigenvalues --  -10.24389 -10.23633 -10.23327 -10.22837 -10.22521
 Alpha  occ. eigenvalues --  -10.22444 -10.21785 -10.21462 -10.20722 -10.20414
 Alpha  occ. eigenvalues --  -10.20084 -10.20038 -10.20026 -10.19957 -10.19810
 Alpha  occ. eigenvalues --  -10.19670 -10.19471 -10.19451 -10.19204 -10.19191
 Alpha  occ. eigenvalues --  -10.18851 -10.18793 -10.18582 -10.18271 -10.18123
 Alpha  occ. eigenvalues --  -10.17811 -10.17379 -10.16576  -1.09582  -1.08390
 Alpha  occ. eigenvalues --   -1.03914  -1.01666  -1.00360  -0.99984  -0.99376
 Alpha  occ. eigenvalues --   -0.94731  -0.93941  -0.91836  -0.82950  -0.82108
 Alpha  occ. eigenvalues --   -0.81860  -0.80857  -0.79158  -0.79026  -0.77945
 Alpha  occ. eigenvalues --   -0.77521  -0.76365  -0.74712  -0.73964  -0.72881
 Alpha  occ. eigenvalues --   -0.72553  -0.70105  -0.70005  -0.68688  -0.67942
 Alpha  occ. eigenvalues --   -0.67402  -0.66137  -0.64875  -0.63191  -0.61718
 Alpha  occ. eigenvalues --   -0.59734  -0.59289  -0.58406  -0.57839  -0.56533
 Alpha  occ. eigenvalues --   -0.55773  -0.55687  -0.54943  -0.53812  -0.53365
 Alpha  occ. eigenvalues --   -0.52275  -0.51573  -0.50653  -0.50369  -0.50064
 Alpha  occ. eigenvalues --   -0.49646  -0.48973  -0.48652  -0.48566  -0.48131
 Alpha  occ. eigenvalues --   -0.47568  -0.46799  -0.46404  -0.45943  -0.44618
 Alpha  occ. eigenvalues --   -0.44551  -0.44280  -0.44139  -0.44100  -0.43425
 Alpha  occ. eigenvalues --   -0.43238  -0.42891  -0.42681  -0.42453  -0.42045
 Alpha  occ. eigenvalues --   -0.41843  -0.41410  -0.41214  -0.41013  -0.40883
 Alpha  occ. eigenvalues --   -0.40809  -0.40176  -0.40111  -0.39589  -0.39321
 Alpha  occ. eigenvalues --   -0.39166  -0.39062  -0.38749  -0.38392  -0.38261
 Alpha  occ. eigenvalues --   -0.38136  -0.37772  -0.37538  -0.37397  -0.37223
 Alpha  occ. eigenvalues --   -0.37013  -0.36217  -0.35662  -0.35370  -0.34475
 Alpha  occ. eigenvalues --   -0.34223  -0.33989  -0.33591  -0.33350  -0.32902
 Alpha  occ. eigenvalues --   -0.32374  -0.31553  -0.31445  -0.30091  -0.28619
 Alpha  occ. eigenvalues --   -0.28296  -0.27560  -0.27019  -0.26292  -0.25253
 Alpha  occ. eigenvalues --   -0.25089  -0.23799  -0.23579  -0.23314  -0.21184
 Alpha  occ. eigenvalues --   -0.17150
 Alpha virt. eigenvalues --   -0.10202  -0.06027  -0.04269  -0.01839  -0.01330
 Alpha virt. eigenvalues --   -0.00786  -0.00200   0.02236   0.02962   0.04228
 Alpha virt. eigenvalues --    0.04542   0.04897   0.05468   0.05959   0.06056

 Mulliken charges:
               1
     1  O   -0.197276
     2  O   -0.236535
     3  O   -0.210190
     4  O   -0.278713
     5  O   -0.264446
     6  O   -0.184671
     7  N   -0.194970
     8  N    0.096936
     9  N   -0.191361
    10  N   -0.274048
    11  C   -0.071381
    12  C    0.019239
    13  C   -0.203062
    14  C    0.162163
    15  C   -0.119702
    16  C    0.073238
    17  C    0.023900
    18  C   -0.135474
    19  C    0.042174
    20  C   -0.095910
    21  C    0.054592
    22  C    0.108678
    23  C   -0.006470
    24  C    0.139755
    25  C   -0.052109
    26  C    0.172237
    27  C    0.082279
    28  C    0.027483
    29  C   -0.005275
    30  C    0.204919
    31  C   -0.180425
    32  C    0.123077
    33  C   -0.071847
    34  C    0.058365
    35  C   -0.089159
    36  C   -0.170746
    37  C    0.130122
    38  C    0.042508
    39  C    0.186547
    40  C    0.084103
    41  C    0.146132
    42  C    0.087826
    43  C    0.043040
    44  H    0.140501
    45  H   -0.057564
    46  H    0.039945
    47  H    0.050636
    48  H    0.064716
    49  H   -0.004881
    50  H   -0.013764
    51  H   -0.038841
    52  H    0.038675
    53  H    0.027779
    54  H   -0.017030
    55  H    0.018218
    56  H    0.160089
    57  H    0.041823
    58  H    0.027656
    59  H    0.093766
    60  H    0.006866
    61  H   -0.040395
    62  H   -0.008371
    63  H    0.015157
    64  H    0.010863
    65  H    0.040876
    66  H   -0.009139
    67  H    0.031802
    68  H   -0.058230
    69  H    0.049093
    70  H   -0.015684
    71  H    0.046201
    72  H   -0.023904
    73  H    0.001919
    74  H    0.020922
    75  H    0.034069
    76  H    0.030424
    77  H   -0.028502
    78  H   -0.007581
    79  H    0.013412
    80  H    0.253776
    81  H    0.189156
 Sum of Mulliken charges =  -0.00000

 Dipole moment (field-independent basis, Debye):
    X=              2.2136    Y=             -0.0055    Z=              1.1174  Tot=              2.4796
 Quadrupole moment (field-independent basis, Debye-Ang):
   XX=           -245.6778   YY=           -235.6282   ZZ=           -252.1524
   XY=            -15.7185   XZ=             13.3998   YZ=              9.8077

 Normal termination of Gaussian 16 at Thu Jul  4 11:58:38 2019.
