 Gaussian 16, Revision A.03,
 Gaussian 16:  ES64L-G16RevA.03 25-Dec-2016

 --------------------------
 # td=(NStates=1) B3LYP/SVP
 --------------------------

 --
 TD
 --
 Symbolic Z-matrix:
 Charge =  0 Multiplicity = 1

                         Standard orientation:
 ---------------------------------------------------------------------
 Center     Atomic      Atomic             Coordinates (Angstroms)
 Number     Number       Type             X           Y           Z
 ---------------------------------------------------------------------
      1          8           0       -4.320808   -4.796855    2.049200
      2          8           0        3.248937   -4.660105    1.267054
      3          8           0        7.139966   -1.319222    1.922881
      4          8           0        3.923612   -2.952502   -0.043024
      5          8           0        7.719412   -0.428813   -0.090202
      6          8           0       -3.140362    2.428314   -0.321241
      7          7           0       -0.273000   -0.594060   -0.574964
      8          7           0        1.421612    1.801242   -0.396195
      9          7           0       -3.322030   -3.257801    0.620668
     10          7           0       -0.837598    2.919350   -0.280819
     11          6           0        0.724887   -2.438343   -1.358528
     12          6           0        0.891133   -1.094698   -0.993401
     13          6           0       -0.671349   -2.701341   -1.313843
     14          6           0       -1.220033   -1.501523   -0.806396
     15          6           0        3.724111    1.579461   -0.319149
     16          6           0        2.451815    0.927178   -0.679113
     17          6           0        2.176735   -0.393500   -0.942703
     18          6           0        3.444619    2.849153    0.087599
     19          6           0        1.679464   -3.436109   -1.888055
     20          6           0       -5.562049   -2.696162    1.406181
     21          6           0       -3.564525   -1.999427    0.047241
     22          6           0        2.066920    3.002627   -0.031186
     23          6           0       -4.983410   -1.620141    0.321928
     24          6           0        5.061377    0.777341   -0.317618
     25          6           0       -2.668985   -1.188061   -0.435767
     26          6           0       -1.427508   -3.984060   -1.832840
     27          6           0       -4.417208   -3.750101    1.412265
     28          6           0        2.284735   -4.572516   -0.901910
     29          6           0        5.389257   -0.047010    0.806907
     30          6           0        4.462345    3.940302    0.540862
     31          6           0        1.179153    4.139155    0.176564
     32          6           0       -6.875853   -3.299206    1.232903
     33          6           0       -5.754665   -0.696735   -0.151508
     34          6           0       -0.233603    4.061323    0.085194
     35          6           0       -1.101205    5.089580    0.474269
     36          6           0       -2.381398    4.563845    0.276975
     37          6           0        3.232393   -3.995348    0.113629
     38          6           0       -5.412551    0.343323   -1.236683
     39          6           0        6.779968   -0.585812    0.747914
     40          6           0       -3.693929    5.249738    0.535187
     41          6           0       -2.196279    3.193415   -0.127528
     42          6           0       -0.665729    6.479263    0.902085
     43          6           0       -4.466941    5.463023   -0.832009
     44          1           0       -0.350902    0.433830   -0.158888
     45          1           0        3.029929   -1.190517   -0.934753
     46          1           0        2.745205   -3.005622   -2.014496
     47          1           0        1.264764   -3.943260   -2.738316
     48          1           0       -5.548749   -2.377349    2.629159
     49          1           0        5.162594    0.317984   -1.403039
     50          1           0        5.926735    1.425529   -0.414480
     51          1           0       -3.255174    0.024494   -0.526349
     52          1           0        0.405916    1.790934   -0.570918
     53          1           0       -1.517391   -4.689512   -1.300958
     54          1           0       -2.264362   -3.586407   -2.022605
     55          1           0       -0.989532   -4.244391   -2.877953
     56          1           0       -2.436450   -3.718420    0.655468
     57          1           0        1.446148   -5.074436   -0.370120
     58          1           0        2.722019   -5.331873   -1.477610
     59          1           0        4.705151   -1.060872    0.826661
     60          1           0        5.261173    0.337378    1.697089
     61          1           0        4.079316    4.958937    0.069817
     62          1           0        5.355747    3.728359    0.115091
     63          1           0        4.280755    4.268799    1.635698
     64          1           0        1.406122    5.133392    0.686939
     65          1           0       -7.728507   -2.431997    1.022507
     66          1           0       -7.207159   -3.862520    2.020793
     67          1           0       -7.034778   -4.068307    0.399562
     68          1           0       -6.694839   -0.491387    0.210144
     69          1           0       -4.875547    1.127669   -0.662992
     70          1           0       -6.351029    0.778537   -1.484381
     71          1           0       -4.624054    0.152871   -2.061686
     72          1           0       -3.746656    6.143854    1.232411
     73          1           0       -4.495612    4.566354    0.889167
     74          1           0       -0.167417    6.599230    1.850267
     75          1           0       -1.628321    7.235506    1.011293
     76          1           0        0.060490    6.871568    0.125745
     77          1           0       -3.931047    6.087343   -1.686373
     78          1           0       -5.536833    6.033907   -0.671668
     79          1           0       -4.467741    4.499838   -1.341975
     80          1           0        3.808572   -4.173716    2.057626
     81          1           0        8.192367   -1.465200    1.729135
 ---------------------------------------------------------------------

 SCF Done:  E(RB3LYP) =  -1949.01564138     A.U. after   17 cycles

 Excitation energies and oscillator strengths:

 Excited State   1:      Singlet-A      1.9124 eV  648.32 nm  f=0.3227  <S**2>=0.000
     156 ->157         0.70369
     156 <-157        -0.10922
 This state for optimization and/or second-order correction.
 Total Energy, E(TD-HF/TD-DFT) =  -1948.94536244
 Copying the excited state density for this state as the 1-particle RhoCI density.

 The electronic state is 1-A.
 Alpha  occ. eigenvalues --  -19.21351 -19.17737 -19.14841 -19.13442 -19.10954
 Alpha  occ. eigenvalues --  -19.10132 -14.38959 -14.36240 -14.36177 -14.28433
 Alpha  occ. eigenvalues --  -10.34916 -10.32958 -10.29355 -10.25938 -10.25028
 Alpha  occ. eigenvalues --  -10.24219 -10.23690 -10.23422 -10.23078 -10.22417
 Alpha  occ. eigenvalues --  -10.22297 -10.22092 -10.22012 -10.21854 -10.21565
 Alpha  occ. eigenvalues --  -10.21432 -10.21187 -10.21137 -10.21020 -10.20944
 Alpha  occ. eigenvalues --  -10.20024 -10.19842 -10.19825 -10.19723 -10.19619
 Alpha  occ. eigenvalues --  -10.19612 -10.19603 -10.19291 -10.19148 -10.19032
 Alpha  occ. eigenvalues --  -10.18786 -10.17943 -10.17671  -1.10537  -1.05861
 Alpha  occ. eigenvalues --   -1.02176  -1.01078  -1.00635  -1.00520  -0.97935
 Alpha  occ. eigenvalues --   -0.96805  -0.93450  -0.92510  -0.83384  -0.82357
 Alpha  occ. eigenvalues --   -0.81270  -0.81114  -0.79803  -0.79069  -0.78418
 Alpha  occ. eigenvalues --   -0.77773  -0.76540  -0.75223  -0.74160  -0.73263
 Alpha  occ. eigenvalues --   -0.71810  -0.70204  -0.69340  -0.68887  -0.67982
 Alpha  occ. eigenvalues --   -0.67755  -0.65030  -0.64627  -0.62019  -0.61421
 Alpha  occ. eigenvalues --   -0.60462  -0.58980  -0.58197  -0.57748  -0.56376
 Alpha  occ. eigenvalues --   -0.56290  -0.55715  -0.55229  -0.54396  -0.53565
 Alpha  occ. eigenvalues --   -0.52990  -0.52696  -0.51069  -0.50625  -0.49944
 Alpha  occ. eigenvalues --   -0.49746  -0.48996  -0.48100  -0.47525  -0.47458
 Alpha  occ. eigenvalues --   -0.47380  -0.47028  -0.46619  -0.45937  -0.45492
 Alpha  occ. eigenvalues --   -0.45294  -0.44963  -0.44339  -0.43933  -0.43877
 Alpha  occ. eigenvalues --   -0.43427  -0.43206  -0.43092  -0.42551  -0.42318
 Alpha  occ. eigenvalues --   -0.41818  -0.41511  -0.41305  -0.41004  -0.40751
 Alpha  occ. eigenvalues --   -0.40504  -0.40279  -0.40199  -0.39870  -0.39515
 Alpha  occ. eigenvalues --   -0.39293  -0.38879  -0.38646  -0.38318  -0.38244
 Alpha  occ. eigenvalues --   -0.37821  -0.37479  -0.37330  -0.37150  -0.36593
 Alpha  occ. eigenvalues --   -0.36449  -0.36182  -0.35027  -0.34540  -0.34457
 Alpha  occ. eigenvalues --   -0.34150  -0.33649  -0.33480  -0.33163  -0.32741
 Alpha  occ. eigenvalues --   -0.31638  -0.31113  -0.31067  -0.30107  -0.29786
 Alpha  occ. eigenvalues --   -0.28592  -0.28256  -0.26874  -0.26207  -0.25870
 Alpha  occ. eigenvalues --   -0.25428  -0.25118  -0.24199  -0.22875  -0.21693
 Alpha  occ. eigenvalues --   -0.18571
 Alpha virt. eigenvalues --   -0.10912  -0.06098  -0.03480  -0.02571  -0.01768
 Alpha virt. eigenvalues --   -0.00416   0.00088   0.01967   0.03631   0.03887
 Alpha virt. eigenvalues --    0.04157   0.04394   0.04872   0.05284   0.05869

 Mulliken charges:
               1
     1  O   -0.225020
     2  O   -0.215158
     3  O   -0.299005
     4  O   -0.274998
     5  O   -0.280967
     6  O   -0.222947
     7  N   -0.024477
     8  N   -0.135230
     9  N   -0.151637
    10  N   -0.313426
    11  C   -0.072715
    12  C   -0.003737
    13  C   -0.224618
    14  C    0.013652
    15  C   -0.092762
    16  C    0.122204
    17  C   -0.112153
    18  C   -0.134611
    19  C    0.047892
    20  C   -0.096033
    21  C    0.157266
    22  C    0.137034
    23  C    0.066298
    24  C    0.061771
    25  C   -0.203252
    26  C    0.323526
    27  C    0.138145
    28  C    0.025533
    29  C    0.096164
    30  C    0.130900
    31  C   -0.119881
    32  C    0.034869
    33  C   -0.169437
    34  C    0.030617
    35  C   -0.084036
    36  C   -0.130024
    37  C    0.172427
    38  C    0.029060
    39  C    0.173408
    40  C    0.081779
    41  C    0.150209
    42  C    0.039831
    43  C   -0.102212
    44  H    0.179459
    45  H    0.063229
    46  H    0.035173
    47  H    0.002138
    48  H    0.067350
    49  H    0.043461
    50  H   -0.006405
    51  H    0.103390
    52  H    0.140247
    53  H   -0.065840
    54  H   -0.044829
    55  H    0.020874
    56  H    0.116635
    57  H    0.030089
    58  H    0.035815
    59  H    0.082614
    60  H   -0.018230
    61  H    0.023185
    62  H    0.006032
    63  H    0.043881
    64  H   -0.020837
    65  H    0.027381
    66  H    0.001975
    67  H    0.015782
    68  H   -0.033997
    69  H    0.072217
    70  H   -0.007965
    71  H    0.051913
    72  H    0.017083
    73  H    0.014359
    74  H    0.025671
    75  H    0.039127
    76  H    0.038733
    77  H    0.007818
    78  H    0.034361
    79  H    0.034811
    80  H    0.254145
    81  H    0.224910
 Sum of Mulliken charges =  -0.00000

 Dipole moment (field-independent basis, Debye):
    X=              2.7749    Y=              0.2816    Z=              1.3084  Tot=              3.0808
 Quadrupole moment (field-independent basis, Debye-Ang):
   XX=           -259.4460   YY=           -240.2900   ZZ=           -255.3240
   XY=            -12.3946   XZ=             14.7235   YZ=             17.6483

 Normal termination of Gaussian 16 at Fri Jul  5 13:34:34 2019.
