 Gaussian 16, Revision A.03,
 Gaussian 16:  ES64L-G16RevA.03 25-Dec-2016

 --------------------------
 # td=(NStates=1) B3LYP/SVP
 --------------------------

 --
 TD
 --
 Symbolic Z-matrix:
 Charge =  0 Multiplicity = 1

                         Standard orientation:
 ---------------------------------------------------------------------
 Center     Atomic      Atomic             Coordinates (Angstroms)
 Number     Number       Type             X           Y           Z
 ---------------------------------------------------------------------
      1          8           0       -4.060475   -4.918428    1.962530
      2          8           0        3.250008   -4.693192    1.220948
      3          8           0        6.974073   -1.163253    1.942332
      4          8           0        3.863085   -2.794682    0.044624
      5          8           0        7.501367   -0.531413   -0.168045
      6          8           0       -3.058825    2.140734   -0.293662
      7          7           0       -0.207417   -0.589286   -0.583750
      8          7           0        1.359485    1.969723   -0.271631
      9          7           0       -3.240469   -3.311047    0.625425
     10          7           0       -0.923009    2.914133   -0.122684
     11          6           0        0.890436   -2.396466   -1.372931
     12          6           0        0.987227   -1.028335   -0.915391
     13          6           0       -0.471785   -2.832087   -1.189168
     14          6           0       -1.146078   -1.585840   -0.783759
     15          6           0        3.698561    1.709803   -0.232378
     16          6           0        2.414378    0.965065   -0.545320
     17          6           0        2.176210   -0.295574   -0.901906
     18          6           0        3.412061    2.963087    0.052432
     19          6           0        1.886079   -3.356843   -1.935423
     20          6           0       -5.290862   -2.790442    1.479251
     21          6           0       -3.551053   -1.949845    0.046053
     22          6           0        1.952560    3.098287    0.082443
     23          6           0       -4.943437   -1.776162    0.329800
     24          6           0        4.999909    0.970085   -0.385533
     25          6           0       -2.537329   -1.211987   -0.577883
     26          6           0       -1.257785   -3.855049   -1.864387
     27          6           0       -4.196481   -3.835190    1.433105
     28          6           0        2.338874   -4.458966   -0.988950
     29          6           0        5.471304    0.189470    0.895247
     30          6           0        4.316881    4.204834    0.339602
     31          6           0        1.147078    4.137448    0.317608
     32          6           0       -6.688916   -3.430979    1.404623
     33          6           0       -5.719418   -0.813362   -0.184687
     34          6           0       -0.331887    4.018041    0.245424
     35          6           0       -1.278587    5.100092    0.490162
     36          6           0       -2.559578    4.554688    0.360993
     37          6           0        3.251235   -3.892180    0.095262
     38          6           0       -5.363500    0.040068   -1.385485
     39          6           0        6.743245   -0.534121    0.791737
     40          6           0       -3.928565    5.089481    0.387594
     41          6           0       -2.319562    3.165227   -0.061472
     42          6           0       -0.946205    6.465053    0.848997
     43          6           0       -4.694016    5.434387   -0.895217
     44          1           0       -0.405793    0.331786   -0.418800
     45          1           0        3.083602   -0.972083   -1.194533
     46          1           0        2.750073   -3.071353   -2.461855
     47          1           0        1.411775   -3.831043   -2.770737
     48          1           0       -5.347766   -2.292887    2.331726
     49          1           0        4.822711    0.233717   -1.198859
     50          1           0        5.737857    1.660051   -0.566719
     51          1           0       -2.814417   -0.122199   -0.884343
     52          1           0        0.307800    1.838585   -0.411956
     53          1           0       -1.049372   -4.875901   -1.380113
     54          1           0       -2.479995   -3.729002   -1.883445
     55          1           0       -0.744675   -4.019271   -2.857151
     56          1           0       -2.278865   -3.624950    0.615758
     57          1           0        1.455255   -5.045192   -0.589228
     58          1           0        3.057894   -5.023388   -1.734180
     59          1           0        4.621881   -0.733819    1.355410
     60          1           0        5.290706    0.804676    1.614802
     61          1           0        3.698325    5.194719   -0.193117
     62          1           0        5.276382    4.048477   -0.171113
     63          1           0        4.431037    4.170784    1.346027
     64          1           0        1.467026    5.150564    0.609422
     65          1           0       -7.426346   -2.598013    1.565572
     66          1           0       -6.880873   -4.228468    2.178452
     67          1           0       -6.841186   -3.952662    0.418429
     68          1           0       -6.775963   -0.709750    0.190686
     69          1           0       -4.866568    1.000192   -1.275502
     70          1           0       -6.172200    0.296883   -2.090374
     71          1           0       -4.624798   -0.561571   -2.247963
     72          1           0       -3.842187    5.748442    1.154882
     73          1           0       -4.445202    4.118483    0.949971
     74          1           0       -0.664517    6.591566    2.032624
     75          1           0       -1.825671    7.240935    0.839056
     76          1           0       -0.258726    6.825333   -0.074334
     77          1           0       -4.174670    6.315900   -1.413731
     78          1           0       -5.807768    5.801657   -0.840553
     79          1           0       -4.738755    4.539833   -1.690170
     80          1           0        3.800621   -4.350830    1.938315
     81          1           0        7.813417   -1.743128    1.723631
 ---------------------------------------------------------------------

 SCF Done:  E(RB3LYP) =  -1949.07571050     A.U. after   17 cycles

 Excitation energies and oscillator strengths:

 Excited State   1:      Singlet-A      1.7164 eV  722.34 nm  f=0.2257  <S**2>=0.000
     156 ->157         0.70633
     156 <-157        -0.10190
 This state for optimization and/or second-order correction.
 Total Energy, E(TD-HF/TD-DFT) =  -1949.01263300
 Copying the excited state density for this state as the 1-particle RhoCI density.

 The electronic state is 1-A.
 Alpha  occ. eigenvalues --  -19.19429 -19.19015 -19.14519 -19.12503 -19.11094
 Alpha  occ. eigenvalues --  -19.09409 -14.37615 -14.35178 -14.35011 -14.29197
 Alpha  occ. eigenvalues --  -10.34321 -10.31953 -10.27694 -10.27072 -10.23960
 Alpha  occ. eigenvalues --  -10.23461 -10.23318 -10.23057 -10.23015 -10.22961
 Alpha  occ. eigenvalues --  -10.22576 -10.22549 -10.21350 -10.21065 -10.20934
 Alpha  occ. eigenvalues --  -10.20884 -10.20666 -10.20549 -10.20291 -10.20239
 Alpha  occ. eigenvalues --  -10.20113 -10.20105 -10.20066 -10.19996 -10.19940
 Alpha  occ. eigenvalues --  -10.19899 -10.19872 -10.19869 -10.19699 -10.19396
 Alpha  occ. eigenvalues --  -10.18820 -10.18808 -10.18564  -1.09703  -1.08925
 Alpha  occ. eigenvalues --   -1.02217  -1.00333  -1.00006  -0.99863  -0.99472
 Alpha  occ. eigenvalues --   -0.96859  -0.92271  -0.92203  -0.83028  -0.82701
 Alpha  occ. eigenvalues --   -0.81139  -0.80892  -0.80737  -0.78742  -0.77875
 Alpha  occ. eigenvalues --   -0.77406  -0.76511  -0.75628  -0.73635  -0.71821
 Alpha  occ. eigenvalues --   -0.71267  -0.69660  -0.69301  -0.69073  -0.68098
 Alpha  occ. eigenvalues --   -0.66969  -0.64635  -0.64042  -0.63061  -0.61787
 Alpha  occ. eigenvalues --   -0.61551  -0.59249  -0.58258  -0.57922  -0.57404
 Alpha  occ. eigenvalues --   -0.56633  -0.55747  -0.54839  -0.53845  -0.52763
 Alpha  occ. eigenvalues --   -0.51876  -0.51551  -0.51197  -0.50656  -0.49856
 Alpha  occ. eigenvalues --   -0.48926  -0.48448  -0.48414  -0.48127  -0.47572
 Alpha  occ. eigenvalues --   -0.46621  -0.46507  -0.45843  -0.45639  -0.45253
 Alpha  occ. eigenvalues --   -0.45006  -0.44640  -0.44138  -0.43510  -0.43066
 Alpha  occ. eigenvalues --   -0.42725  -0.42555  -0.42430  -0.42043  -0.41899
 Alpha  occ. eigenvalues --   -0.41661  -0.41375  -0.41311  -0.40714  -0.40483
 Alpha  occ. eigenvalues --   -0.40234  -0.39940  -0.39772  -0.39673  -0.39370
 Alpha  occ. eigenvalues --   -0.39287  -0.39097  -0.38780  -0.38671  -0.38279
 Alpha  occ. eigenvalues --   -0.38027  -0.37799  -0.36916  -0.36852  -0.35718
 Alpha  occ. eigenvalues --   -0.35451  -0.35372  -0.34948  -0.34416  -0.34321
 Alpha  occ. eigenvalues --   -0.33941  -0.33710  -0.33417  -0.33073  -0.32865
 Alpha  occ. eigenvalues --   -0.32346  -0.32235  -0.31662  -0.30118  -0.29386
 Alpha  occ. eigenvalues --   -0.28208  -0.27588  -0.26531  -0.25779  -0.25167
 Alpha  occ. eigenvalues --   -0.24898  -0.24675  -0.24522  -0.23761  -0.21423
 Alpha  occ. eigenvalues --   -0.17506
 Alpha virt. eigenvalues --   -0.10483  -0.06263  -0.03860  -0.02874  -0.00544
 Alpha virt. eigenvalues --    0.01495   0.02104   0.02973   0.03132   0.03284
 Alpha virt. eigenvalues --    0.03670   0.04082   0.04726   0.04820   0.05630

 Mulliken charges:
               1
     1  O   -0.216871
     2  O   -0.198018
     3  O   -0.202882
     4  O   -0.256256
     5  O   -0.244108
     6  O   -0.250188
     7  N    0.058183
     8  N   -0.161570
     9  N   -0.163602
    10  N   -0.271299
    11  C   -0.107211
    12  C    0.008486
    13  C   -0.129914
    14  C    0.022232
    15  C   -0.102405
    16  C    0.114704
    17  C   -0.102304
    18  C   -0.158774
    19  C    0.141739
    20  C   -0.020898
    21  C    0.097979
    22  C    0.184608
    23  C    0.024385
    24  C    0.202933
    25  C   -0.118723
    26  C    0.012491
    27  C    0.143316
    28  C   -0.017193
    29  C   -0.041361
    30  C    0.110054
    31  C   -0.174462
    32  C   -0.002155
    33  C   -0.096123
    34  C    0.034303
    35  C   -0.089002
    36  C   -0.183317
    37  C    0.171978
    38  C   -0.035101
    39  C    0.182763
    40  C    0.113745
    41  C    0.174637
    42  C   -0.029428
    43  C   -0.033687
    44  H    0.067900
    45  H    0.042534
    46  H   -0.018553
    47  H   -0.025860
    48  H   -0.001948
    49  H    0.024180
    50  H   -0.024149
    51  H    0.066329
    52  H    0.172566
    53  H    0.012897
    54  H    0.085398
    55  H    0.026447
    56  H    0.121531
    57  H    0.060182
    58  H    0.059566
    59  H    0.074964
    60  H   -0.027396
    61  H    0.061172
    62  H    0.025056
    63  H    0.014990
    64  H   -0.030219
    65  H    0.018499
    66  H    0.038373
    67  H    0.019414
    68  H    0.002043
    69  H    0.059295
    70  H    0.003644
    71  H    0.029046
    72  H   -0.030978
    73  H    0.030885
    74  H    0.066055
    75  H    0.027392
    76  H    0.060215
    77  H    0.018597
    78  H    0.035100
    79  H    0.048726
    80  H    0.188412
    81  H    0.206012
 Sum of Mulliken charges =  -0.00000

 Dipole moment (field-independent basis, Debye):
    X=              2.8672    Y=              2.9912    Z=              0.2501  Tot=              4.1510
 Quadrupole moment (field-independent basis, Debye-Ang):
   XX=           -253.3674   YY=           -238.4030   ZZ=           -251.8383
   XY=            -25.5769   XZ=             15.7218   YZ=             14.4135

 Normal termination of Gaussian 16 at Thu Jun 27 19:18:55 2019.
