 Gaussian 16, Revision A.03,
 Gaussian 16:  ES64L-G16RevA.03 25-Dec-2016

 --------------------------
 # td=(NStates=1) B3LYP/SVP
 --------------------------

 --
 TD
 --
 Symbolic Z-matrix:
 Charge =  0 Multiplicity = 1

                         Standard orientation:
 ---------------------------------------------------------------------
 Center     Atomic      Atomic             Coordinates (Angstroms)
 Number     Number       Type             X           Y           Z
 ---------------------------------------------------------------------
      1          8           0       -4.761635   -4.682508    1.773248
      2          8           0        2.923666   -4.714193    1.506976
      3          8           0        7.243449   -1.222569    1.878675
      4          8           0        3.702926   -3.075324    0.270250
      5          8           0        7.536304   -0.680629   -0.357294
      6          8           0       -3.045416    2.412629   -0.228950
      7          7           0       -0.178377   -0.605525   -0.597865
      8          7           0        1.559001    1.809847   -0.534112
      9          7           0       -3.390281   -3.030004    0.689635
     10          7           0       -0.845859    2.915026   -0.167964
     11          6           0        0.779610   -2.504885   -1.250144
     12          6           0        1.029349   -1.146631   -0.870551
     13          6           0       -0.655937   -2.715072   -1.187155
     14          6           0       -1.259854   -1.474960   -0.710209
     15          6           0        3.763991    1.415805   -0.389007
     16          6           0        2.549802    0.821398   -0.670277
     17          6           0        2.300568   -0.578099   -0.811247
     18          6           0        3.567279    2.791830   -0.051107
     19          6           0        1.667447   -3.521086   -1.826801
     20          6           0       -5.656746   -2.511711    1.183549
     21          6           0       -3.631810   -1.842856    0.163115
     22          6           0        2.132407    3.034703   -0.120095
     23          6           0       -5.076402   -1.446221    0.321502
     24          6           0        5.128544    0.709846   -0.508592
     25          6           0       -2.628247   -1.009598   -0.412556
     26          6           0       -1.381275   -3.937007   -1.719619
     27          6           0       -4.579042   -3.612525    1.302419
     28          6           0        2.096904   -4.559140   -0.739599
     29          6           0        5.463195   -0.140659    0.700171
     30          6           0        4.580064    3.766780    0.375045
     31          6           0        1.304058    4.073178    0.222702
     32          6           0       -7.044605   -3.180352    0.966183
     33          6           0       -5.794606   -0.534259   -0.252338
     34          6           0       -0.098341    3.950014    0.119922
     35          6           0       -0.979511    5.132402    0.454410
     36          6           0       -2.299767    4.692251    0.351400
     37          6           0        2.971085   -4.011773    0.399047
     38          6           0       -5.304899    0.459954   -1.312446
     39          6           0        6.859917   -0.655592    0.709431
     40          6           0       -3.640889    5.312408    0.522151
     41          6           0       -2.153088    3.143210    0.036607
     42          6           0       -0.630264    6.474383    0.948108
     43          6           0       -4.392523    5.461681   -0.751234
     44          1           0       -0.480288    0.256110   -0.254069
     45          1           0        3.010735   -1.267588   -0.945856
     46          1           0        2.481429   -3.046924   -1.923928
     47          1           0        1.198214   -3.962066   -2.677300
     48          1           0       -5.606839   -2.241423    2.177875
     49          1           0        5.226985   -0.117358   -1.351362
     50          1           0        6.153704    1.359522   -0.955043
     51          1           0       -2.810923   -0.108016   -0.693292
     52          1           0        0.649764    1.674912   -0.626559
     53          1           0       -1.165947   -4.764002   -0.909792
     54          1           0       -2.451824   -3.654619   -1.960992
     55          1           0       -0.998735   -4.473785   -2.613479
     56          1           0       -2.544378   -3.617869    0.552324
     57          1           0        1.309494   -5.136042   -0.165481
     58          1           0        2.697062   -5.379522   -1.379030
     59          1           0        4.754409   -1.112034    0.878633
     60          1           0        5.442140    0.461406    1.522741
     61          1           0        4.741851    4.750442   -0.311177
     62          1           0        5.584946    3.536881    0.335278
     63          1           0        4.435496    4.153293    1.426475
     64          1           0        1.633578    5.109837    0.500192
     65          1           0       -7.967009   -2.674767    0.908807
     66          1           0       -7.099029   -3.891007    1.676454
     67          1           0       -7.072860   -3.783104    0.015192
     68          1           0       -6.922695   -0.188886    0.064396
     69          1           0       -4.435584    1.330440   -1.090957
     70          1           0       -6.144347    0.782008   -2.001845
     71          1           0       -4.800175   -0.085491   -2.206163
     72          1           0       -3.556281    6.346626    1.186349
     73          1           0       -4.236471    4.747086    1.470940
     74          1           0        0.327303    6.379204    1.560035
     75          1           0       -1.588291    7.188696    1.641681
     76          1           0       -0.460364    7.292714    0.056303
     77          1           0       -3.937025    6.225024   -1.294652
     78          1           0       -5.437105    6.054949   -0.668784
     79          1           0       -4.620313    4.410198   -1.238979
     80          1           0        3.714755   -4.338931    2.004653
     81          1           0        8.250403   -1.285081    1.662637
 ---------------------------------------------------------------------

 SCF Done:  E(RB3LYP) =  -1949.03110772     A.U. after   17 cycles

 Excitation energies and oscillator strengths:

 Excited State   1:      Singlet-A      1.8746 eV  661.39 nm  f=0.4412  <S**2>=0.000
     156 ->157         0.70840
     156 <-157        -0.13190
 This state for optimization and/or second-order correction.
 Total Energy, E(TD-HF/TD-DFT) =  -1948.96221718
 Copying the excited state density for this state as the 1-particle RhoCI density.

 The electronic state is 1-A.
 Alpha  occ. eigenvalues --  -19.21166 -19.19909 -19.14864 -19.13647 -19.12622
 Alpha  occ. eigenvalues --  -19.10145 -14.38513 -14.37681 -14.35246 -14.27764
 Alpha  occ. eigenvalues --  -10.34105 -10.32228 -10.30820 -10.25745 -10.25657
 Alpha  occ. eigenvalues --  -10.24425 -10.24147 -10.23514 -10.23451 -10.23172
 Alpha  occ. eigenvalues --  -10.22691 -10.21935 -10.21877 -10.21818 -10.20917
 Alpha  occ. eigenvalues --  -10.20734 -10.20624 -10.20416 -10.20378 -10.20307
 Alpha  occ. eigenvalues --  -10.20251 -10.20097 -10.20088 -10.20053 -10.20005
 Alpha  occ. eigenvalues --  -10.19762 -10.19003 -10.18638 -10.18480 -10.18450
 Alpha  occ. eigenvalues --  -10.18268 -10.18093 -10.17900  -1.13814  -1.09185
 Alpha  occ. eigenvalues --   -1.06626  -1.03582  -1.03209  -0.98972  -0.98791
 Alpha  occ. eigenvalues --   -0.97525  -0.96873  -0.92063  -0.83776  -0.82489
 Alpha  occ. eigenvalues --   -0.81792  -0.80980  -0.78663  -0.78369  -0.77826
 Alpha  occ. eigenvalues --   -0.77472  -0.76810  -0.74749  -0.73816  -0.72445
 Alpha  occ. eigenvalues --   -0.71540  -0.70049  -0.69662  -0.68377  -0.67609
 Alpha  occ. eigenvalues --   -0.66184  -0.65428  -0.64469  -0.62613  -0.61543
 Alpha  occ. eigenvalues --   -0.60387  -0.59659  -0.59067  -0.58106  -0.57297
 Alpha  occ. eigenvalues --   -0.56768  -0.55991  -0.54500  -0.53673  -0.53242
 Alpha  occ. eigenvalues --   -0.52544  -0.52029  -0.51413  -0.51134  -0.49809
 Alpha  occ. eigenvalues --   -0.49608  -0.49415  -0.49136  -0.49021  -0.48615
 Alpha  occ. eigenvalues --   -0.46993  -0.46954  -0.46730  -0.46248  -0.45700
 Alpha  occ. eigenvalues --   -0.45498  -0.45035  -0.44573  -0.44262  -0.44004
 Alpha  occ. eigenvalues --   -0.43856  -0.43262  -0.42901  -0.42801  -0.42534
 Alpha  occ. eigenvalues --   -0.42230  -0.41928  -0.41742  -0.41580  -0.41009
 Alpha  occ. eigenvalues --   -0.40570  -0.40230  -0.40015  -0.39840  -0.39719
 Alpha  occ. eigenvalues --   -0.39556  -0.39375  -0.38985  -0.38890  -0.38463
 Alpha  occ. eigenvalues --   -0.38287  -0.37992  -0.37447  -0.36884  -0.36690
 Alpha  occ. eigenvalues --   -0.36118  -0.35539  -0.35183  -0.35037  -0.34901
 Alpha  occ. eigenvalues --   -0.34497  -0.34216  -0.33306  -0.32275  -0.31790
 Alpha  occ. eigenvalues --   -0.31636  -0.31407  -0.30534  -0.30456  -0.29856
 Alpha  occ. eigenvalues --   -0.27943  -0.27832  -0.26762  -0.26384  -0.25714
 Alpha  occ. eigenvalues --   -0.24950  -0.24656  -0.23074  -0.22169  -0.21468
 Alpha  occ. eigenvalues --   -0.17614
 Alpha virt. eigenvalues --   -0.10454  -0.05742  -0.04053  -0.02063  -0.01000
 Alpha virt. eigenvalues --   -0.00125   0.01981   0.02417   0.02943   0.03123
 Alpha virt. eigenvalues --    0.03543   0.03726   0.04371   0.05183   0.05791

 Mulliken charges:
               1
     1  O   -0.151205
     2  O   -0.149641
     3  O   -0.202888
     4  O   -0.220817
     5  O   -0.287413
     6  O   -0.173355
     7  N   -0.034457
     8  N   -0.068404
     9  N   -0.122314
    10  N   -0.220664
    11  C   -0.191709
    12  C    0.075254
    13  C   -0.165144
    14  C    0.021509
    15  C   -0.033126
    16  C    0.123076
    17  C    0.022440
    18  C   -0.088824
    19  C    0.337469
    20  C   -0.020347
    21  C    0.049920
    22  C    0.178673
    23  C    0.094645
    24  C   -0.058546
    25  C    0.045108
    26  C    0.015563
    27  C    0.105137
    28  C   -0.084066
    29  C    0.029724
    30  C    0.064302
    31  C   -0.159310
    32  C    0.119624
    33  C   -0.199497
    34  C    0.068527
    35  C   -0.069791
    36  C   -0.165867
    37  C    0.117995
    38  C   -0.092733
    39  C    0.135861
    40  C   -0.025665
    41  C    0.113177
    42  C   -0.069202
    43  C    0.011159
    44  H    0.110476
    45  H   -0.071325
    46  H   -0.081834
    47  H    0.006573
    48  H    0.015345
    49  H    0.036827
    50  H    0.063473
    51  H   -0.107201
    52  H    0.046293
    53  H    0.032771
    54  H    0.056516
    55  H    0.022024
    56  H    0.146610
    57  H    0.038064
    58  H    0.067223
    59  H    0.100285
    60  H   -0.009614
    61  H    0.023811
    62  H   -0.022256
    63  H    0.029441
    64  H   -0.011605
    65  H    0.002725
    66  H   -0.006622
    67  H    0.000476
    68  H    0.044847
    69  H    0.150404
    70  H    0.001701
    71  H    0.007329
    72  H   -0.001964
    73  H    0.027825
    74  H    0.040423
    75  H    0.044814
    76  H    0.047792
    77  H   -0.002653
    78  H    0.004217
    79  H    0.067729
    80  H    0.200491
    81  H    0.204391
 Sum of Mulliken charges =  -0.00000

 Dipole moment (field-independent basis, Debye):
    X=              2.7928    Y=             -2.6614    Z=              0.9512  Tot=              3.9734
 Quadrupole moment (field-independent basis, Debye-Ang):
   XX=           -248.2461   YY=           -241.6883   ZZ=           -254.7374
   XY=             -6.9939   XZ=             18.4921   YZ=             10.4604

 Normal termination of Gaussian 16 at Thu Jun 27 23:47:48 2019.
