 Gaussian 16, Revision A.03,
 Gaussian 16:  ES64L-G16RevA.03 25-Dec-2016

 --------------------------
 # td=(NStates=1) B3LYP/SVP
 --------------------------

 --
 TD
 --
 Symbolic Z-matrix:
 Charge =  0 Multiplicity = 1

                         Standard orientation:
 ---------------------------------------------------------------------
 Center     Atomic      Atomic             Coordinates (Angstroms)
 Number     Number       Type             X           Y           Z
 ---------------------------------------------------------------------
      1          8           0       -4.456846   -4.699507    1.894400
      2          8           0        2.928061   -4.716967    1.297283
      3          8           0        7.070234   -1.311512    1.900823
      4          8           0        3.784355   -2.990199    0.159351
      5          8           0        7.554773   -0.742314   -0.208579
      6          8           0       -3.029632    2.500233   -0.156933
      7          7           0       -0.291685   -0.612480   -0.600923
      8          7           0        1.501888    1.798758   -0.306155
      9          7           0       -3.461103   -3.156001    0.506879
     10          7           0       -0.716546    2.932408   -0.029932
     11          6           0        0.612807   -2.485084   -1.307707
     12          6           0        0.942651   -1.190086   -1.030706
     13          6           0       -0.719854   -2.791381   -1.193507
     14          6           0       -1.245272   -1.553840   -0.734744
     15          6           0        3.770997    1.459162   -0.433346
     16          6           0        2.522962    0.807716   -0.503239
     17          6           0        2.212336   -0.539832   -0.849921
     18          6           0        3.563839    2.779427   -0.033072
     19          6           0        1.604860   -3.423108   -1.825308
     20          6           0       -5.571038   -2.672241    1.424104
     21          6           0       -3.634672   -1.847300    0.094307
     22          6           0        2.146227    2.978313    0.048934
     23          6           0       -5.134138   -1.648456    0.291939
     24          6           0        5.144991    0.690203   -0.416238
     25          6           0       -2.667891   -1.058710   -0.413505
     26          6           0       -1.423872   -3.898878   -1.834240
     27          6           0       -4.491777   -3.636727    1.407893
     28          6           0        2.276422   -4.516891   -0.937872
     29          6           0        5.306662   -0.010064    0.803867
     30          6           0        4.492422    3.778229    0.373713
     31          6           0        1.331360    4.089309    0.292136
     32          6           0       -6.943036   -3.212080    1.208152
     33          6           0       -5.790390   -0.564590   -0.266230
     34          6           0       -0.071334    4.065746    0.243234
     35          6           0       -0.981805    5.158869    0.409415
     36          6           0       -2.295363    4.707525    0.212146
     37          6           0        3.142090   -3.991085    0.143058
     38          6           0       -5.352923    0.383443   -1.261646
     39          6           0        6.747261   -0.730668    0.743792
     40          6           0       -3.614608    5.333414    0.466738
     41          6           0       -2.126741    3.188480   -0.018494
     42          6           0       -0.578501    6.625593    0.679966
     43          6           0       -4.235333    5.707661   -0.819450
     44          1           0       -0.366857    0.194610   -0.030150
     45          1           0        3.086684   -1.274298   -0.958674
     46          1           0        2.469296   -2.979120   -2.181057
     47          1           0        1.241869   -3.994923   -2.730357
     48          1           0       -5.529120   -2.041054    2.283742
     49          1           0        5.173227   -0.071771   -1.158025
     50          1           0        5.991682    1.311436   -0.732403
     51          1           0       -2.900247   -0.184388   -0.573345
     52          1           0        0.438348    1.790417   -0.365860
     53          1           0       -1.450678   -4.832659   -0.978464
     54          1           0       -2.532762   -3.793703   -2.171304
     55          1           0       -0.861356   -4.248829   -2.642603
     56          1           0       -2.499063   -3.662120    0.468899
     57          1           0        1.443185   -5.295336   -0.567267
     58          1           0        2.898086   -5.321564   -1.540880
     59          1           0        4.570410   -0.726039    0.886228
     60          1           0        5.476555    0.369371    1.799480
     61          1           0        4.292410    4.812759   -0.252604
     62          1           0        5.595796    3.721149    0.342974
     63          1           0        4.363997    3.994131    1.426473
     64          1           0        1.877401    5.042881    0.777812
     65          1           0       -7.803227   -2.340654    1.194968
     66          1           0       -7.116623   -3.951292    2.001454
     67          1           0       -7.204364   -3.530930    0.156594
     68          1           0       -6.821532   -0.455821    0.010690
     69          1           0       -4.989097    1.351528   -0.970516
     70          1           0       -6.237114    0.658753   -1.920819
     71          1           0       -4.763705   -0.112784   -2.001627
     72          1           0       -3.558003    6.117491    0.989486
     73          1           0       -4.350854    4.712023    1.057283
     74          1           0       -0.059246    6.607456    1.747264
     75          1           0       -1.471215    7.225557    0.719924
     76          1           0        0.282480    6.892335   -0.147755
     77          1           0       -3.991389    6.535295   -1.436818
     78          1           0       -5.369717    5.876182   -0.598864
     79          1           0       -4.469722    4.744654   -1.491534
     80          1           0        3.622867   -4.557136    1.980800
     81          1           0        7.850135   -1.532695    1.741993
 ---------------------------------------------------------------------

 SCF Done:  E(RB3LYP) =  -1949.06179413     A.U. after   16 cycles

 Excitation energies and oscillator strengths:

 Excited State   1:      Singlet-A      2.0159 eV  615.02 nm  f=0.4162  <S**2>=0.000
     156 ->157         0.70490
     156 <-157        -0.11652
 This state for optimization and/or second-order correction.
 Total Energy, E(TD-HF/TD-DFT) =  -1948.98771024
 Copying the excited state density for this state as the 1-particle RhoCI density.

 The electronic state is 1-A.
 Alpha  occ. eigenvalues --  -19.18382 -19.18235 -19.15025 -19.12907 -19.11962
 Alpha  occ. eigenvalues --  -19.11124 -14.37427 -14.36174 -14.34390 -14.28017
 Alpha  occ. eigenvalues --  -10.33671 -10.32426 -10.29319 -10.26146 -10.24073
 Alpha  occ. eigenvalues --  -10.23486 -10.23190 -10.23175 -10.23137 -10.22659
 Alpha  occ. eigenvalues --  -10.22000 -10.21959 -10.21531 -10.20954 -10.20795
 Alpha  occ. eigenvalues --  -10.20732 -10.20353 -10.20335 -10.20326 -10.19920
 Alpha  occ. eigenvalues --  -10.19774 -10.19680 -10.19671 -10.19389 -10.19319
 Alpha  occ. eigenvalues --  -10.19307 -10.19306 -10.18747 -10.18194 -10.18020
 Alpha  occ. eigenvalues --  -10.17520 -10.17441 -10.16999  -1.13567  -1.10630
 Alpha  occ. eigenvalues --   -1.06294  -1.05811  -1.02056  -0.99966  -0.98672
 Alpha  occ. eigenvalues --   -0.95629  -0.94135  -0.91223  -0.83691  -0.82584
 Alpha  occ. eigenvalues --   -0.81399  -0.80379  -0.79808  -0.79025  -0.78522
 Alpha  occ. eigenvalues --   -0.78009  -0.76487  -0.74971  -0.74238  -0.72289
 Alpha  occ. eigenvalues --   -0.71360  -0.69594  -0.69096  -0.68315  -0.67726
 Alpha  occ. eigenvalues --   -0.66798  -0.65476  -0.64245  -0.62111  -0.61399
 Alpha  occ. eigenvalues --   -0.60859  -0.60457  -0.58506  -0.57989  -0.57286
 Alpha  occ. eigenvalues --   -0.56358  -0.55211  -0.54141  -0.53671  -0.53187
 Alpha  occ. eigenvalues --   -0.52817  -0.52132  -0.50754  -0.50592  -0.49893
 Alpha  occ. eigenvalues --   -0.49521  -0.49371  -0.48771  -0.48347  -0.48005
 Alpha  occ. eigenvalues --   -0.47972  -0.46782  -0.46380  -0.45844  -0.45665
 Alpha  occ. eigenvalues --   -0.44824  -0.44491  -0.44440  -0.44171  -0.43870
 Alpha  occ. eigenvalues --   -0.43466  -0.43433  -0.43171  -0.43053  -0.42818
 Alpha  occ. eigenvalues --   -0.42484  -0.42273  -0.41989  -0.41788  -0.41440
 Alpha  occ. eigenvalues --   -0.41098  -0.40661  -0.40322  -0.40184  -0.39836
 Alpha  occ. eigenvalues --   -0.39568  -0.39244  -0.38914  -0.38741  -0.38455
 Alpha  occ. eigenvalues --   -0.38194  -0.37632  -0.37348  -0.37169  -0.36870
 Alpha  occ. eigenvalues --   -0.36423  -0.35812  -0.35213  -0.34537  -0.34433
 Alpha  occ. eigenvalues --   -0.34174  -0.34072  -0.33941  -0.33662  -0.33552
 Alpha  occ. eigenvalues --   -0.32458  -0.32162  -0.31862  -0.30273  -0.29574
 Alpha  occ. eigenvalues --   -0.28090  -0.27896  -0.27479  -0.26092  -0.25311
 Alpha  occ. eigenvalues --   -0.25081  -0.24181  -0.23077  -0.22237  -0.21342
 Alpha  occ. eigenvalues --   -0.17741
 Alpha virt. eigenvalues --   -0.09878  -0.05385  -0.03405  -0.02173  -0.00099
 Alpha virt. eigenvalues --    0.00020   0.01950   0.02355   0.03662   0.04083
 Alpha virt. eigenvalues --    0.04588   0.05006   0.05582   0.05825   0.06253

 Mulliken charges:
               1
     1  O   -0.146803
     2  O   -0.222651
     3  O   -0.055084
     4  O   -0.184336
     5  O   -0.272808
     6  O   -0.112634
     7  N   -0.073453
     8  N   -0.172176
     9  N   -0.208320
    10  N   -0.349857
    11  C   -0.044753
    12  C    0.066484
    13  C   -0.126239
    14  C    0.039576
    15  C   -0.076500
    16  C    0.090453
    17  C   -0.070388
    18  C   -0.056912
    19  C    0.088947
    20  C    0.016836
    21  C    0.098226
    22  C    0.099246
    23  C   -0.061316
    24  C    0.148256
    25  C    0.063222
    26  C    0.042863
    27  C    0.125831
    28  C   -0.072769
    29  C    0.057794
    30  C    0.027134
    31  C   -0.178781
    32  C    0.008892
    33  C   -0.138654
    34  C    0.129068
    35  C   -0.122449
    36  C   -0.206965
    37  C    0.154619
    38  C    0.105081
    39  C    0.106521
    40  C    0.222498
    41  C    0.146236
    42  C    0.055974
    43  C   -0.058842
    44  H    0.127906
    45  H    0.038880
    46  H   -0.015447
    47  H    0.004729
    48  H    0.042241
    49  H   -0.004067
    50  H    0.009148
    51  H   -0.167684
    52  H    0.150320
    53  H    0.027158
    54  H    0.061228
    55  H    0.000690
    56  H    0.154913
    57  H    0.050240
    58  H    0.059159
    59  H    0.010442
    60  H    0.015591
    61  H    0.035130
    62  H    0.012489
    63  H    0.020682
    64  H    0.005569
    65  H    0.026073
    66  H    0.041444
    67  H    0.023866
    68  H   -0.021681
    69  H    0.060579
    70  H   -0.006946
    71  H    0.013947
    72  H   -0.084196
    73  H    0.013235
    74  H    0.035940
    75  H    0.017952
    76  H    0.054483
    77  H    0.018103
    78  H   -0.010633
    79  H    0.025330
    80  H    0.191566
    81  H    0.080548
 Sum of Mulliken charges =  -0.00000

 Dipole moment (field-independent basis, Debye):
    X=              1.2664    Y=             -0.6872    Z=              1.0147  Tot=              1.7623
 Quadrupole moment (field-independent basis, Debye-Ang):
   XX=           -246.5607   YY=           -240.7127   ZZ=           -251.8468
   XY=            -15.6390   XZ=             16.6600   YZ=             14.0029

 Normal termination of Gaussian 16 at Tue Jul  2 01:49:24 2019.
