 Gaussian 16, Revision A.03,
 Gaussian 16:  ES64L-G16RevA.03 25-Dec-2016

 --------------------------
 # td=(NStates=1) B3LYP/SVP
 --------------------------

 --
 TD
 --
 Symbolic Z-matrix:
 Charge =  0 Multiplicity = 1

                         Standard orientation:
 ---------------------------------------------------------------------
 Center     Atomic      Atomic             Coordinates (Angstroms)
 Number     Number       Type             X           Y           Z
 ---------------------------------------------------------------------
      1          8           0        4.765789   -4.674920   -1.701095
      2          8           0       -2.391129   -4.892748   -1.346007
      3          8           0       -7.050145   -2.016823   -1.774568
      4          8           0       -3.402977   -3.349810   -0.078102
      5          8           0       -7.763784   -0.796011    0.074144
      6          8           0        2.879877    2.677268    0.156740
      7          7           0        0.354315   -0.545042    0.560757
      8          7           0       -1.696289    1.741654    0.349340
      9          7           0        3.533462   -2.951336   -0.707400
     10          7           0        0.540974    2.956089    0.188694
     11          6           0       -0.437513   -2.420316    1.465849
     12          6           0       -0.872956   -1.256363    0.840142
     13          6           0        0.920008   -2.537100    1.360994
     14          6           0        1.384408   -1.308763    0.768998
     15          6           0       -3.859558    1.197613    0.287796
     16          6           0       -2.578540    0.660972    0.524892
     17          6           0       -2.199432   -0.638315    0.883871
     18          6           0       -3.791522    2.473990   -0.002649
     19          6           0       -1.381726   -3.529789    1.953176
     20          6           0        5.731397   -2.346679   -1.409032
     21          6           0        3.741062   -1.661573   -0.198333
     22          6           0       -2.371853    2.871440    0.053012
     23          6           0        5.189016   -1.270135   -0.516033
     24          6           0       -5.144571    0.462710    0.373435
     25          6           0        2.822114   -0.961384    0.486730
     26          6           0        1.779042   -3.653067    1.784765
     27          6           0        4.651564   -3.489409   -1.268638
     28          6           0       -1.603351   -4.746647    0.922768
     29          6           0       -5.510317   -0.548979   -0.741389
     30          6           0       -4.935348    3.465851   -0.396433
     31          6           0       -1.620367    4.052222   -0.142875
     32          6           0        7.122532   -2.876520   -1.120494
     33          6           0        5.871127   -0.367727    0.264815
     34          6           0       -0.178754    4.070764   -0.180573
     35          6           0        0.680156    5.253398   -0.500929
     36          6           0        1.892684    4.895135   -0.413037
     37          6           0       -2.594737   -4.236675   -0.168051
     38          6           0        5.376515    0.674788    1.168829
     39          6           0       -6.864018   -1.069143   -0.806162
     40          6           0        3.165102    5.581157   -0.452677
     41          6           0        1.917570    3.366624    0.039089
     42          6           0        0.151105    6.586369   -0.799373
     43          6           0        3.817794    6.060467    0.783843
     44          1           0        0.673910    0.387537    0.128698
     45          1           0       -3.160960   -1.364986    1.020569
     46          1           0       -2.416430   -3.033445    2.210235
     47          1           0       -0.906732   -3.931464    2.894764
     48          1           0        6.008656   -1.752498   -2.384855
     49          1           0       -5.234662    0.179616    1.451970
     50          1           0       -5.901233    1.260383    0.236474
     51          1           0        3.126928   -0.039459    0.627660
     52          1           0       -0.710792    1.568967    0.490759
     53          1           0        2.140122   -4.522207    1.075711
     54          1           0        2.670840   -3.170951    2.351183
     55          1           0        1.166945   -4.278550    2.592577
     56          1           0        2.690577   -3.333464   -0.630068
     57          1           0       -0.571565   -5.231679    0.442207
     58          1           0       -2.101877   -5.627501    1.439037
     59          1           0       -4.715715   -1.347604   -0.574273
     60          1           0       -5.134889   -0.110317   -1.702387
     61          1           0       -4.974415    4.251673    0.302378
     62          1           0       -5.911911    3.093911   -0.247667
     63          1           0       -4.788850    3.945386   -1.349008
     64          1           0       -2.132081    5.100247   -0.286817
     65          1           0        7.833986   -2.336690   -1.105664
     66          1           0        7.682090   -3.676539   -1.743569
     67          1           0        7.400164   -3.137484   -0.066353
     68          1           0        6.900060   -0.323951   -0.112851
     69          1           0        4.742085    1.313218    0.693233
     70          1           0        6.260657    1.469244    1.542641
     71          1           0        4.677470    0.423002    1.881025
     72          1           0        2.976049    6.506010   -0.915817
     73          1           0        3.721737    4.866290   -1.031666
     74          1           0       -0.156351    6.610501   -1.944216
     75          1           0        0.960243    7.346118   -0.668313
     76          1           0       -0.761809    6.901554   -0.274176
     77          1           0        3.064092    6.680546    1.307431
     78          1           0        4.772672    6.717203    0.555569
     79          1           0        4.252414    5.052657    1.269265
     80          1           0       -3.103426   -4.682505   -2.104714
     81          1           0       -8.078087   -2.287470   -1.837557
 ---------------------------------------------------------------------

 SCF Done:  E(RB3LYP) =  -1949.05207292     A.U. after   16 cycles

 Excitation energies and oscillator strengths:

 Excited State   1:      Singlet-A      2.1553 eV  575.25 nm  f=0.4088  <S**2>=0.000
     156 ->157         0.70547
     156 <-157        -0.10597
 This state for optimization and/or second-order correction.
 Total Energy, E(TD-HF/TD-DFT) =  -1948.97286740
 Copying the excited state density for this state as the 1-particle RhoCI density.

 The electronic state is 1-A.
 Alpha  occ. eigenvalues --  -19.19321 -19.19209 -19.14565 -19.12233 -19.11644
 Alpha  occ. eigenvalues --  -19.10870 -14.39012 -14.37330 -14.35741 -14.29015
 Alpha  occ. eigenvalues --  -10.33854 -10.32734 -10.30206 -10.26824 -10.24677
 Alpha  occ. eigenvalues --  -10.24579 -10.24164 -10.23805 -10.23700 -10.23164
 Alpha  occ. eigenvalues --  -10.22806 -10.22646 -10.22375 -10.22343 -10.21278
 Alpha  occ. eigenvalues --  -10.21120 -10.20830 -10.20485 -10.20179 -10.20070
 Alpha  occ. eigenvalues --  -10.19784 -10.19612 -10.19529 -10.19449 -10.19276
 Alpha  occ. eigenvalues --  -10.19061 -10.18691 -10.18611 -10.18467 -10.18183
 Alpha  occ. eigenvalues --  -10.17521 -10.17270 -10.17104  -1.09749  -1.07011
 Alpha  occ. eigenvalues --   -1.03528  -1.01765  -1.01110  -0.99506  -0.98198
 Alpha  occ. eigenvalues --   -0.97002  -0.95248  -0.90415  -0.83099  -0.82601
 Alpha  occ. eigenvalues --   -0.82231  -0.81342  -0.80320  -0.78818  -0.77496
 Alpha  occ. eigenvalues --   -0.76867  -0.76439  -0.76203  -0.74775  -0.72348
 Alpha  occ. eigenvalues --   -0.71749  -0.71077  -0.69245  -0.68385  -0.67820
 Alpha  occ. eigenvalues --   -0.67644  -0.66476  -0.64668  -0.62586  -0.61559
 Alpha  occ. eigenvalues --   -0.61308  -0.60366  -0.59457  -0.58498  -0.57385
 Alpha  occ. eigenvalues --   -0.56080  -0.54924  -0.54683  -0.54449  -0.53364
 Alpha  occ. eigenvalues --   -0.52488  -0.51192  -0.50609  -0.50545  -0.49669
 Alpha  occ. eigenvalues --   -0.49494  -0.48867  -0.47924  -0.47522  -0.47214
 Alpha  occ. eigenvalues --   -0.46879  -0.46391  -0.46031  -0.45886  -0.45639
 Alpha  occ. eigenvalues --   -0.45149  -0.44955  -0.44817  -0.44401  -0.43833
 Alpha  occ. eigenvalues --   -0.43798  -0.42921  -0.42589  -0.42502  -0.41995
 Alpha  occ. eigenvalues --   -0.41352  -0.41217  -0.40886  -0.40826  -0.40702
 Alpha  occ. eigenvalues --   -0.40396  -0.40178  -0.39845  -0.39696  -0.39516
 Alpha  occ. eigenvalues --   -0.39305  -0.39220  -0.39033  -0.38667  -0.38627
 Alpha  occ. eigenvalues --   -0.38434  -0.38257  -0.37765  -0.37493  -0.36676
 Alpha  occ. eigenvalues --   -0.36507  -0.35703  -0.35607  -0.34896  -0.34457
 Alpha  occ. eigenvalues --   -0.33957  -0.33599  -0.33444  -0.33344  -0.33088
 Alpha  occ. eigenvalues --   -0.32837  -0.31969  -0.31035  -0.30162  -0.29693
 Alpha  occ. eigenvalues --   -0.28438  -0.27333  -0.26836  -0.26258  -0.26059
 Alpha  occ. eigenvalues --   -0.25543  -0.24763  -0.23749  -0.23636  -0.22020
 Alpha  occ. eigenvalues --   -0.18125
 Alpha virt. eigenvalues --   -0.09586  -0.04941  -0.03501  -0.02058  -0.01829
 Alpha virt. eigenvalues --   -0.01308   0.01685   0.01919   0.02392   0.03103
 Alpha virt. eigenvalues --    0.04089   0.04430   0.05121   0.05516   0.05603

 Mulliken charges:
               1
     1  O   -0.257336
     2  O   -0.246359
     3  O   -0.242835
     4  O   -0.204984
     5  O   -0.295865
     6  O   -0.169031
     7  N   -0.085471
     8  N   -0.059739
     9  N   -0.017814
    10  N   -0.353289
    11  C   -0.086940
    12  C    0.073629
    13  C   -0.113802
    14  C    0.002676
    15  C   -0.108695
    16  C    0.029472
    17  C   -0.088063
    18  C   -0.128527
    19  C    0.041333
    20  C   -0.056259
    21  C    0.026867
    22  C    0.122421
    23  C   -0.058852
    24  C    0.103439
    25  C   -0.007887
    26  C   -0.031585
    27  C    0.193401
    28  C   -0.046102
    29  C   -0.012059
    30  C    0.181381
    31  C   -0.167039
    32  C    0.147075
    33  C   -0.093084
    34  C    0.070753
    35  C   -0.050723
    36  C   -0.218175
    37  C    0.159306
    38  C    0.130700
    39  C    0.204441
    40  C    0.116725
    41  C    0.158231
    42  C    0.064683
    43  C   -0.033004
    44  H    0.183571
    45  H    0.077859
    46  H    0.043177
    47  H    0.021096
    48  H    0.069171
    49  H    0.031795
    50  H   -0.009829
    51  H   -0.103908
    52  H    0.115706
    53  H    0.052783
    54  H    0.050504
    55  H    0.012870
    56  H    0.081864
    57  H    0.074107
    58  H    0.059197
    59  H    0.066339
    60  H    0.036687
    61  H   -0.006119
    62  H   -0.009404
    63  H    0.020819
    64  H   -0.005596
    65  H   -0.115009
    66  H    0.026617
    67  H   -0.017478
    68  H   -0.005937
    69  H    0.021159
    70  H    0.031928
    71  H    0.000273
    72  H   -0.036610
    73  H    0.010214
    74  H    0.034648
    75  H    0.017332
    76  H    0.024626
    77  H    0.021027
    78  H    0.027281
    79  H    0.040335
    80  H    0.230412
    81  H    0.233480
 Sum of Mulliken charges =  -0.00000

 Dipole moment (field-independent basis, Debye):
    X=             -2.2764    Y=              1.0987    Z=             -1.4333  Tot=              2.9058
 Quadrupole moment (field-independent basis, Debye-Ang):
   XX=           -253.6207   YY=           -241.0507   ZZ=           -253.2572
   XY=             22.3960   XZ=             19.0552   YZ=             -9.8666

 Normal termination of Gaussian 16 at Mon Jul  1 22:37:55 2019.
