 Gaussian 16, Revision A.03,
 Gaussian 16:  ES64L-G16RevA.03 25-Dec-2016

 --------------------------
 # td=(NStates=1) B3LYP/SVP
 --------------------------

 --
 TD
 --
 Symbolic Z-matrix:
 Charge =  0 Multiplicity = 1

                         Standard orientation:
 ---------------------------------------------------------------------
 Center     Atomic      Atomic             Coordinates (Angstroms)
 Number     Number       Type             X           Y           Z
 ---------------------------------------------------------------------
      1          8           0       -4.600356   -4.451656    2.035404
      2          8           0        2.563230   -4.998344    1.271242
      3          8           0        7.073457   -1.737765    1.795729
      4          8           0        3.505323   -3.403575   -0.025286
      5          8           0        7.731796   -0.725924   -0.028145
      6          8           0       -2.820213    2.481014    0.020421
      7          7           0       -0.288307   -0.554969   -0.481143
      8          7           0        1.654579    1.790499   -0.401796
      9          7           0       -3.559311   -2.951030    0.577464
     10          7           0       -0.528164    2.929973   -0.101641
     11          6           0        0.554563   -2.468292   -1.268825
     12          6           0        0.841754   -1.218396   -0.786127
     13          6           0       -0.887302   -2.532271   -1.129694
     14          6           0       -1.381276   -1.390025   -0.668581
     15          6           0        3.885449    1.354425   -0.475226
     16          6           0        2.553661    0.728937   -0.525369
     17          6           0        2.125456   -0.617201   -0.690243
     18          6           0        3.753945    2.620457   -0.157732
     19          6           0        1.473919   -3.489728   -1.857322
     20          6           0       -5.765427   -2.411060    1.284936
     21          6           0       -3.804003   -1.684903    0.026821
     22          6           0        2.332941    2.964262   -0.140043
     23          6           0       -5.147356   -1.341344    0.213849
     24          6           0        5.127381    0.507515   -0.496159
     25          6           0       -2.768854   -0.933137   -0.404753
     26          6           0       -1.583339   -3.805136   -1.644663
     27          6           0       -4.644274   -3.317244    1.287916
     28          6           0        1.760658   -4.655558   -0.844042
     29          6           0        5.494407   -0.372065    0.799154
     30          6           0        4.671093    3.777349    0.188353
     31          6           0        1.589791    4.116239    0.034667
     32          6           0       -7.127976   -3.014898    0.904083
     33          6           0       -5.925424   -0.318177   -0.393615
     34          6           0        0.156072    4.055388    0.167214
     35          6           0       -0.753300    5.210514    0.484750
     36          6           0       -1.960845    4.761247    0.404439
     37          6           0        2.630572   -4.250053    0.185403
     38          6           0       -5.294490    0.545035   -1.366447
     39          6           0        6.813938   -1.009477    0.783182
     40          6           0       -3.317091    5.436404    0.599260
     41          6           0       -1.898290    3.276269    0.075508
     42          6           0       -0.320820    6.565746    0.946619
     43          6           0       -4.076357    5.784755   -0.698215
     44          1           0       -0.315296    0.251466   -0.061058
     45          1           0        2.902730   -1.344698   -0.806505
     46          1           0        2.429759   -3.076808   -2.151258
     47          1           0        1.165069   -3.907723   -2.884347
     48          1           0       -5.881896   -1.814323    2.163949
     49          1           0        5.086668   -0.137537   -1.294874
     50          1           0        6.010153    1.145276   -0.654599
     51          1           0       -2.919972    0.041103   -0.595979
     52          1           0        0.587536    1.577094   -0.570042
     53          1           0       -1.676268   -4.669909   -0.895636
     54          1           0       -2.519208   -3.528698   -1.878637
     55          1           0       -0.976353   -4.117314   -2.389339
     56          1           0       -2.735838   -3.628366    0.569499
     57          1           0        0.918832   -5.039617   -0.337525
     58          1           0        2.345864   -5.562042   -1.213383
     59          1           0        4.739969   -1.271566    0.715433
     60          1           0        5.423197    0.145543    1.775413
     61          1           0        4.712447    4.424437   -0.492814
     62          1           0        5.810173    3.267593    0.424627
     63          1           0        4.142508    4.286847    1.057166
     64          1           0        2.044852    5.092229    0.213972
     65          1           0       -8.104818   -2.203180    1.164612
     66          1           0       -7.502952   -4.072780    1.540316
     67          1           0       -7.172872   -3.337817   -0.208785
     68          1           0       -6.878236   -0.465257   -0.161771
     69          1           0       -4.810938    1.560340   -0.940197
     70          1           0       -6.118810    0.697333   -2.347227
     71          1           0       -4.359814    0.012316   -1.685133
     72          1           0       -3.175949    6.366375    0.993968
     73          1           0       -4.035835    4.783791    1.045354
     74          1           0        0.555067    6.572331    1.608303
     75          1           0       -1.199466    7.130051    1.081906
     76          1           0        0.057923    6.988456   -0.141384
     77          1           0       -3.613216    6.566051   -1.241904
     78          1           0       -5.056407    6.249430   -0.472571
     79          1           0       -4.370260    4.851945   -1.309056
     80          1           0        3.423448   -4.809137    1.778254
     81          1           0        7.835667   -2.088013    1.861550
 ---------------------------------------------------------------------

 SCF Done:  E(RB3LYP) =  -1949.03181081     A.U. after   19 cycles

 Excitation energies and oscillator strengths:

 Excited State   1:      Singlet-A      2.0118 eV  616.29 nm  f=0.3333  <S**2>=0.000
     156 ->157         0.70182
 This state for optimization and/or second-order correction.
 Total Energy, E(TD-HF/TD-DFT) =  -1948.95787886
 Copying the excited state density for this state as the 1-particle RhoCI density.

 The electronic state is 1-A.
 Alpha  occ. eigenvalues --  -19.20779 -19.18449 -19.13311 -19.11655 -19.10719
 Alpha  occ. eigenvalues --  -19.07949 -14.37557 -14.36635 -14.35945 -14.29418
 Alpha  occ. eigenvalues --  -10.32799 -10.31807 -10.27936 -10.27243 -10.24496
 Alpha  occ. eigenvalues --  -10.23783 -10.23706 -10.23627 -10.22646 -10.22629
 Alpha  occ. eigenvalues --  -10.22604 -10.21716 -10.21364 -10.21340 -10.21194
 Alpha  occ. eigenvalues --  -10.20985 -10.20849 -10.20612 -10.20582 -10.20378
 Alpha  occ. eigenvalues --  -10.20314 -10.20152 -10.19819 -10.19720 -10.19613
 Alpha  occ. eigenvalues --  -10.19304 -10.19271 -10.18762 -10.18613 -10.18459
 Alpha  occ. eigenvalues --  -10.18428 -10.18389 -10.18109  -1.14037  -1.11865
 Alpha  occ. eigenvalues --   -1.02308  -1.01290  -1.00154  -0.99703  -0.98295
 Alpha  occ. eigenvalues --   -0.97296  -0.92060  -0.90604  -0.83241  -0.82286
 Alpha  occ. eigenvalues --   -0.81627  -0.81463  -0.80765  -0.79872  -0.79031
 Alpha  occ. eigenvalues --   -0.77996  -0.76984  -0.76041  -0.74809  -0.73521
 Alpha  occ. eigenvalues --   -0.72759  -0.71224  -0.70125  -0.69908  -0.69534
 Alpha  occ. eigenvalues --   -0.67523  -0.65364  -0.64000  -0.63769  -0.62259
 Alpha  occ. eigenvalues --   -0.61607  -0.61108  -0.59319  -0.58177  -0.57947
 Alpha  occ. eigenvalues --   -0.56941  -0.55977  -0.55481  -0.54991  -0.54367
 Alpha  occ. eigenvalues --   -0.53030  -0.51976  -0.51394  -0.50819  -0.50409
 Alpha  occ. eigenvalues --   -0.49663  -0.49361  -0.49308  -0.48623  -0.48016
 Alpha  occ. eigenvalues --   -0.47724  -0.46785  -0.46636  -0.45951  -0.45795
 Alpha  occ. eigenvalues --   -0.45495  -0.44978  -0.44746  -0.44382  -0.44269
 Alpha  occ. eigenvalues --   -0.44007  -0.43829  -0.43112  -0.42895  -0.42454
 Alpha  occ. eigenvalues --   -0.42130  -0.41894  -0.41425  -0.41231  -0.40993
 Alpha  occ. eigenvalues --   -0.40457  -0.40283  -0.39988  -0.39803  -0.39637
 Alpha  occ. eigenvalues --   -0.39483  -0.38963  -0.38934  -0.38507  -0.38313
 Alpha  occ. eigenvalues --   -0.38232  -0.38077  -0.37623  -0.37562  -0.36804
 Alpha  occ. eigenvalues --   -0.36472  -0.36083  -0.35490  -0.35172  -0.35053
 Alpha  occ. eigenvalues --   -0.34332  -0.33854  -0.33640  -0.33363  -0.33190
 Alpha  occ. eigenvalues --   -0.32424  -0.31101  -0.30697  -0.29552  -0.29130
 Alpha  occ. eigenvalues --   -0.28312  -0.26786  -0.26463  -0.26072  -0.25388
 Alpha  occ. eigenvalues --   -0.24675  -0.24245  -0.24056  -0.22776  -0.21606
 Alpha  occ. eigenvalues --   -0.18373
 Alpha virt. eigenvalues --   -0.10261  -0.05926  -0.04361  -0.01672  -0.01335
 Alpha virt. eigenvalues --    0.00284   0.02357   0.02816   0.03492   0.03686
 Alpha virt. eigenvalues --    0.04506   0.05067   0.05119   0.05614   0.06317

 Mulliken charges:
               1
     1  O   -0.369105
     2  O   -0.169413
     3  O   -0.022701
     4  O   -0.273083
     5  O   -0.289591
     6  O   -0.195414
     7  N    0.030853
     8  N   -0.151733
     9  N   -0.094948
    10  N   -0.310934
    11  C   -0.090073
    12  C    0.023128
    13  C   -0.220654
    14  C    0.061028
    15  C   -0.089577
    16  C    0.044246
    17  C   -0.033754
    18  C   -0.110402
    19  C    0.104616
    20  C    0.065436
    21  C    0.133304
    22  C    0.146365
    23  C   -0.141701
    24  C    0.146429
    25  C   -0.030337
    26  C    0.181353
    27  C    0.114943
    28  C    0.069748
    29  C   -0.042132
    30  C    0.157251
    31  C   -0.140639
    32  C   -0.098951
    33  C    0.026360
    34  C    0.060612
    35  C   -0.124222
    36  C   -0.182362
    37  C    0.092870
    38  C   -0.018598
    39  C    0.090181
    40  C    0.179520
    41  C    0.167895
    42  C    0.133937
    43  C   -0.038495
    44  H    0.053141
    45  H   -0.015583
    46  H    0.004492
    47  H    0.023308
    48  H    0.049877
    49  H   -0.012238
    50  H    0.007650
    51  H   -0.066777
    52  H    0.181209
    53  H    0.028164
    54  H   -0.011118
    55  H   -0.021193
    56  H    0.166246
    57  H    0.006876
    58  H    0.058360
    59  H    0.069283
    60  H    0.045285
    61  H   -0.032619
    62  H    0.049124
    63  H    0.029742
    64  H   -0.037921
    65  H    0.044169
    66  H    0.070505
    67  H    0.042040
    68  H   -0.080528
    69  H    0.098559
    70  H    0.034632
    71  H    0.038228
    72  H   -0.040860
    73  H    0.004747
    74  H    0.042888
    75  H   -0.003244
    76  H    0.031218
    77  H   -0.004950
    78  H    0.002758
    79  H    0.038370
    80  H    0.208763
    81  H    0.106141
 Sum of Mulliken charges =  -0.00000

 Dipole moment (field-independent basis, Debye):
    X=              3.0162    Y=              1.7021    Z=             -0.0055  Tot=              3.4633
 Quadrupole moment (field-independent basis, Debye-Ang):
   XX=           -261.4067   YY=           -230.5314   ZZ=           -256.8549
   XY=            -26.9488   XZ=             25.5385   YZ=             15.0482

 Normal termination of Gaussian 16 at Sun Jun 30 06:16:30 2019.
