 Gaussian 16, Revision A.03,
 Gaussian 16:  ES64L-G16RevA.03 25-Dec-2016

 --------------------------
 # td=(NStates=1) B3LYP/SVP
 --------------------------

 --
 TD
 --
 Symbolic Z-matrix:
 Charge =  0 Multiplicity = 1

                         Standard orientation:
 ---------------------------------------------------------------------
 Center     Atomic      Atomic             Coordinates (Angstroms)
 Number     Number       Type             X           Y           Z
 ---------------------------------------------------------------------
      1          8           0        4.445946   -4.743224   -1.894837
      2          8           0       -2.907700   -4.957175   -1.023972
      3          8           0       -7.176081   -1.560264   -1.755836
      4          8           0       -3.647390   -3.235512    0.049306
      5          8           0       -7.555833   -0.591248    0.223406
      6          8           0        2.940732    2.481624    0.243427
      7          7           0        0.347446   -0.626819    0.423149
      8          7           0       -1.585352    1.840368    0.186122
      9          7           0        3.432482   -3.120295   -0.620338
     10          7           0        0.715501    2.953980   -0.026124
     11          6           0       -0.580802   -2.473717    1.365278
     12          6           0       -0.886070   -1.169112    0.908673
     13          6           0        0.834497   -2.618011    1.280539
     14          6           0        1.377983   -1.481624    0.798044
     15          6           0       -3.748550    1.366531    0.233211
     16          6           0       -2.477002    0.764222    0.400245
     17          6           0       -2.162463   -0.493533    0.806140
     18          6           0       -3.520678    2.663732   -0.090628
     19          6           0       -1.484740   -3.451271    1.845748
     20          6           0        5.538693   -2.550093   -1.409595
     21          6           0        3.692778   -1.835070   -0.060663
     22          6           0       -2.142877    2.946666   -0.083883
     23          6           0        4.993958   -1.507645   -0.520962
     24          6           0       -5.040739    0.666670    0.418864
     25          6           0        2.711596   -0.958121    0.526412
     26          6           0        1.481143   -3.764765    1.840330
     27          6           0        4.455937   -3.634506   -1.244786
     28          6           0       -1.773920   -4.551000    0.983210
     29          6           0       -5.463534   -0.095053   -0.903138
     30          6           0       -4.608183    3.622323   -0.452697
     31          6           0       -1.435064    4.142746   -0.288198
     32          6           0        7.084023   -3.153650   -1.197272
     33          6           0        5.766254   -0.410048    0.034259
     34          6           0        0.016748    4.088150   -0.321711
     35          6           0        0.892493    5.267611   -0.467450
     36          6           0        2.220262    4.671708   -0.330125
     37          6           0       -2.850289   -4.171234   -0.085520
     38          6           0        5.378909    0.533031    1.071610
     39          6           0       -6.873739   -0.847112   -0.704105
     40          6           0        3.481362    5.484931   -0.293730
     41          6           0        2.001912    3.273489    0.014619
     42          6           0        0.454133    6.677326   -0.703577
     43          6           0        4.063046    5.636131    1.119946
     44          1           0        0.541543    0.248863    0.035851
     45          1           0       -3.080661   -0.999406    1.105355
     46          1           0       -2.320415   -3.059040    2.383504
     47          1           0       -0.935178   -3.994678    2.618875
     48          1           0        5.446138   -2.094090   -2.384072
     49          1           0       -5.049902    0.071324    1.252077
     50          1           0       -6.043018    1.338965    0.667899
     51          1           0        2.869881    0.186303    0.502326
     52          1           0       -0.420739    1.889851    0.299417
     53          1           0        1.757056   -4.591512    1.171554
     54          1           0        2.446927   -3.454320    2.282763
     55          1           0        1.108515   -4.251004    2.797073
     56          1           0        2.425698   -3.579453   -0.566441
     57          1           0       -0.901683   -4.913249    0.397509
     58          1           0       -2.401464   -5.509927    1.238333
     59          1           0       -4.869215   -0.815492   -1.170058
     60          1           0       -5.274832    0.422472   -1.872700
     61          1           0       -4.919560    4.302842    0.510710
     62          1           0       -5.597416    2.932091   -0.571364
     63          1           0       -4.531529    4.175437   -1.318875
     64          1           0       -1.908302    4.950596   -0.677605
     65          1           0        7.752551   -2.447904   -1.634743
     66          1           0        6.890006   -4.118030   -1.695617
     67          1           0        7.260954   -3.086623   -0.005935
     68          1           0        6.877622   -0.417413   -0.215871
     69          1           0        5.006510    1.560171    0.763552
     70          1           0        6.221294    0.844237    1.559842
     71          1           0        4.558250    0.044973    1.814669
     72          1           0        3.709832    6.347562   -0.956286
     73          1           0        4.027610    4.739926   -0.810269
     74          1           0       -0.184059    6.531262   -1.524956
     75          1           0        1.200019    7.407880   -0.757233
     76          1           0       -0.334253    6.993267    0.275353
     77          1           0        3.609258    6.375359    1.841795
     78          1           0        5.054315    5.920566    0.957528
     79          1           0        4.117000    4.689872    1.687298
     80          1           0       -3.661793   -4.924428   -1.772605
     81          1           0       -7.997357   -2.039693   -1.634819
 ---------------------------------------------------------------------

 SCF Done:  E(RB3LYP) =  -1949.06447314     A.U. after   17 cycles

 Excitation energies and oscillator strengths:

 Excited State   1:      Singlet-A      1.9035 eV  651.35 nm  f=0.3066  <S**2>=0.000
     156 ->157         0.70345
 This state for optimization and/or second-order correction.
 Total Energy, E(TD-HF/TD-DFT) =  -1948.99452109
 Copying the excited state density for this state as the 1-particle RhoCI density.

 The electronic state is 1-A.
 Alpha  occ. eigenvalues --  -19.20856 -19.19447 -19.12752 -19.11298 -19.09208
 Alpha  occ. eigenvalues --  -19.09207 -14.38447 -14.36774 -14.34523 -14.28951
 Alpha  occ. eigenvalues --  -10.32161 -10.31955 -10.28307 -10.25653 -10.24805
 Alpha  occ. eigenvalues --  -10.23555 -10.23184 -10.23060 -10.22514 -10.22461
 Alpha  occ. eigenvalues --  -10.22085 -10.21586 -10.20969 -10.20407 -10.20340
 Alpha  occ. eigenvalues --  -10.20242 -10.20126 -10.20098 -10.19963 -10.19935
 Alpha  occ. eigenvalues --  -10.19860 -10.19753 -10.19592 -10.19324 -10.19261
 Alpha  occ. eigenvalues --  -10.19134 -10.18960 -10.18741 -10.18580 -10.18317
 Alpha  occ. eigenvalues --  -10.18316 -10.17634 -10.17173  -1.13858  -1.11912
 Alpha  occ. eigenvalues --   -1.02877  -1.01354  -1.00118  -0.99372  -0.99263
 Alpha  occ. eigenvalues --   -0.97206  -0.93702  -0.91813  -0.84625  -0.82534
 Alpha  occ. eigenvalues --   -0.80923  -0.80824  -0.79297  -0.79069  -0.77714
 Alpha  occ. eigenvalues --   -0.76440  -0.76135  -0.75150  -0.74075  -0.72943
 Alpha  occ. eigenvalues --   -0.70832  -0.70420  -0.69545  -0.68712  -0.67772
 Alpha  occ. eigenvalues --   -0.67173  -0.65527  -0.64192  -0.63329  -0.62690
 Alpha  occ. eigenvalues --   -0.62105  -0.61402  -0.59356  -0.58679  -0.57421
 Alpha  occ. eigenvalues --   -0.56349  -0.56079  -0.54854  -0.53294  -0.53080
 Alpha  occ. eigenvalues --   -0.52641  -0.52080  -0.50943  -0.50135  -0.50022
 Alpha  occ. eigenvalues --   -0.48819  -0.48692  -0.48507  -0.48099  -0.47577
 Alpha  occ. eigenvalues --   -0.47169  -0.46744  -0.46233  -0.45859  -0.45594
 Alpha  occ. eigenvalues --   -0.45178  -0.44477  -0.44295  -0.44155  -0.43438
 Alpha  occ. eigenvalues --   -0.43328  -0.42986  -0.42587  -0.42278  -0.42101
 Alpha  occ. eigenvalues --   -0.41850  -0.41720  -0.41511  -0.41069  -0.40927
 Alpha  occ. eigenvalues --   -0.40575  -0.40224  -0.40014  -0.39518  -0.39237
 Alpha  occ. eigenvalues --   -0.39039  -0.38952  -0.38582  -0.38450  -0.37879
 Alpha  occ. eigenvalues --   -0.37660  -0.37559  -0.37165  -0.36966  -0.36902
 Alpha  occ. eigenvalues --   -0.35436  -0.35252  -0.34753  -0.34541  -0.34426
 Alpha  occ. eigenvalues --   -0.33885  -0.33690  -0.33595  -0.32770  -0.32580
 Alpha  occ. eigenvalues --   -0.31947  -0.31825  -0.30528  -0.29790  -0.28400
 Alpha  occ. eigenvalues --   -0.27505  -0.27216  -0.25618  -0.25152  -0.24645
 Alpha  occ. eigenvalues --   -0.24410  -0.23972  -0.23852  -0.21963  -0.21167
 Alpha  occ. eigenvalues --   -0.18221
 Alpha virt. eigenvalues --   -0.10368  -0.06676  -0.04904  -0.00473  -0.00188
 Alpha virt. eigenvalues --    0.01328   0.01766   0.02442   0.02846   0.03955
 Alpha virt. eigenvalues --    0.04598   0.05129   0.05265   0.06146   0.06396

 Mulliken charges:
               1
     1  O   -0.308712
     2  O   -0.122837
     3  O   -0.135904
     4  O   -0.278088
     5  O   -0.195683
     6  O   -0.255777
     7  N   -0.100304
     8  N   -0.109190
     9  N   -0.100181
    10  N   -0.270738
    11  C   -0.103673
    12  C    0.098329
    13  C   -0.138220
    14  C    0.082545
    15  C   -0.015086
    16  C    0.041524
    17  C   -0.021850
    18  C   -0.123234
    19  C    0.248624
    20  C   -0.043877
    21  C    0.088263
    22  C    0.064340
    23  C   -0.099057
    24  C    0.071826
    25  C   -0.133130
    26  C    0.025510
    27  C    0.113093
    28  C   -0.047627
    29  C    0.036402
    30  C    0.038669
    31  C   -0.059811
    32  C    0.024388
    33  C   -0.119818
    34  C    0.068911
    35  C   -0.126576
    36  C   -0.169550
    37  C    0.052359
    38  C    0.063049
    39  C    0.126638
    40  C    0.081519
    41  C    0.134207
    42  C    0.108028
    43  C    0.021716
    44  H    0.103473
    45  H   -0.001623
    46  H   -0.001143
    47  H   -0.022321
    48  H    0.046392
    49  H   -0.010434
    50  H    0.042867
    51  H    0.083031
    52  H    0.204746
    53  H    0.017023
    54  H    0.013480
    55  H    0.025563
    56  H    0.179749
    57  H    0.029102
    58  H    0.050745
    59  H   -0.042972
    60  H    0.019543
    61  H    0.038439
    62  H    0.025118
    63  H    0.011290
    64  H   -0.068390
    65  H    0.022188
    66  H    0.066083
    67  H    0.039779
    68  H    0.007800
    69  H    0.073378
    70  H   -0.026816
    71  H    0.050499
    72  H    0.003941
    73  H   -0.008679
    74  H    0.022964
    75  H    0.014056
    76  H    0.041221
    77  H    0.014347
    78  H   -0.012171
    79  H    0.021298
    80  H    0.243574
    81  H    0.171843
 Sum of Mulliken charges =  -0.00000

 Dipole moment (field-independent basis, Debye):
    X=             -3.7279    Y=             -0.6359    Z=             -1.0148  Tot=              3.9155
 Quadrupole moment (field-independent basis, Debye-Ang):
   XX=           -246.4365   YY=           -236.7532   ZZ=           -252.1872
   XY=             33.6862   XZ=             22.1915   YZ=            -10.8783

 Normal termination of Gaussian 16 at Fri Jul  5 20:42:46 2019.
