 Gaussian 16, Revision A.03,
 Gaussian 16:  ES64L-G16RevA.03 25-Dec-2016

 --------------------------
 # td=(NStates=1) B3LYP/SVP
 --------------------------

 --
 TD
 --
 Symbolic Z-matrix:
 Charge =  0 Multiplicity = 1

                         Standard orientation:
 ---------------------------------------------------------------------
 Center     Atomic      Atomic             Coordinates (Angstroms)
 Number     Number       Type             X           Y           Z
 ---------------------------------------------------------------------
      1          8           0        4.521197   -4.756477   -1.879993
      2          8           0       -2.836048   -4.855319   -1.281440
      3          8           0       -7.182277   -1.391628   -1.938348
      4          8           0       -3.843228   -3.175570   -0.167502
      5          8           0       -7.526168   -0.725052    0.122653
      6          8           0        3.121160    2.474373    0.083761
      7          7           0        0.270810   -0.568772    0.621698
      8          7           0       -1.494792    1.769165    0.372117
      9          7           0        3.475577   -3.208818   -0.546658
     10          7           0        0.770552    2.944130    0.044909
     11          6           0       -0.737242   -2.485075    1.491557
     12          6           0       -0.956404   -1.193150    0.929525
     13          6           0        0.745813   -2.659347    1.366823
     14          6           0        1.259411   -1.487156    0.799106
     15          6           0       -3.740811    1.433306    0.309925
     16          6           0       -2.532922    0.751426    0.515148
     17          6           0       -2.200910   -0.527695    0.755206
     18          6           0       -3.611073    2.823192    0.160542
     19          6           0       -1.737887   -3.417205    1.924661
     20          6           0        5.581055   -2.554930   -1.360386
     21          6           0        3.693829   -1.860645   -0.122661
     22          6           0       -2.113234    3.022013    0.164937
     23          6           0        5.058290   -1.529459   -0.428135
     24          6           0       -5.207834    0.781383    0.327478
     25          6           0        2.696737   -1.109263    0.504521
     26          6           0        1.456274   -3.892613    1.938055
     27          6           0        4.540118   -3.705256   -1.329423
     28          6           0       -2.091554   -4.569885    0.859529
     29          6           0       -5.453418   -0.011776   -0.880440
     30          6           0       -4.474488    3.880301   -0.231999
     31          6           0       -1.282595    4.105955   -0.198293
     32          6           0        6.909638   -3.159281   -1.038894
     33          6           0        5.758302   -0.510160    0.062970
     34          6           0        0.094998    4.085544   -0.215442
     35          6           0        1.016445    5.228352   -0.440750
     36          6           0        2.292101    4.743442   -0.380181
     37          6           0       -3.003755   -4.053535   -0.243810
     38          6           0        5.419734    0.352755    1.208150
     39          6           0       -6.784158   -0.790002   -0.776761
     40          6           0        3.591417    5.416509   -0.445562
     41          6           0        2.078544    3.228758   -0.017903
     42          6           0        0.511009    6.624801   -0.818896
     43          6           0        4.272920    5.516570    0.822888
     44          1           0        0.513618    0.102874   -0.117684
     45          1           0       -3.055468   -1.126887    0.768838
     46          1           0       -2.848438   -2.848798    2.000805
     47          1           0       -1.450910   -3.974437    2.822326
     48          1           0        5.426634   -2.284168   -2.534625
     49          1           0       -5.179228    0.236226    1.292745
     50          1           0       -5.984008    1.535336    0.395763
     51          1           0        2.917024   -0.043486    0.569573
     52          1           0       -0.503048    1.828873    0.830609
     53          1           0        1.460133   -4.817455    1.207857
     54          1           0        2.451985   -3.684350    2.119727
     55          1           0        0.909875   -4.098286    2.883997
     56          1           0        2.405354   -3.525907   -0.649722
     57          1           0       -1.360883   -4.818117    0.313589
     58          1           0       -2.433235   -5.399034    1.472846
     59          1           0       -4.723037   -0.750815   -1.120723
     60          1           0       -5.584823    0.713979   -1.725453
     61          1           0       -4.389626    4.673679    0.524116
     62          1           0       -5.767625    3.760933   -0.142788
     63          1           0       -4.248376    4.193551   -1.358033
     64          1           0       -1.688430    5.079349   -0.303650
     65          1           0        7.813142   -2.573637   -1.325290
     66          1           0        6.811599   -4.120840   -1.864634
     67          1           0        6.924010   -3.549688   -0.067506
     68          1           0        6.852843   -0.362951   -0.418285
     69          1           0        4.589339    1.169646    0.845792
     70          1           0        6.379552    0.690304    1.571068
     71          1           0        5.137876   -0.039927    2.234122
     72          1           0        3.468421    6.384387   -0.847742
     73          1           0        4.327125    4.759593   -1.289241
     74          1           0        0.039450    6.791801   -1.891605
     75          1           0        1.363902    7.195593   -0.792310
     76          1           0       -0.162106    6.846949    0.149425
     77          1           0        3.720598    6.124017    1.763198
     78          1           0        5.357922    5.963971    0.668482
     79          1           0        4.546800    4.550731    1.321587
     80          1           0       -3.541560   -4.739095   -1.860071
     81          1           0       -7.978593   -1.823712   -1.673516
 ---------------------------------------------------------------------

 SCF Done:  E(RB3LYP) =  -1949.09849794     A.U. after   16 cycles

 Excitation energies and oscillator strengths:

 Excited State   1:      Singlet-A      1.9601 eV  632.53 nm  f=0.3442  <S**2>=0.000
     156 ->157         0.70156
 This state for optimization and/or second-order correction.
 Total Energy, E(TD-HF/TD-DFT) =  -1949.02646449
 Copying the excited state density for this state as the 1-particle RhoCI density.

 The electronic state is 1-A.
 Alpha  occ. eigenvalues --  -19.20620 -19.17317 -19.15123 -19.12971 -19.11723
 Alpha  occ. eigenvalues --  -19.09341 -14.37609 -14.36722 -14.35543 -14.28559
 Alpha  occ. eigenvalues --  -10.34188 -10.31558 -10.29153 -10.26093 -10.24980
 Alpha  occ. eigenvalues --  -10.23993 -10.23752 -10.23703 -10.23259 -10.22435
 Alpha  occ. eigenvalues --  -10.22430 -10.22243 -10.21574 -10.21222 -10.21217
 Alpha  occ. eigenvalues --  -10.20899 -10.20818 -10.20622 -10.20495 -10.20354
 Alpha  occ. eigenvalues --  -10.20272 -10.20197 -10.20143 -10.20018 -10.19452
 Alpha  occ. eigenvalues --  -10.19317 -10.19276 -10.18987 -10.18897 -10.18871
 Alpha  occ. eigenvalues --  -10.18520 -10.18346 -10.17860  -1.13575  -1.11058
 Alpha  occ. eigenvalues --   -1.04943  -1.03344  -1.01718  -0.98014  -0.97601
 Alpha  occ. eigenvalues --   -0.95047  -0.93866  -0.91258  -0.82933  -0.82092
 Alpha  occ. eigenvalues --   -0.81649  -0.81254  -0.79881  -0.78481  -0.78461
 Alpha  occ. eigenvalues --   -0.77728  -0.76734  -0.75339  -0.73915  -0.72663
 Alpha  occ. eigenvalues --   -0.71672  -0.69684  -0.69173  -0.67848  -0.67376
 Alpha  occ. eigenvalues --   -0.66683  -0.64954  -0.63792  -0.63288  -0.61540
 Alpha  occ. eigenvalues --   -0.60235  -0.58680  -0.58236  -0.56823  -0.56227
 Alpha  occ. eigenvalues --   -0.55711  -0.55135  -0.54364  -0.52619  -0.52270
 Alpha  occ. eigenvalues --   -0.52031  -0.51622  -0.51177  -0.50883  -0.50129
 Alpha  occ. eigenvalues --   -0.49614  -0.49568  -0.48923  -0.48405  -0.47646
 Alpha  occ. eigenvalues --   -0.47142  -0.46840  -0.46320  -0.45981  -0.45242
 Alpha  occ. eigenvalues --   -0.44796  -0.44534  -0.44418  -0.43976  -0.43545
 Alpha  occ. eigenvalues --   -0.43281  -0.43209  -0.43020  -0.42826  -0.42368
 Alpha  occ. eigenvalues --   -0.42122  -0.41616  -0.41190  -0.41009  -0.40899
 Alpha  occ. eigenvalues --   -0.40569  -0.40374  -0.40026  -0.39856  -0.39702
 Alpha  occ. eigenvalues --   -0.39075  -0.39022  -0.38566  -0.38471  -0.38117
 Alpha  occ. eigenvalues --   -0.37998  -0.37797  -0.37450  -0.37113  -0.36691
 Alpha  occ. eigenvalues --   -0.36286  -0.35742  -0.35435  -0.34996  -0.34496
 Alpha  occ. eigenvalues --   -0.33839  -0.33561  -0.32909  -0.32650  -0.32478
 Alpha  occ. eigenvalues --   -0.32385  -0.31937  -0.31121  -0.30501  -0.29552
 Alpha  occ. eigenvalues --   -0.28477  -0.26941  -0.26845  -0.25814  -0.25368
 Alpha  occ. eigenvalues --   -0.25066  -0.24769  -0.23226  -0.22775  -0.21368
 Alpha  occ. eigenvalues --   -0.18514
 Alpha virt. eigenvalues --   -0.10551  -0.05903  -0.04101  -0.02522   0.00284
 Alpha virt. eigenvalues --    0.00724   0.01399   0.02756   0.03038   0.03479
 Alpha virt. eigenvalues --    0.04415   0.04911   0.05077   0.05674   0.05895

 Mulliken charges:
               1
     1  O   -0.170013
     2  O   -0.114440
     3  O   -0.184892
     4  O   -0.227780
     5  O   -0.187023
     6  O   -0.297131
     7  N   -0.077108
     8  N   -0.212802
     9  N   -0.204256
    10  N   -0.250816
    11  C   -0.040962
    12  C    0.086643
    13  C   -0.188733
    14  C    0.020495
    15  C   -0.105713
    16  C    0.113038
    17  C   -0.037469
    18  C   -0.042480
    19  C   -0.009758
    20  C   -0.103501
    21  C    0.081301
    22  C    0.083158
    23  C    0.044722
    24  C    0.123808
    25  C   -0.087316
    26  C    0.101028
    27  C    0.113214
    28  C    0.117831
    29  C    0.023391
    30  C   -0.030656
    31  C   -0.083984
    32  C    0.027373
    33  C   -0.164879
    34  C    0.067941
    35  C   -0.114253
    36  C   -0.157567
    37  C    0.113003
    38  C   -0.027143
    39  C    0.104939
    40  C    0.084615
    41  C    0.163605
    42  C    0.090177
    43  C   -0.065929
    44  H    0.165542
    45  H   -0.042785
    46  H    0.057865
    47  H    0.002431
    48  H    0.064944
    49  H    0.027859
    50  H   -0.003504
    51  H   -0.002606
    52  H    0.192035
    53  H    0.035060
    54  H    0.006597
    55  H    0.024245
    56  H    0.172023
    57  H   -0.046135
    58  H    0.050664
    59  H    0.032831
    60  H    0.039735
    61  H    0.037852
    62  H    0.037682
    63  H    0.069616
    64  H   -0.051259
    65  H    0.030973
    66  H    0.046675
    67  H    0.010370
    68  H    0.019532
    69  H    0.143600
    70  H   -0.006028
    71  H    0.026391
    72  H   -0.017537
    73  H    0.037598
    74  H    0.056515
    75  H   -0.019492
    76  H    0.042567
    77  H    0.024117
    78  H    0.014925
    79  H    0.034474
    80  H    0.156131
    81  H    0.154821
 Sum of Mulliken charges =  -0.00000

 Dipole moment (field-independent basis, Debye):
    X=             -3.9976    Y=             -0.3599    Z=             -0.3436  Tot=              4.0285
 Quadrupole moment (field-independent basis, Debye-Ang):
   XX=           -255.5826   YY=           -238.1455   ZZ=           -253.8254
   XY=             14.1258   XZ=             13.6814   YZ=            -10.0944

 Normal termination of Gaussian 16 at Sun Jun 30 06:35:09 2019.
