 Gaussian 16, Revision A.03,
 Gaussian 16:  ES64L-G16RevA.03 25-Dec-2016

 --------------------------
 # td=(NStates=1) B3LYP/SVP
 --------------------------

 --
 TD
 --
 Symbolic Z-matrix:
 Charge =  0 Multiplicity = 1

                         Standard orientation:
 ---------------------------------------------------------------------
 Center     Atomic      Atomic             Coordinates (Angstroms)
 Number     Number       Type             X           Y           Z
 ---------------------------------------------------------------------
      1          8           0        4.254671   -4.797023   -1.987073
      2          8           0       -2.994805   -4.878870   -1.260135
      3          8           0       -7.197497   -1.243065   -1.806966
      4          8           0       -3.624449   -2.958317   -0.154431
      5          8           0       -7.594526   -0.341444    0.157127
      6          8           0        3.061323    2.348939    0.333685
      7          7           0        0.266905   -0.581231    0.578534
      8          7           0       -1.549126    1.810155    0.369018
      9          7           0        3.251533   -3.071673   -0.842379
     10          7           0        0.875304    2.881014   -0.028849
     11          6           0       -0.718920   -2.399765    1.432298
     12          6           0       -1.049909   -1.116983    0.918217
     13          6           0        0.663033   -2.714849    1.226672
     14          6           0        1.293065   -1.468623    0.796323
     15          6           0       -3.812238    1.512190    0.380664
     16          6           0       -2.508525    0.880271    0.552547
     17          6           0       -2.256015   -0.406154    0.898829
     18          6           0       -3.412636    2.883364    0.089735
     19          6           0       -1.787772   -3.366778    1.917977
     20          6           0        5.461356   -2.697377   -1.298088
     21          6           0        3.588132   -1.835574   -0.132087
     22          6           0       -2.096078    2.990096   -0.006823
     23          6           0        4.931655   -1.667093   -0.328780
     24          6           0       -5.107193    0.729075    0.399657
     25          6           0        2.628356   -1.114151    0.476961
     26          6           0        1.471767   -3.884046    1.603328
     27          6           0        4.282054   -3.700031   -1.364480
     28          6           0       -2.173329   -4.515508    0.989244
     29          6           0       -5.494382   -0.041039   -0.744486
     30          6           0       -4.314026    3.950635   -0.398253
     31          6           0       -1.217402    4.036152   -0.359193
     32          6           0        6.725297   -3.276514   -1.124106
     33          6           0        5.687594   -0.765870    0.318781
     34          6           0        0.196240    3.998087   -0.438237
     35          6           0        1.146093    5.073014   -0.504047
     36          6           0        2.416797    4.645619   -0.339496
     37          6           0       -3.024882   -4.070868   -0.152708
     38          6           0        5.420962    0.180456    1.306989
     39          6           0       -6.861056   -0.588470   -0.691583
     40          6           0        3.785058    5.323391   -0.443676
     41          6           0        2.219230    3.165373    0.037552
     42          6           0        0.801654    6.475655   -0.899037
     43          6           0        4.449428    5.429622    0.925579
     44          1           0        0.501173    0.351456    0.252805
     45          1           0       -2.947887   -1.186147    0.905806
     46          1           0       -2.845420   -2.891251    2.333031
     47          1           0       -1.453230   -3.663984    2.846643
     48          1           0        5.318689   -2.157250   -2.341980
     49          1           0       -5.183880    0.163246    1.313503
     50          1           0       -5.760268    1.491157    0.700927
     51          1           0        3.086018   -0.125205    0.733771
     52          1           0       -0.534339    1.943084    0.259250
     53          1           0        1.770256   -4.669075    0.835667
     54          1           0        2.435315   -3.593709    2.177801
     55          1           0        0.864055   -4.683092    2.166800
     56          1           0        2.188133   -3.449609   -0.621563
     57          1           0       -1.313211   -4.917148    0.370216
     58          1           0       -2.523028   -5.172174    1.714085
     59          1           0       -4.770856   -0.778566   -0.890539
     60          1           0       -5.366386    0.451913   -1.645579
     61          1           0       -4.244054    4.684563    0.282561
     62          1           0       -5.610094    3.638211   -0.358626
     63          1           0       -3.926707    4.488203   -1.465616
     64          1           0       -1.790701    4.886290   -0.771553
     65          1           0        7.629074   -2.613319   -1.416095
     66          1           0        7.066052   -4.140999   -1.692518
     67          1           0        6.922285   -3.591160   -0.248548
     68          1           0        6.712370   -0.750608    0.150144
     69          1           0        5.175539    1.184824    0.840726
     70          1           0        6.295016    0.785941    1.819875
     71          1           0        4.668210   -0.031097    2.244898
     72          1           0        3.630949    6.322506   -0.753186
     73          1           0        4.519044    4.861032   -1.242098
     74          1           0        0.065717    6.718945   -1.730808
     75          1           0        1.651790    7.077145   -0.775675
     76          1           0        0.389254    6.816600    0.221341
     77          1           0        3.965768    6.266151    1.550432
     78          1           0        5.406924    5.744542    0.785469
     79          1           0        4.710304    4.390275    1.693761
     80          1           0       -3.755500   -4.514921   -1.708816
     81          1           0       -8.096856   -1.506219   -1.605893
 ---------------------------------------------------------------------

 SCF Done:  E(RB3LYP) =  -1949.01469933     A.U. after   17 cycles

 Excitation energies and oscillator strengths:

 Excited State   1:      Singlet-A      1.8411 eV  673.43 nm  f=0.3467  <S**2>=0.000
     156 ->157         0.70874
     156 <-157        -0.12547
 This state for optimization and/or second-order correction.
 Total Energy, E(TD-HF/TD-DFT) =  -1948.94704028
 Copying the excited state density for this state as the 1-particle RhoCI density.

 The electronic state is 1-A.
 Alpha  occ. eigenvalues --  -19.20962 -19.18179 -19.15246 -19.12849 -19.09265
 Alpha  occ. eigenvalues --  -19.08947 -14.37352 -14.36994 -14.34382 -14.27785
 Alpha  occ. eigenvalues --  -10.34987 -10.31207 -10.27895 -10.25342 -10.24551
 Alpha  occ. eigenvalues --  -10.23709 -10.23463 -10.22820 -10.22575 -10.22314
 Alpha  occ. eigenvalues --  -10.22082 -10.21839 -10.21532 -10.21221 -10.21200
 Alpha  occ. eigenvalues --  -10.21178 -10.20796 -10.20685 -10.20387 -10.19961
 Alpha  occ. eigenvalues --  -10.19858 -10.19682 -10.19446 -10.19381 -10.19350
 Alpha  occ. eigenvalues --  -10.19217 -10.18972 -10.18899 -10.18898 -10.18709
 Alpha  occ. eigenvalues --  -10.18224 -10.18195 -10.16780  -1.12459  -1.11571
 Alpha  occ. eigenvalues --   -1.03330  -1.01301  -1.00943  -1.00687  -0.99080
 Alpha  occ. eigenvalues --   -0.96441  -0.93639  -0.91093  -0.83314  -0.83075
 Alpha  occ. eigenvalues --   -0.82869  -0.81975  -0.79997  -0.79487  -0.78885
 Alpha  occ. eigenvalues --   -0.78628  -0.77466  -0.75856  -0.75012  -0.73129
 Alpha  occ. eigenvalues --   -0.71560  -0.71337  -0.69067  -0.68608  -0.68142
 Alpha  occ. eigenvalues --   -0.67481  -0.66090  -0.64263  -0.62643  -0.61694
 Alpha  occ. eigenvalues --   -0.61163  -0.60291  -0.59313  -0.58681  -0.57408
 Alpha  occ. eigenvalues --   -0.56668  -0.55597  -0.54780  -0.53210  -0.52912
 Alpha  occ. eigenvalues --   -0.52581  -0.52129  -0.51588  -0.51386  -0.51278
 Alpha  occ. eigenvalues --   -0.50105  -0.49943  -0.49148  -0.48974  -0.48530
 Alpha  occ. eigenvalues --   -0.47830  -0.47038  -0.46700  -0.45385  -0.45191
 Alpha  occ. eigenvalues --   -0.44978  -0.44774  -0.44408  -0.44006  -0.43923
 Alpha  occ. eigenvalues --   -0.43665  -0.43632  -0.43248  -0.42681  -0.42590
 Alpha  occ. eigenvalues --   -0.42236  -0.42162  -0.42018  -0.41703  -0.41534
 Alpha  occ. eigenvalues --   -0.40994  -0.40592  -0.40444  -0.40220  -0.39989
 Alpha  occ. eigenvalues --   -0.39527  -0.39230  -0.39035  -0.38653  -0.37843
 Alpha  occ. eigenvalues --   -0.37759  -0.37446  -0.37314  -0.36617  -0.35797
 Alpha  occ. eigenvalues --   -0.35754  -0.35314  -0.34884  -0.34809  -0.34316
 Alpha  occ. eigenvalues --   -0.34204  -0.34125  -0.33739  -0.33052  -0.32822
 Alpha  occ. eigenvalues --   -0.32542  -0.32402  -0.31601  -0.30300  -0.29957
 Alpha  occ. eigenvalues --   -0.29046  -0.26698  -0.26129  -0.25523  -0.24746
 Alpha  occ. eigenvalues --   -0.24498  -0.23980  -0.23206  -0.22696  -0.21311
 Alpha  occ. eigenvalues --   -0.17992
 Alpha virt. eigenvalues --   -0.10740  -0.05931  -0.04614  -0.03936   0.00592
 Alpha virt. eigenvalues --    0.01746   0.02482   0.02690   0.03057   0.03270
 Alpha virt. eigenvalues --    0.04544   0.04773   0.05163   0.05649   0.05742

 Mulliken charges:
               1
     1  O   -0.275278
     2  O   -0.160615
     3  O   -0.162463
     4  O   -0.267001
     5  O   -0.166826
     6  O   -0.199406
     7  N   -0.124843
     8  N   -0.037031
     9  N   -0.151468
    10  N   -0.331654
    11  C   -0.088035
    12  C    0.050537
    13  C   -0.135041
    14  C    0.099443
    15  C   -0.114141
    16  C    0.125951
    17  C   -0.013539
    18  C   -0.103890
    19  C    0.036704
    20  C   -0.018374
    21  C    0.050441
    22  C    0.001122
    23  C    0.031453
    24  C    0.180037
    25  C   -0.107099
    26  C   -0.002334
    27  C    0.104422
    28  C    0.065446
    29  C    0.127648
    30  C    0.014491
    31  C   -0.069347
    32  C    0.145478
    33  C   -0.106849
    34  C    0.112861
    35  C   -0.140916
    36  C   -0.154669
    37  C    0.168507
    38  C   -0.007784
    39  C    0.082092
    40  C    0.103680
    41  C    0.125155
    42  C    0.106321
    43  C   -0.034707
    44  H    0.131825
    45  H   -0.006888
    46  H    0.033634
    47  H   -0.014784
    48  H    0.062837
    49  H   -0.007657
    50  H   -0.031488
    51  H    0.039141
    52  H    0.121185
    53  H    0.032501
    54  H    0.062580
    55  H    0.006056
    56  H    0.182851
    57  H    0.048699
    58  H    0.038061
    59  H   -0.001675
    60  H   -0.005702
    61  H   -0.007194
    62  H    0.040537
    63  H    0.054444
    64  H   -0.038792
    65  H    0.003755
    66  H    0.012569
    67  H   -0.059331
    68  H   -0.033028
    69  H    0.065004
    70  H    0.005188
    71  H    0.062154
    72  H   -0.024789
    73  H    0.033702
    74  H    0.056551
    75  H   -0.025720
    76  H    0.020628
    77  H    0.017931
    78  H   -0.018545
    79  H    0.048202
    80  H    0.177549
    81  H    0.159526
 Sum of Mulliken charges =  -0.00000

 Dipole moment (field-independent basis, Debye):
    X=             -2.6445    Y=              0.0365    Z=              1.1420  Tot=              2.8808
 Quadrupole moment (field-independent basis, Debye-Ang):
   XX=           -239.7258   YY=           -241.9305   ZZ=           -256.9301
   XY=             28.1763   XZ=             15.5028   YZ=            -20.1949

 Normal termination of Gaussian 16 at Sat Jul  6 13:54:06 2019.
