 Gaussian 16, Revision A.03,
 Gaussian 16:  ES64L-G16RevA.03 25-Dec-2016

 --------------------------
 # td=(NStates=1) B3LYP/SVP
 --------------------------

 --
 TD
 --
 Symbolic Z-matrix:
 Charge =  0 Multiplicity = 1

                         Standard orientation:
 ---------------------------------------------------------------------
 Center     Atomic      Atomic             Coordinates (Angstroms)
 Number     Number       Type             X           Y           Z
 ---------------------------------------------------------------------
      1          8           0       -4.448460   -4.596554    2.106135
      2          8           0        2.946071   -4.969628    1.003336
      3          8           0        7.054191   -1.625146    2.065677
      4          8           0        3.593828   -3.140227   -0.043307
      5          8           0        7.568097   -0.969940   -0.051673
      6          8           0       -3.030064    2.561324   -0.218431
      7          7           0       -0.309972   -0.575115   -0.555104
      8          7           0        1.557100    1.745971   -0.369077
      9          7           0       -3.387055   -3.062670    0.782031
     10          7           0       -0.646338    2.937682   -0.076777
     11          6           0        0.487038   -2.455103   -1.517947
     12          6           0        0.826176   -1.123758   -1.023656
     13          6           0       -0.849682   -2.617467   -1.347181
     14          6           0       -1.333210   -1.398913   -0.635831
     15          6           0        3.813894    1.328408   -0.405030
     16          6           0        2.520511    0.752623   -0.592786
     17          6           0        2.107202   -0.523930   -0.867781
     18          6           0        3.698751    2.621625   -0.046751
     19          6           0        1.497538   -3.433256   -2.020009
     20          6           0       -5.704847   -2.444183    1.374990
     21          6           0       -3.676327   -1.728758    0.220596
     22          6           0        2.218727    2.858350   -0.006859
     23          6           0       -5.159352   -1.439155    0.309541
     24          6           0        5.165366    0.595944   -0.444340
     25          6           0       -2.682600   -0.992220   -0.392867
     26          6           0       -1.787224   -3.770759   -1.836217
     27          6           0       -4.512135   -3.529302    1.572457
     28          6           0        1.870748   -4.505910   -0.998793
     29          6           0        5.445155   -0.284300    0.811937
     30          6           0        4.705063    3.667725    0.288426
     31          6           0        1.488412    4.150867    0.279117
     32          6           0       -7.114574   -3.104900    1.203473
     33          6           0       -5.885946   -0.457937   -0.241591
     34          6           0        0.068877    3.970922    0.237321
     35          6           0       -0.768136    5.207380    0.502252
     36          6           0       -2.092149    4.741907    0.285152
     37          6           0        2.856152   -4.035504   -0.015710
     38          6           0       -5.490560    0.481547   -1.272906
     39          6           0        6.835082   -1.030445    0.909055
     40          6           0       -3.457117    5.458763    0.388288
     41          6           0       -2.001675    3.284226    0.025337
     42          6           0       -0.193770    6.562421    0.977937
     43          6           0       -4.003296    5.870056   -1.005969
     44          1           0       -0.226976    0.244459   -0.001654
     45          1           0        3.019208   -1.161353   -0.966278
     46          1           0        2.244235   -2.868994   -2.524205
     47          1           0        0.792973   -3.964718   -2.702283
     48          1           0       -5.619269   -2.049195    2.399570
     49          1           0        5.338965    0.035010   -1.330109
     50          1           0        6.065465    1.455932   -0.510740
     51          1           0       -3.064792    0.027728   -0.648149
     52          1           0        0.543167    1.830962   -0.421831
     53          1           0       -1.768658   -4.574687   -1.034942
     54          1           0       -2.897515   -3.638044   -2.044902
     55          1           0       -1.366905   -4.322274   -2.733248
     56          1           0       -2.439980   -3.462425    0.612328
     57          1           0        0.887729   -4.680036   -0.494052
     58          1           0        2.159693   -5.278802   -1.567871
     59          1           0        4.806358   -1.060091    0.840257
     60          1           0        5.170899    0.412048    1.773920
     61          1           0        4.651880    4.340565   -0.538836
     62          1           0        5.703494    3.314494    0.213911
     63          1           0        4.539934    4.229214    1.239588
     64          1           0        2.027481    5.061271    0.661081
     65          1           0       -8.030327   -2.280080    1.199599
     66          1           0       -7.230805   -3.784380    2.051138
     67          1           0       -7.229691   -3.845587    0.322083
     68          1           0       -6.969042   -0.596509   -0.016392
     69          1           0       -4.687609    1.312601   -1.040263
     70          1           0       -6.418501    1.107996   -1.529182
     71          1           0       -5.247440   -0.083892   -2.171657
     72          1           0       -3.351171    6.282291    1.264976
     73          1           0       -4.016753    4.572834    0.940915
     74          1           0        0.540313    6.079258    1.862418
     75          1           0       -0.906290    7.309750    1.363456
     76          1           0        0.345104    6.984541    0.161452
     77          1           0       -3.316798    6.696239   -1.494456
     78          1           0       -4.894161    6.484657   -0.912737
     79          1           0       -4.073782    4.944300   -1.568037
     80          1           0        3.707160   -4.434544    1.645281
     81          1           0        7.894415   -2.102021    2.056516
 ---------------------------------------------------------------------

 SCF Done:  E(RB3LYP) =  -1949.14787991     A.U. after   16 cycles

 Excitation energies and oscillator strengths:

 Excited State   1:      Singlet-A      2.0269 eV  611.69 nm  f=0.3868  <S**2>=0.000
     156 ->157         0.70560
 This state for optimization and/or second-order correction.
 Total Energy, E(TD-HF/TD-DFT) =  -1949.07339242
 Copying the excited state density for this state as the 1-particle RhoCI density.

 The electronic state is 1-A.
 Alpha  occ. eigenvalues --  -19.20183 -19.18931 -19.15561 -19.12746 -19.11664
 Alpha  occ. eigenvalues --  -19.10089 -14.38806 -14.35981 -14.35932 -14.28936
 Alpha  occ. eigenvalues --  -10.33201 -10.32790 -10.29922 -10.26605 -10.24679
 Alpha  occ. eigenvalues --  -10.24228 -10.24010 -10.23180 -10.22991 -10.22513
 Alpha  occ. eigenvalues --  -10.22098 -10.21681 -10.21410 -10.21318 -10.21290
 Alpha  occ. eigenvalues --  -10.20924 -10.20789 -10.20729 -10.20674 -10.20669
 Alpha  occ. eigenvalues --  -10.20620 -10.20447 -10.20276 -10.20088 -10.19829
 Alpha  occ. eigenvalues --  -10.19801 -10.19680 -10.19564 -10.19551 -10.18605
 Alpha  occ. eigenvalues --  -10.18264 -10.18249 -10.18240  -1.12072  -1.11382
 Alpha  occ. eigenvalues --   -1.04090  -1.01733  -1.01193  -1.01149  -0.98756
 Alpha  occ. eigenvalues --   -0.98074  -0.91904  -0.91314  -0.84092  -0.82433
 Alpha  occ. eigenvalues --   -0.81083  -0.80697  -0.79096  -0.77791  -0.77580
 Alpha  occ. eigenvalues --   -0.76571  -0.75653  -0.74623  -0.73327  -0.71802
 Alpha  occ. eigenvalues --   -0.71660  -0.69642  -0.69162  -0.68587  -0.67807
 Alpha  occ. eigenvalues --   -0.67449  -0.64391  -0.63883  -0.62194  -0.61306
 Alpha  occ. eigenvalues --   -0.59927  -0.59755  -0.58642  -0.58254  -0.56694
 Alpha  occ. eigenvalues --   -0.56311  -0.55497  -0.54344  -0.53747  -0.52435
 Alpha  occ. eigenvalues --   -0.51799  -0.51684  -0.51217  -0.50749  -0.50551
 Alpha  occ. eigenvalues --   -0.49526  -0.48774  -0.48591  -0.48496  -0.47663
 Alpha  occ. eigenvalues --   -0.46624  -0.46396  -0.45745  -0.45537  -0.45082
 Alpha  occ. eigenvalues --   -0.44790  -0.44183  -0.43916  -0.43680  -0.43418
 Alpha  occ. eigenvalues --   -0.43384  -0.43066  -0.42963  -0.42529  -0.42050
 Alpha  occ. eigenvalues --   -0.41969  -0.41588  -0.41506  -0.41218  -0.40960
 Alpha  occ. eigenvalues --   -0.40667  -0.40249  -0.39963  -0.39741  -0.39568
 Alpha  occ. eigenvalues --   -0.39432  -0.39256  -0.39099  -0.38967  -0.38623
 Alpha  occ. eigenvalues --   -0.38367  -0.37460  -0.37428  -0.36953  -0.36632
 Alpha  occ. eigenvalues --   -0.36269  -0.35801  -0.35631  -0.35197  -0.34511
 Alpha  occ. eigenvalues --   -0.33953  -0.33689  -0.33606  -0.33362  -0.33300
 Alpha  occ. eigenvalues --   -0.32591  -0.32340  -0.30804  -0.30602  -0.29526
 Alpha  occ. eigenvalues --   -0.27909  -0.27144  -0.26773  -0.26470  -0.26314
 Alpha  occ. eigenvalues --   -0.25244  -0.24552  -0.23762  -0.22478  -0.21398
 Alpha  occ. eigenvalues --   -0.17956
 Alpha virt. eigenvalues --   -0.09782  -0.05871  -0.03537  -0.01167   0.00573
 Alpha virt. eigenvalues --    0.00722   0.00785   0.02058   0.02784   0.03647
 Alpha virt. eigenvalues --    0.03706   0.04287   0.04990   0.05294   0.05594

 Mulliken charges:
               1
     1  O   -0.177888
     2  O   -0.284836
     3  O   -0.148668
     4  O   -0.166686
     5  O   -0.225442
     6  O   -0.275370
     7  N    0.056347
     8  N   -0.081280
     9  N   -0.219479
    10  N   -0.281145
    11  C   -0.145339
    12  C    0.034218
    13  C   -0.141944
    14  C    0.039329
    15  C   -0.049610
    16  C    0.047712
    17  C   -0.066494
    18  C   -0.145960
    19  C    0.123543
    20  C   -0.078549
    21  C    0.054086
    22  C    0.017027
    23  C    0.040523
    24  C    0.064309
    25  C   -0.109561
    26  C    0.025290
    27  C    0.138849
    28  C    0.103963
    29  C   -0.001239
    30  C    0.164587
    31  C   -0.133013
    32  C   -0.013266
    33  C   -0.128071
    34  C    0.076778
    35  C   -0.118158
    36  C   -0.192070
    37  C    0.138124
    38  C   -0.008370
    39  C    0.130988
    40  C   -0.013795
    41  C    0.194317
    42  C    0.067698
    43  C    0.029586
    44  H    0.117386
    45  H    0.012148
    46  H    0.009012
    47  H   -0.006451
    48  H    0.046705
    49  H    0.008485
    50  H    0.029585
    51  H    0.022463
    52  H    0.123892
    53  H    0.022565
    54  H    0.057221
    55  H    0.023173
    56  H    0.140533
    57  H    0.043076
    58  H    0.020807
    59  H   -0.005086
    60  H    0.045152
    61  H    0.012812
    62  H   -0.013309
    63  H    0.036660
    64  H    0.005520
    65  H    0.051182
    66  H    0.029049
    67  H    0.034878
    68  H   -0.001752
    69  H    0.118005
    70  H    0.008903
    71  H    0.032394
    72  H    0.012181
    73  H    0.035976
    74  H    0.053173
    75  H    0.025676
    76  H    0.030215
    77  H    0.013690
    78  H    0.009175
    79  H    0.040693
    80  H    0.229823
    81  H    0.183348
 Sum of Mulliken charges =  -0.00000

 Dipole moment (field-independent basis, Debye):
    X=              3.5546    Y=             -0.4686    Z=              0.4043  Tot=              3.6081
 Quadrupole moment (field-independent basis, Debye-Ang):
   XX=           -244.6893   YY=           -243.7220   ZZ=           -254.8220
   XY=             -8.5999   XZ=             20.1556   YZ=             14.2268

 Normal termination of Gaussian 16 at Sun Jun 30 06:04:51 2019.
