 Gaussian 16, Revision A.03,
 Gaussian 16:  ES64L-G16RevA.03 25-Dec-2016

 --------------------------
 # td=(NStates=1) B3LYP/SVP
 --------------------------

 --
 TD
 --
 Symbolic Z-matrix:
 Charge =  0 Multiplicity = 1

                         Standard orientation:
 ---------------------------------------------------------------------
 Center     Atomic      Atomic             Coordinates (Angstroms)
 Number     Number       Type             X           Y           Z
 ---------------------------------------------------------------------
      1          8           0        4.448350   -4.726323   -1.932311
      2          8           0       -2.701799   -4.958843   -1.056111
      3          8           0       -6.977043   -1.619797   -1.962239
      4          8           0       -3.590478   -3.178089   -0.057786
      5          8           0       -7.757554   -0.581966   -0.168178
      6          8           0        2.929142    2.462612    0.212469
      7          7           0        0.376836   -0.651331    0.631672
      8          7           0       -1.497763    1.785460    0.386516
      9          7           0        3.454387   -3.066875   -0.603146
     10          7           0        0.709208    2.927321    0.022821
     11          6           0       -0.647619   -2.462768    1.402725
     12          6           0       -0.915425   -1.177905    0.972894
     13          6           0        0.797218   -2.629202    1.367707
     14          6           0        1.361828   -1.536304    0.859793
     15          6           0       -3.854288    1.417927    0.361512
     16          6           0       -2.502978    0.683526    0.495991
     17          6           0       -2.157489   -0.552894    0.889736
     18          6           0       -3.633518    2.768949   -0.073733
     19          6           0       -1.577892   -3.398758    1.979680
     20          6           0        5.472273   -2.482928   -1.495842
     21          6           0        3.711298   -1.760357   -0.096194
     22          6           0       -2.189256    2.958058    0.074234
     23          6           0        5.067074   -1.354915   -0.508932
     24          6           0       -5.137283    0.673295    0.358393
     25          6           0        2.728510   -1.103871    0.549358
     26          6           0        1.560203   -3.880589    1.974806
     27          6           0        4.416654   -3.579120   -1.360412
     28          6           0       -1.859532   -4.516314    1.083405
     29          6           0       -5.371713   -0.334314   -0.877823
     30          6           0       -4.611117    3.811903   -0.280212
     31          6           0       -1.446221    4.088916   -0.190331
     32          6           0        6.849319   -2.926861   -1.538129
     33          6           0        5.895108   -0.537760    0.118872
     34          6           0       -0.105387    4.063963   -0.226360
     35          6           0        0.889677    5.184915   -0.490719
     36          6           0        2.185434    4.665269   -0.395788
     37          6           0       -2.817655   -4.140249    0.012789
     38          6           0        5.492120    0.490815    1.249289
     39          6           0       -6.861186   -0.839560   -0.888266
     40          6           0        3.443711    5.371701   -0.386961
     41          6           0        2.052710    3.271229    0.052818
     42          6           0        0.501938    6.617065   -0.775967
     43          6           0        4.047132    5.663991    1.051787
     44          1           0        0.455469    0.342224    0.030208
     45          1           0       -3.037041   -1.124751    1.008362
     46          1           0       -2.589399   -2.873520    2.043792
     47          1           0       -1.046940   -3.932077    2.943072
     48          1           0        5.351563   -1.978608   -2.439243
     49          1           0       -5.216109    0.151279    1.283332
     50          1           0       -5.958715    1.332148    0.300106
     51          1           0        2.923589    0.048429    0.424512
     52          1           0       -0.490597    1.718284    0.284924
     53          1           0        1.926910   -4.698603    1.141174
     54          1           0        2.508385   -3.312193    2.464552
     55          1           0        0.953347   -4.276197    2.764302
     56          1           0        2.614110   -3.492707   -0.599304
     57          1           0       -0.914471   -5.052897    0.766226
     58          1           0       -2.468730   -5.404413    1.535652
     59          1           0       -4.678880   -1.139131   -0.765760
     60          1           0       -5.263981    0.177109   -1.921494
     61          1           0       -4.265729    4.719928    0.202181
     62          1           0       -5.580260    3.355110   -0.073795
     63          1           0       -4.492708    4.098562   -1.327964
     64          1           0       -2.009732    4.892361   -0.411742
     65          1           0        7.607241   -2.031887   -1.599152
     66          1           0        7.142130   -3.918398   -2.212128
     67          1           0        7.108195   -3.132679   -0.519080
     68          1           0        6.958423   -0.434854    0.057496
     69          1           0        5.284728    1.367441    0.486625
     70          1           0        6.283915    0.672361    1.950875
     71          1           0        4.460233    0.087778    1.739058
     72          1           0        3.236152    6.304803   -1.126420
     73          1           0        4.179369    4.761245   -1.096566
     74          1           0       -0.198031    6.699038   -1.606430
     75          1           0        1.293801    7.191703   -0.825098
     76          1           0       -0.067532    7.133291    0.015382
     77          1           0        3.156417    6.288573    1.722706
     78          1           0        4.993077    6.229214    0.809372
     79          1           0        4.249055    4.706565    1.379478
     80          1           0       -3.344108   -4.795348   -1.737378
     81          1           0       -7.868632   -1.923087   -2.064333
 ---------------------------------------------------------------------

 SCF Done:  E(RB3LYP) =  -1949.09272490     A.U. after   16 cycles

 Excitation energies and oscillator strengths:

 Excited State   1:      Singlet-A      2.0267 eV  611.74 nm  f=0.2786  <S**2>=0.000
     156 ->157         0.69371
 This state for optimization and/or second-order correction.
 Total Energy, E(TD-HF/TD-DFT) =  -1949.01824362
 Copying the excited state density for this state as the 1-particle RhoCI density.

 The electronic state is 1-A.
 Alpha  occ. eigenvalues --  -19.18910 -19.18242 -19.14387 -19.13421 -19.09856
 Alpha  occ. eigenvalues --  -19.09672 -14.37678 -14.36886 -14.35356 -14.27769
 Alpha  occ. eigenvalues --  -10.33943 -10.32345 -10.28485 -10.25277 -10.24773
 Alpha  occ. eigenvalues --  -10.24560 -10.24017 -10.22921 -10.22819 -10.22774
 Alpha  occ. eigenvalues --  -10.22505 -10.22481 -10.21843 -10.21505 -10.21450
 Alpha  occ. eigenvalues --  -10.21370 -10.20909 -10.20406 -10.20327 -10.20277
 Alpha  occ. eigenvalues --  -10.20192 -10.20135 -10.19994 -10.19766 -10.19486
 Alpha  occ. eigenvalues --  -10.19358 -10.19354 -10.19344 -10.18909 -10.18814
 Alpha  occ. eigenvalues --  -10.18163 -10.18038 -10.17849  -1.11412  -1.10722
 Alpha  occ. eigenvalues --   -1.02506  -1.01808  -1.01232  -1.01070  -0.97619
 Alpha  occ. eigenvalues --   -0.94861  -0.94176  -0.89256  -0.84119  -0.82472
 Alpha  occ. eigenvalues --   -0.82282  -0.82101  -0.79448  -0.78842  -0.77806
 Alpha  occ. eigenvalues --   -0.77534  -0.77098  -0.75171  -0.74390  -0.73102
 Alpha  occ. eigenvalues --   -0.71950  -0.69653  -0.69358  -0.68502  -0.68063
 Alpha  occ. eigenvalues --   -0.67618  -0.65584  -0.64894  -0.62540  -0.61847
 Alpha  occ. eigenvalues --   -0.61397  -0.60167  -0.58919  -0.58118  -0.56567
 Alpha  occ. eigenvalues --   -0.56311  -0.55412  -0.54538  -0.54255  -0.53543
 Alpha  occ. eigenvalues --   -0.52719  -0.52029  -0.50919  -0.50903  -0.49323
 Alpha  occ. eigenvalues --   -0.49122  -0.48777  -0.48550  -0.48426  -0.48291
 Alpha  occ. eigenvalues --   -0.47781  -0.46889  -0.46040  -0.45906  -0.45538
 Alpha  occ. eigenvalues --   -0.44766  -0.44682  -0.44380  -0.44122  -0.43767
 Alpha  occ. eigenvalues --   -0.43321  -0.43029  -0.42930  -0.42354  -0.41999
 Alpha  occ. eigenvalues --   -0.41872  -0.41505  -0.41070  -0.40833  -0.40788
 Alpha  occ. eigenvalues --   -0.40570  -0.40229  -0.39915  -0.39597  -0.39372
 Alpha  occ. eigenvalues --   -0.39283  -0.38812  -0.38727  -0.38605  -0.38527
 Alpha  occ. eigenvalues --   -0.38255  -0.38092  -0.37847  -0.37301  -0.36839
 Alpha  occ. eigenvalues --   -0.36129  -0.35698  -0.35184  -0.35088  -0.34423
 Alpha  occ. eigenvalues --   -0.34209  -0.33966  -0.33518  -0.33465  -0.33351
 Alpha  occ. eigenvalues --   -0.32590  -0.32304  -0.30723  -0.30299  -0.29661
 Alpha  occ. eigenvalues --   -0.28954  -0.26157  -0.26090  -0.25669  -0.25061
 Alpha  occ. eigenvalues --   -0.24571  -0.24245  -0.23470  -0.22941  -0.21291
 Alpha  occ. eigenvalues --   -0.18948
 Alpha virt. eigenvalues --   -0.10547  -0.05746  -0.03908  -0.01933   0.00599
 Alpha virt. eigenvalues --    0.00757   0.01299   0.02787   0.03282   0.04272
 Alpha virt. eigenvalues --    0.04625   0.04868   0.05217   0.05299   0.05885

 Mulliken charges:
               1
     1  O   -0.289114
     2  O   -0.170572
     3  O   -0.160780
     4  O   -0.244689
     5  O   -0.188381
     6  O   -0.197960
     7  N   -0.167950
     8  N   -0.145119
     9  N   -0.030320
    10  N   -0.365797
    11  C   -0.089883
    12  C    0.134228
    13  C   -0.192080
    14  C    0.105272
    15  C   -0.076135
    16  C    0.038411
    17  C   -0.022830
    18  C   -0.165230
    19  C    0.094623
    20  C   -0.029806
    21  C    0.060498
    22  C    0.116236
    23  C    0.084159
    24  C    0.129347
    25  C   -0.152866
    26  C    0.015583
    27  C    0.124745
    28  C   -0.012148
    29  C   -0.049481
    30  C    0.170416
    31  C   -0.086368
    32  C    0.013684
    33  C   -0.196295
    34  C    0.183161
    35  C   -0.112241
    36  C   -0.168228
    37  C    0.122028
    38  C   -0.024018
    39  C    0.117612
    40  C   -0.039813
    41  C    0.151623
    42  C    0.194146
    43  C    0.015597
    44  H    0.196190
    45  H   -0.018923
    46  H    0.023912
    47  H    0.035645
    48  H    0.032843
    49  H    0.013834
    50  H   -0.016621
    51  H    0.077435
    52  H    0.111155
    53  H    0.059574
    54  H    0.053686
    55  H    0.005137
    56  H    0.091422
    57  H    0.049905
    58  H    0.053483
    59  H    0.051623
    60  H    0.052242
    61  H    0.025843
    62  H    0.028292
    63  H    0.013015
    64  H   -0.102252
    65  H    0.011268
    66  H    0.072645
    67  H   -0.020435
    68  H   -0.003017
    69  H    0.085530
    70  H    0.017790
    71  H    0.061928
    72  H    0.008793
    73  H    0.021538
    74  H    0.011843
    75  H   -0.043350
    76  H    0.001370
    77  H    0.045579
    78  H    0.033116
    79  H    0.026353
    80  H    0.176925
    81  H    0.161421
 Sum of Mulliken charges =  -0.00000

 Dipole moment (field-independent basis, Debye):
    X=             -4.4236    Y=              1.5504    Z=             -0.3400  Tot=              4.6997
 Quadrupole moment (field-independent basis, Debye-Ang):
   XX=           -247.9656   YY=           -241.6299   ZZ=           -255.3626
   XY=             21.5017   XZ=             20.5356   YZ=            -14.3993

 Normal termination of Gaussian 16 at Fri Jun 28 03:13:21 2019.
