 Gaussian 16, Revision A.03,
 Gaussian 16:  ES64L-G16RevA.03 25-Dec-2016

 --------------------------
 # td=(NStates=1) B3LYP/SVP
 --------------------------

 --
 TD
 --
 Symbolic Z-matrix:
 Charge =  0 Multiplicity = 1

                         Standard orientation:
 ---------------------------------------------------------------------
 Center     Atomic      Atomic             Coordinates (Angstroms)
 Number     Number       Type             X           Y           Z
 ---------------------------------------------------------------------
      1          8           0        4.625823   -4.744191   -1.910911
      2          8           0       -2.731043   -4.803640   -1.263028
      3          8           0       -7.072511   -1.467528   -1.764541
      4          8           0       -3.658659   -3.104094   -0.117486
      5          8           0       -7.632336   -0.503180    0.181607
      6          8           0        3.069973    2.545501    0.400003
      7          7           0        0.245046   -0.558856    0.627731
      8          7           0       -1.499682    1.780327    0.214258
      9          7           0        3.425080   -3.127601   -0.571169
     10          7           0        0.755083    2.834011   -0.002726
     11          6           0       -0.749826   -2.432156    1.502694
     12          6           0       -0.983166   -1.063159    1.021049
     13          6           0        0.594877   -2.728854    1.217680
     14          6           0        1.211847   -1.548891    0.695031
     15          6           0       -3.753037    1.432038    0.273631
     16          6           0       -2.419086    0.882788    0.462343
     17          6           0       -2.193053   -0.408477    0.989501
     18          6           0       -3.515470    2.744855   -0.097348
     19          6           0       -1.760162   -3.438672    2.036890
     20          6           0        5.538329   -2.592924   -1.352059
     21          6           0        3.654926   -1.885004   -0.154357
     22          6           0       -2.102665    2.907708   -0.061604
     23          6           0        5.068575   -1.585679   -0.387419
     24          6           0       -5.086296    0.678413    0.374050
     25          6           0        2.598138   -1.168553    0.455146
     26          6           0        1.324318   -3.916656    1.761489
     27          6           0        4.464233   -3.644288   -1.347577
     28          6           0       -2.131568   -4.486634    0.932495
     29          6           0       -5.437608   -0.131701   -0.880481
     30          6           0       -4.402847    3.775053   -0.532481
     31          6           0       -1.306453    4.090889   -0.362821
     32          6           0        6.969421   -3.197875   -1.318640
     33          6           0        5.808468   -0.593902    0.290186
     34          6           0        0.019632    3.957604   -0.345297
     35          6           0        0.951996    5.158536   -0.516065
     36          6           0        2.220375    4.671581   -0.309532
     37          6           0       -2.945903   -4.096050   -0.199489
     38          6           0        5.418725    0.420295    1.186546
     39          6           0       -6.857516   -0.691865   -0.685570
     40          6           0        3.512105    5.559726   -0.342519
     41          6           0        2.149670    3.200641    0.021439
     42          6           0        0.496693    6.497143   -0.805780
     43          6           0        4.311213    5.703014    1.097579
     44          1           0        0.532477    0.174820    0.146034
     45          1           0       -3.094133   -0.980750    1.160609
     46          1           0       -2.573534   -2.958308    2.440798
     47          1           0       -1.159616   -3.940410    2.770007
     48          1           0        5.404868   -2.311627   -2.423383
     49          1           0       -4.820174   -0.091848    1.206125
     50          1           0       -5.892083    1.292130    0.551483
     51          1           0        2.839085   -0.117435    0.683842
     52          1           0       -0.491259    1.768562    0.523057
     53          1           0        1.369981   -4.936444    1.071510
     54          1           0        2.344348   -3.791702    1.897033
     55          1           0        0.975952   -4.182079    2.756128
     56          1           0        2.525302   -3.442772   -0.734182
     57          1           0       -1.249348   -4.983527    0.733001
     58          1           0       -2.787951   -5.267949    1.257652
     59          1           0       -4.685994   -0.951207   -1.008812
     60          1           0       -5.431860    0.623921   -1.843645
     61          1           0       -4.464115    4.682385    0.088085
     62          1           0       -5.495110    3.422281   -0.426498
     63          1           0       -4.386497    3.861193   -1.683372
     64          1           0       -1.994854    5.106575   -0.056658
     65          1           0        7.521708   -2.271139   -1.326247
     66          1           0        7.077859   -4.138549   -1.848749
     67          1           0        7.286698   -3.429744   -0.220287
     68          1           0        6.776841   -0.559277   -0.046120
     69          1           0        4.675723    1.265915    0.853887
     70          1           0        6.258366    0.812306    1.742488
     71          1           0        4.571588    0.074204    1.906856
     72          1           0        3.239275    6.538819   -0.555058
     73          1           0        4.254688    5.316911   -1.197920
     74          1           0        0.066856    6.612786   -1.782117
     75          1           0        1.327572    7.145023   -1.140053
     76          1           0       -0.043871    6.937916    0.077924
     77          1           0        3.812311    6.418484    1.744661
     78          1           0        5.276484    6.071439    0.792546
     79          1           0        4.478715    4.607354    1.527517
     80          1           0       -3.504027   -4.484917   -1.890882
     81          1           0       -7.844285   -2.185106   -1.541344
 ---------------------------------------------------------------------

 SCF Done:  E(RB3LYP) =  -1949.12578951     A.U. after   17 cycles

 Excitation energies and oscillator strengths:

 Excited State   1:      Singlet-A      1.8884 eV  656.56 nm  f=0.4017  <S**2>=0.000
     156 ->157         0.70630
     156 <-157        -0.11915
 This state for optimization and/or second-order correction.
 Total Energy, E(TD-HF/TD-DFT) =  -1949.05639226
 Copying the excited state density for this state as the 1-particle RhoCI density.

 The electronic state is 1-A.
 Alpha  occ. eigenvalues --  -19.21729 -19.18210 -19.13681 -19.13410 -19.11580
 Alpha  occ. eigenvalues --  -19.09989 -14.37687 -14.37652 -14.35520 -14.27723
 Alpha  occ. eigenvalues --  -10.33305 -10.31831 -10.29558 -10.25871 -10.24883
 Alpha  occ. eigenvalues --  -10.24450 -10.23739 -10.22444 -10.22318 -10.21257
 Alpha  occ. eigenvalues --  -10.21214 -10.21040 -10.20977 -10.20918 -10.20801
 Alpha  occ. eigenvalues --  -10.20609 -10.20490 -10.20431 -10.20234 -10.20211
 Alpha  occ. eigenvalues --  -10.20002 -10.19994 -10.19798 -10.19653 -10.19186
 Alpha  occ. eigenvalues --  -10.18629 -10.18608 -10.18543 -10.18470 -10.18316
 Alpha  occ. eigenvalues --  -10.18258 -10.17904 -10.17764  -1.13128  -1.09652
 Alpha  occ. eigenvalues --   -1.03183  -1.02139  -1.02136  -1.01182  -1.01016
 Alpha  occ. eigenvalues --   -0.98940  -0.97596  -0.88870  -0.83504  -0.82545
 Alpha  occ. eigenvalues --   -0.82040  -0.81476  -0.79531  -0.78604  -0.77909
 Alpha  occ. eigenvalues --   -0.77471  -0.76539  -0.75074  -0.73348  -0.72346
 Alpha  occ. eigenvalues --   -0.71324  -0.70805  -0.70638  -0.68562  -0.67665
 Alpha  occ. eigenvalues --   -0.66779  -0.65858  -0.64790  -0.62043  -0.61875
 Alpha  occ. eigenvalues --   -0.60314  -0.59068  -0.58874  -0.58624  -0.57824
 Alpha  occ. eigenvalues --   -0.56678  -0.55880  -0.55327  -0.54886  -0.53860
 Alpha  occ. eigenvalues --   -0.53159  -0.51527  -0.51430  -0.50928  -0.50365
 Alpha  occ. eigenvalues --   -0.49772  -0.49381  -0.49131  -0.48167  -0.47908
 Alpha  occ. eigenvalues --   -0.47489  -0.46761  -0.46178  -0.45927  -0.45371
 Alpha  occ. eigenvalues --   -0.45222  -0.44789  -0.44630  -0.44308  -0.43772
 Alpha  occ. eigenvalues --   -0.43514  -0.43305  -0.43162  -0.42766  -0.42293
 Alpha  occ. eigenvalues --   -0.42209  -0.42063  -0.41786  -0.41398  -0.41133
 Alpha  occ. eigenvalues --   -0.40886  -0.40576  -0.40308  -0.39723  -0.39579
 Alpha  occ. eigenvalues --   -0.39182  -0.39039  -0.38898  -0.38570  -0.37820
 Alpha  occ. eigenvalues --   -0.37690  -0.37386  -0.37044  -0.36880  -0.36316
 Alpha  occ. eigenvalues --   -0.35893  -0.35864  -0.35166  -0.34899  -0.34831
 Alpha  occ. eigenvalues --   -0.34420  -0.33970  -0.33759  -0.33091  -0.32757
 Alpha  occ. eigenvalues --   -0.32514  -0.32313  -0.31639  -0.30030  -0.29487
 Alpha  occ. eigenvalues --   -0.28928  -0.26848  -0.26769  -0.26212  -0.25432
 Alpha  occ. eigenvalues --   -0.25261  -0.24115  -0.22942  -0.22431  -0.20921
 Alpha  occ. eigenvalues --   -0.17519
 Alpha virt. eigenvalues --   -0.10073  -0.05292  -0.03962  -0.00821  -0.00543
 Alpha virt. eigenvalues --   -0.00011   0.01380   0.02047   0.02659   0.03506
 Alpha virt. eigenvalues --    0.03944   0.04200   0.05368   0.05826   0.06354

 Mulliken charges:
               1
     1  O   -0.240635
     2  O   -0.153752
     3  O   -0.245449
     4  O   -0.255707
     5  O   -0.181360
     6  O   -0.189069
     7  N   -0.021082
     8  N    0.037573
     9  N   -0.037483
    10  N   -0.398137
    11  C   -0.165153
    12  C    0.113711
    13  C   -0.115668
    14  C    0.040640
    15  C   -0.081581
    16  C   -0.009323
    17  C   -0.060992
    18  C   -0.123014
    19  C    0.245698
    20  C   -0.060842
    21  C    0.016084
    22  C   -0.022774
    23  C   -0.010467
    24  C    0.131508
    25  C   -0.124335
    26  C    0.047965
    27  C    0.105777
    28  C    0.071602
    29  C   -0.085061
    30  C    0.073319
    31  C   -0.196173
    32  C    0.072198
    33  C   -0.049153
    34  C    0.163136
    35  C   -0.116923
    36  C   -0.165531
    37  C    0.097902
    38  C    0.018491
    39  C    0.151156
    40  C    0.058748
    41  C    0.181367
    42  C    0.139217
    43  C   -0.040862
    44  H    0.085259
    45  H   -0.006026
    46  H   -0.015360
    47  H   -0.013957
    48  H    0.049039
    49  H    0.028864
    50  H   -0.011320
    51  H    0.007466
    52  H    0.157918
    53  H    0.032867
    54  H    0.000056
    55  H    0.021127
    56  H    0.111921
    57  H   -0.006139
    58  H    0.023402
    59  H    0.059616
    60  H    0.059378
    61  H    0.031484
    62  H   -0.009405
    63  H    0.041485
    64  H    0.041369
    65  H    0.006673
    66  H    0.056548
    67  H   -0.002084
    68  H   -0.044786
    69  H    0.108013
    70  H    0.015480
    71  H    0.024878
    72  H   -0.036022
    73  H    0.019146
    74  H    0.005102
    75  H   -0.015107
    76  H    0.042885
    77  H    0.022895
    78  H    0.004312
    79  H    0.053666
    80  H    0.215672
    81  H    0.218118
 Sum of Mulliken charges =  -0.00000

 Dipole moment (field-independent basis, Debye):
    X=             -3.3174    Y=             -1.9815    Z=             -0.1643  Tot=              3.8676
 Quadrupole moment (field-independent basis, Debye-Ang):
   XX=           -253.5564   YY=           -238.1209   ZZ=           -253.9988
   XY=             23.1796   XZ=             13.7588   YZ=            -10.0900

 Normal termination of Gaussian 16 at Thu Jul  4 13:18:55 2019.
