 Gaussian 16, Revision A.03,
 Gaussian 16:  ES64L-G16RevA.03 25-Dec-2016

 --------------------------
 # td=(NStates=1) B3LYP/SVP
 --------------------------

 --
 TD
 --
 Symbolic Z-matrix:
 Charge =  0 Multiplicity = 1

                         Standard orientation:
 ---------------------------------------------------------------------
 Center     Atomic      Atomic             Coordinates (Angstroms)
 Number     Number       Type             X           Y           Z
 ---------------------------------------------------------------------
      1          8           0       -4.511808   -4.777905    1.775735
      2          8           0        2.723920   -4.739680    1.320177
      3          8           0        6.930736   -1.555947    1.970784
      4          8           0        3.589617   -3.142750    0.131919
      5          8           0        7.673128   -0.819794   -0.005707
      6          8           0       -3.039361    2.493139   -0.352789
      7          7           0       -0.240412   -0.595248   -0.544646
      8          7           0        1.552875    1.783562   -0.451125
      9          7           0       -3.414029   -3.145013    0.567840
     10          7           0       -0.716726    2.918321   -0.220826
     11          6           0        0.544538   -2.623597   -1.348336
     12          6           0        0.956332   -1.184827   -0.950981
     13          6           0       -0.743276   -2.742271   -1.311992
     14          6           0       -1.279796   -1.383461   -0.862270
     15          6           0        3.868190    1.423425   -0.397907
     16          6           0        2.525961    0.827491   -0.676781
     17          6           0        2.211312   -0.505629   -0.879320
     18          6           0        3.562916    2.753588   -0.015714
     19          6           0        1.662551   -3.519262   -1.908938
     20          6           0       -5.566910   -2.527114    1.347497
     21          6           0       -3.625504   -1.802128    0.099884
     22          6           0        2.122712    3.001486   -0.194595
     23          6           0       -5.010320   -1.445904    0.447321
     24          6           0        5.134528    0.673340   -0.445063
     25          6           0       -2.562331   -1.041388   -0.420545
     26          6           0       -1.600171   -3.935129   -1.765218
     27          6           0       -4.483433   -3.638836    1.327395
     28          6           0        2.131071   -4.654028   -0.945075
     29          6           0        5.397493   -0.172408    0.861769
     30          6           0        4.598608    3.881839    0.197048
     31          6           0        1.301310    4.162743    0.153948
     32          6           0       -7.007006   -3.048888    1.189146
     33          6           0       -5.706601   -0.418837   -0.077145
     34          6           0       -0.016601    4.068004    0.158856
     35          6           0       -0.876996    5.181724    0.544171
     36          6           0       -2.123562    4.729439    0.323501
     37          6           0        2.828397   -4.083685    0.173326
     38          6           0       -5.507615    0.528994   -1.228569
     39          6           0        6.810426   -0.795975    0.831814
     40          6           0       -3.476265    5.333988    0.554304
     41          6           0       -2.051630    3.299910   -0.064084
     42          6           0       -0.440165    6.560733    0.937210
     43          6           0       -4.189461    5.623735   -0.825626
     44          1           0       -0.314704    0.303555   -0.132749
     45          1           0        3.074044   -1.213949   -0.913891
     46          1           0        2.476655   -3.171858   -2.206378
     47          1           0        1.254335   -4.081638   -2.772002
     48          1           0       -5.566132   -1.940541    2.437429
     49          1           0        4.999098   -0.052358   -1.182489
     50          1           0        5.870142    1.393796   -0.476095
     51          1           0       -2.764348   -0.007077   -0.464690
     52          1           0        0.477482    1.865592   -0.699926
     53          1           0       -1.478580   -4.676472   -1.210293
     54          1           0       -2.674471   -3.606157   -1.770865
     55          1           0       -1.432493   -4.142307   -2.904212
     56          1           0       -2.494189   -3.672177    0.724560
     57          1           0        1.174604   -5.048128   -0.268802
     58          1           0        2.673171   -5.451603   -1.396859
     59          1           0        4.783866   -1.115683    0.946315
     60          1           0        5.379246    0.477968    1.636230
     61          1           0        4.624430    4.601708   -0.606873
     62          1           0        5.629994    3.309734    0.266112
     63          1           0        4.295426    4.717227    1.221420
     64          1           0        1.883957    5.002312    0.455193
     65          1           0       -7.668146   -2.216311    1.407087
     66          1           0       -7.170244   -3.827654    1.921548
     67          1           0       -7.167011   -3.444727    0.251408
     68          1           0       -6.714127   -0.381437    0.469848
     69          1           0       -5.180056    1.459988   -0.955814
     70          1           0       -6.383519    0.771664   -1.888016
     71          1           0       -4.856749    0.271780   -2.088576
     72          1           0       -3.146823    6.291697    1.276301
     73          1           0       -4.204802    4.769671    1.201594
     74          1           0        0.235773    6.589485    2.013126
     75          1           0       -1.220063    7.178631    1.478868
     76          1           0        0.181584    6.906391    0.088406
     77          1           0       -3.690595    6.371786   -1.351997
     78          1           0       -5.338718    5.865732   -0.671818
     79          1           0       -4.049215    4.628525   -1.296046
     80          1           0        3.212800   -4.331788    2.206149
     81          1           0        7.754344   -1.945660    2.102947
 ---------------------------------------------------------------------

 SCF Done:  E(RB3LYP) =  -1949.07148341     A.U. after   23 cycles

 Excitation energies and oscillator strengths:

 Excited State   1:      Singlet-A      1.8616 eV  665.99 nm  f=0.4234  <S**2>=0.000
     156 ->157         0.70600
     156 <-157        -0.12703
 This state for optimization and/or second-order correction.
 Total Energy, E(TD-HF/TD-DFT) =  -1949.00306931
 Copying the excited state density for this state as the 1-particle RhoCI density.

 The electronic state is 1-A.
 Alpha  occ. eigenvalues --  -19.19511 -19.16638 -19.13158 -19.12901 -19.11842
 Alpha  occ. eigenvalues --  -19.08114 -14.39335 -14.37832 -14.35707 -14.28191
 Alpha  occ. eigenvalues --  -10.32878 -10.32043 -10.29968 -10.25762 -10.25092
 Alpha  occ. eigenvalues --  -10.24965 -10.24259 -10.23673 -10.23087 -10.22787
 Alpha  occ. eigenvalues --  -10.22619 -10.22386 -10.21614 -10.21548 -10.21175
 Alpha  occ. eigenvalues --  -10.21043 -10.21029 -10.20995 -10.20938 -10.20937
 Alpha  occ. eigenvalues --  -10.20732 -10.20488 -10.20396 -10.20072 -10.19541
 Alpha  occ. eigenvalues --  -10.19279 -10.19060 -10.18970 -10.18637 -10.18011
 Alpha  occ. eigenvalues --  -10.17859 -10.17743 -10.17397  -1.10686  -1.09062
 Alpha  occ. eigenvalues --   -1.03427  -1.00534  -1.00497  -0.99642  -0.96831
 Alpha  occ. eigenvalues --   -0.95684  -0.94318  -0.89454  -0.83983  -0.82220
 Alpha  occ. eigenvalues --   -0.81947  -0.81049  -0.79869  -0.78814  -0.78244
 Alpha  occ. eigenvalues --   -0.76752  -0.76425  -0.75127  -0.73571  -0.72821
 Alpha  occ. eigenvalues --   -0.71442  -0.70748  -0.70405  -0.68575  -0.67786
 Alpha  occ. eigenvalues --   -0.66968  -0.65702  -0.65257  -0.62284  -0.61899
 Alpha  occ. eigenvalues --   -0.60941  -0.59984  -0.59717  -0.58118  -0.57264
 Alpha  occ. eigenvalues --   -0.55941  -0.55162  -0.54676  -0.53733  -0.53067
 Alpha  occ. eigenvalues --   -0.52370  -0.51679  -0.51024  -0.50715  -0.50426
 Alpha  occ. eigenvalues --   -0.49347  -0.48897  -0.48530  -0.47975  -0.47265
 Alpha  occ. eigenvalues --   -0.47144  -0.46835  -0.46417  -0.46062  -0.45860
 Alpha  occ. eigenvalues --   -0.45311  -0.45011  -0.44341  -0.43934  -0.43616
 Alpha  occ. eigenvalues --   -0.43209  -0.42816  -0.42617  -0.42415  -0.42284
 Alpha  occ. eigenvalues --   -0.41947  -0.41423  -0.41256  -0.40980  -0.40752
 Alpha  occ. eigenvalues --   -0.40456  -0.40299  -0.40161  -0.39663  -0.39143
 Alpha  occ. eigenvalues --   -0.38863  -0.38517  -0.38347  -0.38176  -0.37971
 Alpha  occ. eigenvalues --   -0.37661  -0.37460  -0.37397  -0.36648  -0.36379
 Alpha  occ. eigenvalues --   -0.35914  -0.35734  -0.35371  -0.35087  -0.34813
 Alpha  occ. eigenvalues --   -0.34708  -0.34617  -0.33520  -0.33258  -0.33075
 Alpha  occ. eigenvalues --   -0.32296  -0.32048  -0.30783  -0.29033  -0.28728
 Alpha  occ. eigenvalues --   -0.28238  -0.28009  -0.26926  -0.26893  -0.26326
 Alpha  occ. eigenvalues --   -0.24998  -0.24648  -0.23049  -0.22540  -0.21048
 Alpha  occ. eigenvalues --   -0.17624
 Alpha virt. eigenvalues --   -0.10380  -0.05996  -0.03887  -0.01579  -0.01337
 Alpha virt. eigenvalues --    0.00245   0.00751   0.01174   0.02373   0.02639
 Alpha virt. eigenvalues --    0.03576   0.04115   0.05074   0.05692   0.06130

 Mulliken charges:
               1
     1  O   -0.215016
     2  O   -0.237962
     3  O   -0.195104
     4  O   -0.233989
     5  O   -0.205792
     6  O   -0.319480
     7  N   -0.021248
     8  N   -0.139445
     9  N   -0.192714
    10  N   -0.339830
    11  C   -0.064669
    12  C    0.004719
    13  C   -0.217355
    14  C    0.072749
    15  C   -0.111657
    16  C    0.096646
    17  C   -0.065757
    18  C   -0.129448
    19  C    0.249223
    20  C   -0.143382
    21  C    0.108575
    22  C    0.059469
    23  C   -0.024837
    24  C    0.226456
    25  C   -0.076784
    26  C    0.167704
    27  C    0.149525
    28  C   -0.058458
    29  C   -0.002989
    30  C   -0.022360
    31  C   -0.141988
    32  C    0.124472
    33  C   -0.103587
    34  C    0.196443
    35  C   -0.082320
    36  C   -0.148264
    37  C    0.131563
    38  C    0.103866
    39  C    0.126938
    40  C    0.001129
    41  C    0.188423
    42  C    0.038678
    43  C    0.002318
    44  H    0.123335
    45  H    0.021542
    46  H   -0.063970
    47  H   -0.000619
    48  H    0.069869
    49  H   -0.001706
    50  H   -0.019549
    51  H   -0.007203
    52  H    0.186851
    53  H   -0.037624
    54  H    0.034547
    55  H    0.041742
    56  H    0.160745
    57  H    0.056397
    58  H    0.053782
    59  H    0.075485
    60  H    0.002626
    61  H    0.038822
    62  H    0.038549
    63  H    0.038136
    64  H   -0.047698
    65  H    0.011707
    66  H    0.027334
    67  H    0.000670
    68  H    0.003866
    69  H    0.028350
    70  H    0.001822
    71  H    0.013661
    72  H   -0.005874
    73  H    0.026572
    74  H    0.021490
    75  H    0.031983
    76  H    0.051412
    77  H    0.001825
    78  H    0.023752
    79  H    0.037716
    80  H    0.255069
    81  H    0.150126
 Sum of Mulliken charges =  -0.00000

 Dipole moment (field-independent basis, Debye):
    X=              2.1001    Y=             -2.0843    Z=              0.9690  Tot=              3.1135
 Quadrupole moment (field-independent basis, Debye-Ang):
   XX=           -256.2874   YY=           -244.4957   ZZ=           -248.7282
   XY=             -9.1567   XZ=             14.8051   YZ=             10.9291

 Normal termination of Gaussian 16 at Thu Jun 27 19:50:09 2019.
