 Gaussian 16, Revision A.03,
 Gaussian 16:  ES64L-G16RevA.03 25-Dec-2016

 --------------------------
 # td=(NStates=1) B3LYP/SVP
 --------------------------

 --
 TD
 --
 Symbolic Z-matrix:
 Charge =  0 Multiplicity = 1

                         Standard orientation:
 ---------------------------------------------------------------------
 Center     Atomic      Atomic             Coordinates (Angstroms)
 Number     Number       Type             X           Y           Z
 ---------------------------------------------------------------------
      1          8           0        4.578621   -4.808444   -1.771720
      2          8           0       -2.910478   -4.899158   -1.373240
      3          8           0       -7.048746   -1.517320   -1.841702
      4          8           0       -3.667991   -3.104189   -0.180690
      5          8           0       -7.549036   -0.717472    0.236384
      6          8           0        3.001836    2.482755    0.166061
      7          7           0        0.252742   -0.587228    0.520819
      8          7           0       -1.630838    1.799996    0.407276
      9          7           0        3.458425   -3.182560   -0.591854
     10          7           0        0.750561    2.914395    0.080487
     11          6           0       -0.743161   -2.469995    1.363138
     12          6           0       -1.000347   -1.102156    0.844834
     13          6           0        0.673181   -2.661224    1.221428
     14          6           0        1.260491   -1.452023    0.653294
     15          6           0       -3.857947    1.434821    0.320430
     16          6           0       -2.509165    0.862866    0.666297
     17          6           0       -2.270715   -0.438451    0.849251
     18          6           0       -3.564673    2.748939   -0.094604
     19          6           0       -1.681541   -3.491495    1.883930
     20          6           0        5.649549   -2.605838   -1.289310
     21          6           0        3.563389   -1.783308   -0.182072
     22          6           0       -2.138664    2.955478   -0.030683
     23          6           0        5.037059   -1.495877   -0.372623
     24          6           0       -5.180674    0.717654    0.395689
     25          6           0        2.660699   -1.022953    0.398404
     26          6           0        1.441943   -3.907813    1.711177
     27          6           0        4.559688   -3.732736   -1.213024
     28          6           0       -2.006793   -4.499991    0.869076
     29          6           0       -5.430652   -0.223493   -0.767939
     30          6           0       -4.557382    3.819250   -0.221451
     31          6           0       -1.349714    4.134366   -0.264519
     32          6           0        6.966819   -3.169482   -0.934350
     33          6           0        5.796204   -0.526708    0.210484
     34          6           0        0.071989    4.066582   -0.168609
     35          6           0        0.940805    5.225920   -0.435515
     36          6           0        2.247430    4.710492   -0.247391
     37          6           0       -2.919755   -4.085007   -0.228463
     38          6           0        5.451440    0.397928    1.256280
     39          6           0       -6.780597   -0.763246   -0.750873
     40          6           0        3.545838    5.369255   -0.607017
     41          6           0        2.023840    3.266566    0.044457
     42          6           0        0.465955    6.605977   -0.809614
     43          6           0        4.402532    5.589254    0.762874
     44          1           0        0.340247    0.332457   -0.213913
     45          1           0       -3.154878   -1.083517    1.062693
     46          1           0       -2.483876   -2.928008    2.216717
     47          1           0       -1.094737   -3.966906    2.820855
     48          1           0        5.599710   -2.251180   -2.360421
     49          1           0       -5.428052    0.121327    1.334773
     50          1           0       -5.871134    1.615568    0.367493
     51          1           0        2.797108   -0.044877    0.702180
     52          1           0       -0.648834    1.708707    0.467161
     53          1           0        1.362907   -4.682957    0.930021
     54          1           0        2.405502   -3.525774    1.923454
     55          1           0        1.024097   -4.166519    2.664216
     56          1           0        2.476294   -3.700925   -0.480399
     57          1           0       -0.918672   -4.935431    0.486777
     58          1           0       -2.595377   -5.409585    1.229592
     59          1           0       -4.787868   -1.173175   -0.746662
     60          1           0       -5.266184    0.256914   -1.772448
     61          1           0       -4.541403    4.457030    0.958504
     62          1           0       -5.608917    3.286911   -0.817796
     63          1           0       -4.064261    4.958720   -0.934312
     64          1           0       -1.959379    5.009263   -0.423667
     65          1           0        7.849148   -2.396994   -1.054014
     66          1           0        7.491436   -3.860142   -1.654139
     67          1           0        7.044500   -3.757186    0.125705
     68          1           0        6.817184   -0.248992   -0.174404
     69          1           0        5.392159    1.511607    0.608642
     70          1           0        6.464791    0.711641    1.686159
     71          1           0        4.703500    0.222049    2.157201
     72          1           0        3.350879    6.380870   -1.198875
     73          1           0        4.013305    4.967795   -1.337495
     74          1           0        0.034340    6.681203   -1.708241
     75          1           0        1.295541    7.248745   -0.898659
     76          1           0        0.036310    7.163542   -0.022611
     77          1           0        3.906294    6.121104    1.581070
     78          1           0        5.371858    6.013909    0.697989
     79          1           0        4.542673    4.692204    1.287834
     80          1           0       -3.721223   -4.409852   -1.839433
     81          1           0       -7.827294   -1.862454   -1.467292
 ---------------------------------------------------------------------

 SCF Done:  E(RB3LYP) =  -1949.03945211     A.U. after   24 cycles

 Excitation energies and oscillator strengths:

 Excited State   1:      Singlet-A      1.9854 eV  624.48 nm  f=0.3529  <S**2>=0.000
     156 ->157         0.70445
     156 <-157        -0.11176
 This state for optimization and/or second-order correction.
 Total Energy, E(TD-HF/TD-DFT) =  -1948.96649043
 Copying the excited state density for this state as the 1-particle RhoCI density.

 The electronic state is 1-A.
 Alpha  occ. eigenvalues --  -19.20318 -19.19164 -19.15789 -19.13239 -19.10477
 Alpha  occ. eigenvalues --  -19.08317 -14.39607 -14.37336 -14.36690 -14.28449
 Alpha  occ. eigenvalues --  -10.34876 -10.32526 -10.28793 -10.25961 -10.24877
 Alpha  occ. eigenvalues --  -10.24573 -10.24401 -10.24262 -10.24217 -10.24012
 Alpha  occ. eigenvalues --  -10.22928 -10.22921 -10.21819 -10.21692 -10.21584
 Alpha  occ. eigenvalues --  -10.21406 -10.21250 -10.20917 -10.20837 -10.20630
 Alpha  occ. eigenvalues --  -10.20308 -10.20263 -10.20140 -10.20085 -10.19979
 Alpha  occ. eigenvalues --  -10.19826 -10.19741 -10.19193 -10.18963 -10.18932
 Alpha  occ. eigenvalues --  -10.18668 -10.17485 -10.16883  -1.11629  -1.09939
 Alpha  occ. eigenvalues --   -1.02738  -1.01130  -1.01084  -1.00039  -0.98815
 Alpha  occ. eigenvalues --   -0.98293  -0.92960  -0.91414  -0.83979  -0.82788
 Alpha  occ. eigenvalues --   -0.82158  -0.80542  -0.79332  -0.79076  -0.78534
 Alpha  occ. eigenvalues --   -0.78004  -0.76533  -0.75385  -0.74487  -0.72814
 Alpha  occ. eigenvalues --   -0.71039  -0.69677  -0.69242  -0.68597  -0.68068
 Alpha  occ. eigenvalues --   -0.67453  -0.65780  -0.63728  -0.63009  -0.61373
 Alpha  occ. eigenvalues --   -0.59902  -0.59285  -0.58533  -0.57255  -0.56440
 Alpha  occ. eigenvalues --   -0.55560  -0.55067  -0.54501  -0.53509  -0.52572
 Alpha  occ. eigenvalues --   -0.51971  -0.51598  -0.51198  -0.50910  -0.50384
 Alpha  occ. eigenvalues --   -0.50087  -0.49952  -0.49478  -0.49027  -0.47883
 Alpha  occ. eigenvalues --   -0.47419  -0.46856  -0.46388  -0.46121  -0.45708
 Alpha  occ. eigenvalues --   -0.45512  -0.45103  -0.45016  -0.43938  -0.43685
 Alpha  occ. eigenvalues --   -0.43308  -0.43231  -0.42988  -0.42688  -0.42319
 Alpha  occ. eigenvalues --   -0.41963  -0.41705  -0.41590  -0.41068  -0.41001
 Alpha  occ. eigenvalues --   -0.40717  -0.40645  -0.39900  -0.39662  -0.39576
 Alpha  occ. eigenvalues --   -0.39169  -0.38923  -0.38692  -0.38579  -0.38330
 Alpha  occ. eigenvalues --   -0.37867  -0.37548  -0.37424  -0.37061  -0.36501
 Alpha  occ. eigenvalues --   -0.36185  -0.35517  -0.35267  -0.34882  -0.34398
 Alpha  occ. eigenvalues --   -0.34190  -0.34068  -0.33507  -0.33454  -0.32731
 Alpha  occ. eigenvalues --   -0.32681  -0.32236  -0.32096  -0.30901  -0.29641
 Alpha  occ. eigenvalues --   -0.28807  -0.27552  -0.25978  -0.25685  -0.25344
 Alpha  occ. eigenvalues --   -0.25183  -0.24063  -0.23074  -0.22757  -0.21695
 Alpha  occ. eigenvalues --   -0.18385
 Alpha virt. eigenvalues --   -0.10547  -0.05803  -0.03617  -0.03102  -0.01221
 Alpha virt. eigenvalues --    0.00132   0.00679   0.00986   0.01528   0.01956
 Alpha virt. eigenvalues --    0.02710   0.03473   0.04463   0.04647   0.05518

 Mulliken charges:
               1
     1  O   -0.211222
     2  O   -0.244869
     3  O   -0.142489
     4  O   -0.250177
     5  O   -0.281546
     6  O   -0.262849
     7  N   -0.119145
     8  N    0.051970
     9  N   -0.206290
    10  N   -0.238875
    11  C   -0.151126
    12  C    0.039886
    13  C   -0.241747
    14  C    0.026599
    15  C   -0.075912
    16  C    0.049970
    17  C   -0.058761
    18  C   -0.074105
    19  C    0.167134
    20  C   -0.044165
    21  C    0.209881
    22  C    0.042521
    23  C   -0.015127
    24  C    0.072912
    25  C   -0.099586
    26  C    0.131972
    27  C    0.130597
    28  C   -0.007726
    29  C   -0.020938
    30  C   -0.153263
    31  C   -0.096235
    32  C   -0.006564
    33  C   -0.145937
    34  C    0.102170
    35  C   -0.149839
    36  C   -0.149680
    37  C    0.164990
    38  C    0.004950
    39  C    0.138969
    40  C    0.141263
    41  C    0.110565
    42  C    0.240646
    43  C    0.026042
    44  H    0.211480
    45  H    0.020081
    46  H   -0.014221
    47  H    0.033056
    48  H    0.049020
    49  H    0.043180
    50  H    0.017759
    51  H   -0.001542
    52  H    0.093607
    53  H    0.046940
    54  H    0.023332
    55  H    0.006476
    56  H    0.162836
    57  H    0.069124
    58  H    0.062667
    59  H    0.083015
    60  H    0.034914
    61  H    0.080156
    62  H    0.082649
    63  H    0.040529
    64  H   -0.038868
    65  H    0.011584
    66  H    0.022587
    67  H    0.038974
    68  H    0.010605
    69  H    0.077261
    70  H    0.007022
    71  H    0.065066
    72  H   -0.007388
    73  H   -0.044906
    74  H   -0.008010
    75  H   -0.038018
    76  H    0.002997
    77  H   -0.004607
    78  H   -0.005238
    79  H    0.002440
    80  H    0.216711
    81  H    0.141871
 Sum of Mulliken charges =  -0.00000

 Dipole moment (field-independent basis, Debye):
    X=             -2.5943    Y=              0.4060    Z=              0.5883  Tot=              2.6910
 Quadrupole moment (field-independent basis, Debye-Ang):
   XX=           -258.4495   YY=           -246.2131   ZZ=           -254.7108
   XY=             19.6925   XZ=             13.6621   YZ=            -16.4404

 Normal termination of Gaussian 16 at Sat Jun 29 21:39:42 2019.
