 Gaussian 16, Revision A.03,
 Gaussian 16:  ES64L-G16RevA.03 25-Dec-2016

 --------------------------
 # td=(NStates=1) B3LYP/SVP
 --------------------------

 --
 TD
 --
 Symbolic Z-matrix:
 Charge =  0 Multiplicity = 1

                         Standard orientation:
 ---------------------------------------------------------------------
 Center     Atomic      Atomic             Coordinates (Angstroms)
 Number     Number       Type             X           Y           Z
 ---------------------------------------------------------------------
      1          8           0       -4.360064   -4.664639    1.944857
      2          8           0        2.787511   -4.998786    1.118883
      3          8           0        7.030962   -1.411033    1.986814
      4          8           0        3.667713   -3.294904   -0.028474
      5          8           0        7.553891   -0.604655   -0.112700
      6          8           0       -3.059209    2.566270   -0.394845
      7          7           0       -0.347776   -0.614153   -0.537362
      8          7           0        1.554682    1.731392   -0.415395
      9          7           0       -3.452903   -3.038775    0.646642
     10          7           0       -0.750382    2.975634   -0.189148
     11          6           0        0.655690   -2.430834   -1.458129
     12          6           0        0.949056   -1.183145   -0.938335
     13          6           0       -0.759538   -2.649145   -1.335185
     14          6           0       -1.349688   -1.549969   -0.695609
     15          6           0        3.704220    1.392067   -0.282753
     16          6           0        2.522351    0.829959   -0.587607
     17          6           0        2.160588   -0.532158   -0.881011
     18          6           0        3.657462    2.681574    0.088107
     19          6           0        1.557296   -3.449988   -2.016097
     20          6           0       -5.578926   -2.593359    1.523150
     21          6           0       -3.622018   -1.801281    0.145834
     22          6           0        2.127846    2.978859   -0.005453
     23          6           0       -5.104836   -1.525548    0.433874
     24          6           0        5.097542    0.645841   -0.390345
     25          6           0       -2.723504   -1.028783   -0.424138
     26          6           0       -1.465697   -4.054173   -1.632780
     27          6           0       -4.388159   -3.565949    1.500474
     28          6           0        1.936981   -4.648422   -1.065740
     29          6           0        5.397334   -0.202556    0.827319
     30          6           0        4.631617    3.718451    0.342994
     31          6           0        1.361879    4.110388    0.303158
     32          6           0       -6.911712   -3.166083    1.181943
     33          6           0       -5.865010   -0.485403   -0.165822
     34          6           0       -0.017479    3.995588    0.191241
     35          6           0       -0.881045    5.155174    0.561551
     36          6           0       -2.123959    4.822900    0.293036
     37          6           0        2.920435   -4.269064    0.038063
     38          6           0       -5.545970    0.497830   -1.278689
     39          6           0        6.804878   -0.768543    0.859742
     40          6           0       -3.431099    5.469301    0.467873
     41          6           0       -2.075715    3.354307   -0.133069
     42          6           0       -0.314676    6.614861    0.822985
     43          6           0       -4.143390    5.873669   -0.889796
     44          1           0       -0.491817    0.258749    0.000114
     45          1           0        3.168016   -1.140808   -1.122574
     46          1           0        2.489742   -2.988616   -2.129430
     47          1           0        1.010116   -3.734283   -3.007198
     48          1           0       -5.466455   -2.156703    2.481607
     49          1           0        5.276732    0.088055   -1.311407
     50          1           0        5.805646    1.501879   -0.562685
     51          1           0       -2.808729    0.081943   -0.364605
     52          1           0        0.548498    1.816073   -0.805319
     53          1           0       -1.343878   -4.865109   -1.215845
     54          1           0       -2.569331   -3.814330   -1.800087
     55          1           0       -1.183808   -4.392325   -2.550608
     56          1           0       -2.516042   -3.459594    0.624674
     57          1           0        1.008128   -4.988481   -0.626504
     58          1           0        2.063403   -5.688869   -1.437961
     59          1           0        4.887406   -1.198117    0.936559
     60          1           0        5.051499    0.474758    1.695848
     61          1           0        4.603722    4.635455   -0.298323
     62          1           0        5.718837    3.286478    0.510410
     63          1           0        4.272020    4.233673    1.428491
     64          1           0        1.859007    5.158923    0.676036
     65          1           0       -7.587272   -2.312287    1.396722
     66          1           0       -7.132723   -3.917704    2.056546
     67          1           0       -6.996217   -3.763764    0.221547
     68          1           0       -6.898079   -0.499014    0.107903
     69          1           0       -5.213106    1.426084   -0.865282
     70          1           0       -6.534417    0.715233   -1.615533
     71          1           0       -4.836342    0.115312   -2.113346
     72          1           0       -3.430067    6.360742    1.169782
     73          1           0       -3.988938    4.748915    1.016073
     74          1           0        0.525289    6.544611    1.698536
     75          1           0       -1.178124    7.305940    0.765873
     76          1           0        0.246112    7.077141    0.055420
     77          1           0       -3.697406    6.725984   -1.369630
     78          1           0       -5.183447    6.151552   -0.866259
     79          1           0       -3.967265    4.952924   -1.702178
     80          1           0        3.384925   -4.616701    1.727573
     81          1           0        8.016068   -1.658619    2.140913
 ---------------------------------------------------------------------

 SCF Done:  E(RB3LYP) =  -1949.10202534     A.U. after   17 cycles

 Excitation energies and oscillator strengths:

 Excited State   1:      Singlet-A      1.9750 eV  627.77 nm  f=0.4229  <S**2>=0.000
     156 ->157         0.70588
     156 <-157        -0.12727
 This state for optimization and/or second-order correction.
 Total Energy, E(TD-HF/TD-DFT) =  -1949.02944525
 Copying the excited state density for this state as the 1-particle RhoCI density.

 The electronic state is 1-A.
 Alpha  occ. eigenvalues --  -19.20726 -19.19787 -19.14310 -19.11923 -19.11347
 Alpha  occ. eigenvalues --  -19.09932 -14.37140 -14.36825 -14.35734 -14.28741
 Alpha  occ. eigenvalues --  -10.34137 -10.31972 -10.28921 -10.26424 -10.24391
 Alpha  occ. eigenvalues --  -10.23909 -10.23691 -10.23254 -10.22214 -10.22055
 Alpha  occ. eigenvalues --  -10.22053 -10.22024 -10.21948 -10.21108 -10.20645
 Alpha  occ. eigenvalues --  -10.20504 -10.20244 -10.20232 -10.20217 -10.20215
 Alpha  occ. eigenvalues --  -10.20181 -10.19982 -10.19847 -10.19735 -10.19518
 Alpha  occ. eigenvalues --  -10.19158 -10.18971 -10.18682 -10.18431 -10.18384
 Alpha  occ. eigenvalues --  -10.18312 -10.18099 -10.17721  -1.13665  -1.09619
 Alpha  occ. eigenvalues --   -1.05369  -1.02189  -0.99627  -0.98292  -0.97492
 Alpha  occ. eigenvalues --   -0.96773  -0.95910  -0.91860  -0.82681  -0.81617
 Alpha  occ. eigenvalues --   -0.80580  -0.80314  -0.79330  -0.78556  -0.77593
 Alpha  occ. eigenvalues --   -0.76711  -0.76608  -0.74584  -0.73936  -0.72804
 Alpha  occ. eigenvalues --   -0.71771  -0.69923  -0.69179  -0.68327  -0.67672
 Alpha  occ. eigenvalues --   -0.67363  -0.65296  -0.64103  -0.62920  -0.62575
 Alpha  occ. eigenvalues --   -0.61538  -0.60010  -0.59245  -0.58016  -0.57171
 Alpha  occ. eigenvalues --   -0.56139  -0.54666  -0.54349  -0.53297  -0.52811
 Alpha  occ. eigenvalues --   -0.52659  -0.51934  -0.51213  -0.50782  -0.49593
 Alpha  occ. eigenvalues --   -0.49012  -0.48665  -0.48395  -0.48001  -0.47744
 Alpha  occ. eigenvalues --   -0.47009  -0.46516  -0.45918  -0.45283  -0.44899
 Alpha  occ. eigenvalues --   -0.44628  -0.43939  -0.43789  -0.43484  -0.43278
 Alpha  occ. eigenvalues --   -0.43198  -0.43088  -0.42549  -0.42281  -0.42025
 Alpha  occ. eigenvalues --   -0.41693  -0.41214  -0.41036  -0.40791  -0.40327
 Alpha  occ. eigenvalues --   -0.40169  -0.39933  -0.39589  -0.39333  -0.39066
 Alpha  occ. eigenvalues --   -0.38877  -0.38556  -0.38404  -0.38303  -0.38071
 Alpha  occ. eigenvalues --   -0.37896  -0.37745  -0.37563  -0.37345  -0.36994
 Alpha  occ. eigenvalues --   -0.36290  -0.35556  -0.35398  -0.34824  -0.34658
 Alpha  occ. eigenvalues --   -0.34301  -0.33993  -0.33356  -0.32679  -0.32456
 Alpha  occ. eigenvalues --   -0.32145  -0.32047  -0.31762  -0.30121  -0.29496
 Alpha  occ. eigenvalues --   -0.27277  -0.26638  -0.26534  -0.26253  -0.25311
 Alpha  occ. eigenvalues --   -0.24979  -0.24531  -0.23906  -0.23585  -0.21887
 Alpha  occ. eigenvalues --   -0.17684
 Alpha virt. eigenvalues --   -0.10122  -0.05629  -0.03476  -0.01701   0.00556
 Alpha virt. eigenvalues --    0.00604   0.02492   0.02627   0.03225   0.03382
 Alpha virt. eigenvalues --    0.03723   0.04972   0.05034   0.05690   0.06324

 Mulliken charges:
               1
     1  O   -0.175031
     2  O   -0.101526
     3  O   -0.191422
     4  O   -0.246111
     5  O   -0.256396
     6  O   -0.274740
     7  N   -0.163166
     8  N   -0.136712
     9  N   -0.081665
    10  N   -0.248973
    11  C   -0.116157
    12  C    0.161721
    13  C   -0.167879
    14  C    0.037554
    15  C   -0.108046
    16  C    0.038483
    17  C   -0.117539
    18  C   -0.065105
    19  C    0.148665
    20  C   -0.027170
    21  C    0.125518
    22  C    0.081060
    23  C   -0.083527
    24  C    0.100968
    25  C   -0.129096
    26  C    0.185460
    27  C    0.073233
    28  C    0.014361
    29  C   -0.042665
    30  C   -0.001963
    31  C   -0.180680
    32  C    0.045970
    33  C   -0.144724
    34  C    0.087735
    35  C   -0.109491
    36  C   -0.158694
    37  C    0.124845
    38  C    0.102224
    39  C    0.153941
    40  C    0.101459
    41  C    0.159594
    42  C    0.062001
    43  C   -0.031821
    44  H    0.148014
    45  H    0.061602
    46  H   -0.008443
    47  H    0.042169
    48  H    0.024415
    49  H    0.009342
    50  H    0.007579
    51  H    0.048875
    52  H    0.179231
    53  H   -0.039507
    54  H    0.031304
    55  H   -0.046300
    56  H    0.133619
    57  H    0.001854
    58  H    0.034596
    59  H    0.053495
    60  H    0.044482
    61  H    0.046554
    62  H    0.048644
    63  H    0.032095
    64  H    0.023150
    65  H    0.028819
    66  H    0.026926
    67  H    0.043712
    68  H   -0.015441
    69  H    0.051534
    70  H   -0.009436
    71  H    0.053013
    72  H   -0.001700
    73  H    0.005972
    74  H    0.040723
    75  H    0.016964
    76  H    0.008582
    77  H   -0.001958
    78  H    0.010438
    79  H    0.042931
    80  H    0.162350
    81  H    0.215307
 Sum of Mulliken charges =  -0.00000

 Dipole moment (field-independent basis, Debye):
    X=              2.7452    Y=             -0.8117    Z=              1.6996  Tot=              3.3292
 Quadrupole moment (field-independent basis, Debye-Ang):
   XX=           -246.8524   YY=           -233.7591   ZZ=           -252.4833
   XY=            -12.5141   XZ=             21.0735   YZ=              9.0009

 Normal termination of Gaussian 16 at Thu Jul  4 17:57:56 2019.
