 Gaussian 16, Revision A.03,
 Gaussian 16:  ES64L-G16RevA.03 25-Dec-2016

 --------------------------
 # td=(NStates=1) B3LYP/SVP
 --------------------------

 --
 TD
 --
 Symbolic Z-matrix:
 Charge =  0 Multiplicity = 1

                         Standard orientation:
 ---------------------------------------------------------------------
 Center     Atomic      Atomic             Coordinates (Angstroms)
 Number     Number       Type             X           Y           Z
 ---------------------------------------------------------------------
      1          8           0       -4.556815   -4.834843    1.823297
      2          8           0        3.018032   -4.791982    1.275430
      3          8           0        7.004434   -1.307407    1.881604
      4          8           0        3.799959   -3.047335    0.143686
      5          8           0        7.479135   -0.670278   -0.292206
      6          8           0       -2.958695    2.164927   -0.413927
      7          7           0       -0.265253   -0.552514   -0.707253
      8          7           0        1.448730    1.809858   -0.385098
      9          7           0       -3.330340   -3.187613    0.618917
     10          7           0       -0.719432    2.933680   -0.263195
     11          6           0        0.719153   -2.529568   -1.443783
     12          6           0        0.954899   -1.180656   -0.963268
     13          6           0       -0.713912   -2.680083   -1.284786
     14          6           0       -1.226624   -1.422062   -0.794089
     15          6           0        3.765749    1.505416   -0.269437
     16          6           0        2.529182    0.754127   -0.564731
     17          6           0        2.204596   -0.509279   -0.868086
     18          6           0        3.517342    2.877735    0.149305
     19          6           0        1.711498   -3.431287   -1.906158
     20          6           0       -5.440666   -2.490238    1.547053
     21          6           0       -3.616746   -1.918989    0.100662
     22          6           0        1.987311    3.002771    0.016166
     23          6           0       -4.977648   -1.625148    0.445400
     24          6           0        5.061137    0.903084   -0.335585
     25          6           0       -2.556802   -1.123146   -0.361199
     26          6           0       -1.457879   -3.884626   -1.830334
     27          6           0       -4.372559   -3.593352    1.421542
     28          6           0        2.231718   -4.496703   -0.929869
     29          6           0        5.434391    0.129507    0.914190
     30          6           0        4.480191    3.853898    0.561253
     31          6           0        1.184612    4.197986    0.212244
     32          6           0       -6.841191   -2.969488    1.444151
     33          6           0       -5.621590   -0.596063   -0.150463
     34          6           0       -0.128512    4.042554    0.103013
     35          6           0       -1.122133    5.046183    0.483764
     36          6           0       -2.375830    4.519041    0.222473
     37          6           0        3.068770   -4.004840    0.169732
     38          6           0       -5.402089    0.199299   -1.444251
     39          6           0        6.701691   -0.579412    0.773463
     40          6           0       -3.772044    5.213037    0.411924
     41          6           0       -2.120965    3.093611   -0.274794
     42          6           0       -0.791984    6.550043    0.955631
     43          6           0       -4.277067    5.532302   -0.894278
     44          1           0       -0.201916    0.316534    0.036766
     45          1           0        2.951593   -1.202961   -1.001229
     46          1           0        2.639005   -2.914276   -2.320214
     47          1           0        1.260280   -3.921897   -2.766099
     48          1           0       -5.344589   -1.984199    2.564948
     49          1           0        5.313969    0.091418   -0.986856
     50          1           0        5.862684    1.718766   -0.487408
     51          1           0       -2.774254    0.111692   -0.474626
     52          1           0        0.520920    1.857249   -0.598295
     53          1           0       -1.397051   -4.846320   -1.056571
     54          1           0       -2.598622   -3.641679   -2.066568
     55          1           0       -1.111861   -4.325859   -2.769313
     56          1           0       -2.603948   -3.952405    0.511171
     57          1           0        1.297240   -4.819263   -0.431210
     58          1           0        2.794762   -5.241418   -1.519957
     59          1           0        4.651774   -0.619630    1.166371
     60          1           0        5.438878    0.935678    1.702475
     61          1           0        4.349957    4.641612   -0.113815
     62          1           0        5.599476    3.353022    0.488316
     63          1           0        4.418006    4.362510    1.606437
     64          1           0        1.685103    5.154010    0.421068
     65          1           0       -7.548245   -2.165856    1.716124
     66          1           0       -6.837665   -3.763531    2.078430
     67          1           0       -7.102338   -3.178493    0.361360
     68          1           0       -6.680349   -0.442179    0.207493
     69          1           0       -4.783261    1.281977   -1.205352
     70          1           0       -6.229644    0.534771   -1.895435
     71          1           0       -4.736266   -0.355726   -1.954047
     72          1           0       -3.623270    6.176983    1.110995
     73          1           0       -4.379618    4.363039    0.895496
     74          1           0       -0.167078    6.556687    1.890435
     75          1           0       -1.652893    6.975537    1.033327
     76          1           0       -0.071366    7.072551    0.150534
     77          1           0       -3.638597    6.298324   -1.416811
     78          1           0       -5.151194    5.996065   -0.702994
     79          1           0       -4.390620    4.506075   -1.615522
     80          1           0        3.811309   -4.522090    1.842947
     81          1           0        7.789363   -1.849171    1.709829
 ---------------------------------------------------------------------

 SCF Done:  E(RB3LYP) =  -1949.07011408     A.U. after   18 cycles

 Excitation energies and oscillator strengths:

 Excited State   1:      Singlet-A      1.9283 eV  642.98 nm  f=0.3412  <S**2>=0.000
     156 ->157         0.70354
 This state for optimization and/or second-order correction.
 Total Energy, E(TD-HF/TD-DFT) =  -1948.99925111
 Copying the excited state density for this state as the 1-particle RhoCI density.

 The electronic state is 1-A.
 Alpha  occ. eigenvalues --  -19.19704 -19.19259 -19.14636 -19.12861 -19.10877
 Alpha  occ. eigenvalues --  -19.09861 -14.38612 -14.37536 -14.35534 -14.27694
 Alpha  occ. eigenvalues --  -10.33644 -10.33358 -10.28760 -10.27247 -10.25417
 Alpha  occ. eigenvalues --  -10.24622 -10.24176 -10.23926 -10.23145 -10.22432
 Alpha  occ. eigenvalues --  -10.22305 -10.21809 -10.21658 -10.21425 -10.21403
 Alpha  occ. eigenvalues --  -10.21336 -10.21133 -10.20822 -10.20758 -10.20653
 Alpha  occ. eigenvalues --  -10.20574 -10.20210 -10.20165 -10.19842 -10.19669
 Alpha  occ. eigenvalues --  -10.19532 -10.19507 -10.19504 -10.19001 -10.18582
 Alpha  occ. eigenvalues --  -10.18016 -10.17468 -10.17418  -1.11250  -1.08793
 Alpha  occ. eigenvalues --   -1.01958  -0.99913  -0.99793  -0.99504  -0.96412
 Alpha  occ. eigenvalues --   -0.95689  -0.92893  -0.91646  -0.84147  -0.83738
 Alpha  occ. eigenvalues --   -0.82434  -0.81365  -0.79419  -0.78999  -0.78503
 Alpha  occ. eigenvalues --   -0.77770  -0.76665  -0.75311  -0.74404  -0.73156
 Alpha  occ. eigenvalues --   -0.72161  -0.70489  -0.69250  -0.68774  -0.68194
 Alpha  occ. eigenvalues --   -0.67463  -0.65343  -0.64783  -0.62328  -0.61261
 Alpha  occ. eigenvalues --   -0.60970  -0.59373  -0.58773  -0.56919  -0.56491
 Alpha  occ. eigenvalues --   -0.56022  -0.55598  -0.54709  -0.53840  -0.53060
 Alpha  occ. eigenvalues --   -0.52311  -0.52185  -0.51546  -0.51461  -0.50818
 Alpha  occ. eigenvalues --   -0.49789  -0.49509  -0.49037  -0.47993  -0.47839
 Alpha  occ. eigenvalues --   -0.47644  -0.47080  -0.46611  -0.45937  -0.45356
 Alpha  occ. eigenvalues --   -0.45079  -0.44581  -0.44359  -0.44309  -0.43734
 Alpha  occ. eigenvalues --   -0.43345  -0.43007  -0.42802  -0.42607  -0.42267
 Alpha  occ. eigenvalues --   -0.42167  -0.42031  -0.41703  -0.41492  -0.40886
 Alpha  occ. eigenvalues --   -0.40613  -0.40508  -0.40482  -0.40136  -0.39581
 Alpha  occ. eigenvalues --   -0.39230  -0.38950  -0.38884  -0.38740  -0.38147
 Alpha  occ. eigenvalues --   -0.38061  -0.37588  -0.37306  -0.37167  -0.36850
 Alpha  occ. eigenvalues --   -0.36170  -0.35714  -0.35389  -0.34712  -0.34610
 Alpha  occ. eigenvalues --   -0.34095  -0.33913  -0.33520  -0.33156  -0.32848
 Alpha  occ. eigenvalues --   -0.32030  -0.31746  -0.31100  -0.30328  -0.29965
 Alpha  occ. eigenvalues --   -0.27864  -0.26672  -0.25997  -0.25340  -0.25222
 Alpha  occ. eigenvalues --   -0.24549  -0.24268  -0.23921  -0.23028  -0.21279
 Alpha  occ. eigenvalues --   -0.18074
 Alpha virt. eigenvalues --   -0.10140  -0.06287  -0.04259  -0.03021  -0.01977
 Alpha virt. eigenvalues --   -0.01345   0.00836   0.02214   0.02874   0.03154
 Alpha virt. eigenvalues --    0.03414   0.03955   0.04866   0.05176   0.05613

 Mulliken charges:
               1
     1  O   -0.321738
     2  O   -0.206057
     3  O   -0.178831
     4  O   -0.222376
     5  O   -0.324675
     6  O   -0.252976
     7  N   -0.052227
     8  N   -0.113921
     9  N   -0.127358
    10  N   -0.309873
    11  C   -0.065221
    12  C   -0.024716
    13  C   -0.144213
    14  C    0.066941
    15  C   -0.008746
    16  C    0.167645
    17  C    0.002013
    18  C   -0.104053
    19  C    0.072241
    20  C   -0.022276
    21  C    0.102352
    22  C    0.062138
    23  C   -0.040018
    24  C    0.019803
    25  C   -0.175372
    26  C   -0.041873
    27  C    0.119636
    28  C    0.062563
    29  C   -0.015917
    30  C    0.033226
    31  C   -0.141122
    32  C    0.101255
    33  C   -0.148212
    34  C    0.158230
    35  C   -0.135527
    36  C   -0.205420
    37  C    0.109962
    38  C    0.097137
    39  C    0.192400
    40  C    0.024686
    41  C    0.199806
    42  C    0.145268
    43  C    0.028393
    44  H    0.203054
    45  H   -0.058191
    46  H    0.024830
    47  H   -0.001527
    48  H    0.054305
    49  H    0.013165
    50  H    0.029135
    51  H    0.099762
    52  H    0.082285
    53  H    0.036415
    54  H    0.057503
    55  H    0.027279
    56  H    0.161235
    57  H    0.034765
    58  H    0.060718
    59  H    0.063670
    60  H    0.042408
    61  H    0.021818
    62  H    0.039195
    63  H    0.044993
    64  H   -0.025190
    65  H    0.011198
    66  H    0.010052
    67  H    0.013493
    68  H   -0.009222
    69  H    0.086396
    70  H   -0.015062
    71  H   -0.004550
    72  H    0.026337
    73  H    0.029575
    74  H    0.027307
    75  H   -0.043153
    76  H    0.034831
    77  H    0.009946
    78  H   -0.019099
    79  H    0.055876
    80  H    0.204872
    81  H    0.186594
 Sum of Mulliken charges =  -0.00000

 Dipole moment (field-independent basis, Debye):
    X=              3.6220    Y=              1.2428    Z=              0.7274  Tot=              3.8978
 Quadrupole moment (field-independent basis, Debye-Ang):
   XX=           -257.7088   YY=           -239.9873   ZZ=           -255.0754
   XY=            -25.3817   XZ=             20.5247   YZ=             17.4833

 Normal termination of Gaussian 16 at Sun Jun 30 14:51:26 2019.
