 Gaussian 16, Revision A.03,
 Gaussian 16:  ES64L-G16RevA.03 25-Dec-2016

 --------------------------
 # td=(NStates=1) B3LYP/SVP
 --------------------------

 --
 TD
 --
 Symbolic Z-matrix:
 Charge =  0 Multiplicity = 1

                         Standard orientation:
 ---------------------------------------------------------------------
 Center     Atomic      Atomic             Coordinates (Angstroms)
 Number     Number       Type             X           Y           Z
 ---------------------------------------------------------------------
      1          8           0        4.279832   -4.687526   -1.928730
      2          8           0       -3.077560   -4.794170   -1.370581
      3          8           0       -7.040922   -1.634023   -1.686517
      4          8           0       -3.808236   -3.143371   -0.005072
      5          8           0       -7.663604   -0.534716    0.070335
      6          8           0        3.016660    2.384185    0.135076
      7          7           0        0.344465   -0.536798    0.559903
      8          7           0       -1.561536    1.816695    0.348288
      9          7           0        3.405097   -3.086970   -0.645128
     10          7           0        0.704173    2.860917   -0.028577
     11          6           0       -0.486529   -2.372972    1.421875
     12          6           0       -0.778148   -1.115718    1.048582
     13          6           0        0.813511   -2.527108    1.405791
     14          6           0        1.316001   -1.398782    0.703439
     15          6           0       -3.807299    1.411594    0.407575
     16          6           0       -2.468050    0.755048    0.554114
     17          6           0       -2.148071   -0.564256    0.906525
     18          6           0       -3.600431    2.739893    0.026351
     19          6           0       -1.609997   -3.355605    1.815674
     20          6           0        5.566648   -2.663305   -1.399401
     21          6           0        3.649786   -1.829010   -0.152572
     22          6           0       -2.248904    3.013524   -0.049873
     23          6           0        5.124709   -1.481049   -0.422026
     24          6           0       -5.140728    0.554712    0.413287
     25          6           0        2.681098   -1.099565    0.496873
     26          6           0        1.643969   -3.722301    1.921564
     27          6           0        4.448584   -3.690757   -1.294122
     28          6           0       -1.839012   -4.519848    0.738088
     29          6           0       -5.441222   -0.176637   -0.820462
     30          6           0       -4.654540    3.748402   -0.252685
     31          6           0       -1.357527    4.141426   -0.304520
     32          6           0        6.945160   -3.203175   -1.161109
     33          6           0        5.958687   -0.591041    0.191255
     34          6           0        0.054526    4.055868   -0.158209
     35          6           0        0.988387    5.264156   -0.609159
     36          6           0        2.156826    4.643655   -0.384062
     37          6           0       -3.079668   -4.088520   -0.069858
     38          6           0        5.459513    0.436198    1.225195
     39          6           0       -6.840703   -0.759948   -0.750522
     40          6           0        3.553655    5.328413   -0.380492
     41          6           0        2.146048    3.163390   -0.053001
     42          6           0        0.587600    6.506454   -1.020285
     43          6           0        4.107890    5.767919    0.994616
     44          1           0        0.544056    0.224962    0.132776
     45          1           0       -2.839703   -1.399800    1.267644
     46          1           0       -2.487695   -2.704566    2.094211
     47          1           0       -1.267275   -3.805960    2.573741
     48          1           0        5.723158   -2.133655   -2.403931
     49          1           0       -4.956784   -0.156653    1.368515
     50          1           0       -5.970138    1.139973    0.865856
     51          1           0        3.001495    0.140140    0.612915
     52          1           0       -0.484209    1.850848    0.335596
     53          1           0        1.605289   -4.577570    1.253305
     54          1           0        2.635058   -3.451230    2.331298
     55          1           0        1.020553   -4.041614    2.855758
     56          1           0        2.489286   -3.525821   -0.576691
     57          1           0       -1.052400   -4.894735    0.248209
     58          1           0       -2.138162   -5.561457    1.262653
     59          1           0       -4.609036   -0.857644   -1.179937
     60          1           0       -5.476704    0.575380   -1.712587
     61          1           0       -4.765553    4.414698    0.889168
     62          1           0       -5.689123    3.248795   -0.340765
     63          1           0       -4.221998    4.385633   -1.275833
     64          1           0       -1.958438    4.877097   -0.645083
     65          1           0        7.677828   -2.522654   -1.058182
     66          1           0        7.052411   -4.109956   -1.884105
     67          1           0        6.741984   -3.555946   -0.089827
     68          1           0        7.030797   -0.557010   -0.112245
     69          1           0        5.126587    1.241572    0.496432
     70          1           0        6.187117    0.497861    2.261150
     71          1           0        4.585435    0.025681    1.855501
     72          1           0        3.534412    6.031142   -1.312768
     73          1           0        4.324398    4.500103   -0.689855
     74          1           0        0.013691    6.383172   -1.971344
     75          1           0        1.389756    7.272174   -0.911564
     76          1           0       -0.075384    6.879687   -0.264555
     77          1           0        3.486350    6.415774    1.462955
     78          1           0        5.114865    6.458159    0.871797
     79          1           0        4.311331    4.977635    1.670652
     80          1           0       -3.690894   -4.165449   -1.858484
     81          1           0       -8.017731   -1.845041   -1.710519
 ---------------------------------------------------------------------

 SCF Done:  E(RB3LYP) =  -1948.98944169     A.U. after   16 cycles

 Excitation energies and oscillator strengths:

 Excited State   1:      Singlet-A      1.8884 eV  656.57 nm  f=0.3728  <S**2>=0.000
     156 ->157         0.70872
     156 <-157        -0.11736
 This state for optimization and/or second-order correction.
 Total Energy, E(TD-HF/TD-DFT) =  -1948.92004604
 Copying the excited state density for this state as the 1-particle RhoCI density.

 The electronic state is 1-A.
 Alpha  occ. eigenvalues --  -19.18531 -19.16849 -19.16393 -19.12097 -19.12042
 Alpha  occ. eigenvalues --  -19.11265 -14.37288 -14.37220 -14.33964 -14.29020
 Alpha  occ. eigenvalues --  -10.34413 -10.31498 -10.29314 -10.27383 -10.24883
 Alpha  occ. eigenvalues --  -10.23835 -10.23434 -10.23344 -10.23305 -10.23271
 Alpha  occ. eigenvalues --  -10.22625 -10.22342 -10.22240 -10.21184 -10.21135
 Alpha  occ. eigenvalues --  -10.21111 -10.20991 -10.20973 -10.20894 -10.20887
 Alpha  occ. eigenvalues --  -10.20852 -10.20306 -10.19692 -10.19572 -10.19471
 Alpha  occ. eigenvalues --  -10.19412 -10.19388 -10.18812 -10.18691 -10.18537
 Alpha  occ. eigenvalues --  -10.18438 -10.18201 -10.17877  -1.11925  -1.09823
 Alpha  occ. eigenvalues --   -1.05231  -1.04172  -1.02468  -1.01416  -0.99292
 Alpha  occ. eigenvalues --   -0.95874  -0.94550  -0.89790  -0.84703  -0.81266
 Alpha  occ. eigenvalues --   -0.80986  -0.80669  -0.80196  -0.79176  -0.78540
 Alpha  occ. eigenvalues --   -0.76988  -0.76247  -0.75137  -0.73836  -0.72022
 Alpha  occ. eigenvalues --   -0.70621  -0.69930  -0.69356  -0.69124  -0.67716
 Alpha  occ. eigenvalues --   -0.66505  -0.64944  -0.63931  -0.62036  -0.61047
 Alpha  occ. eigenvalues --   -0.60746  -0.59401  -0.58614  -0.58072  -0.57609
 Alpha  occ. eigenvalues --   -0.56517  -0.55215  -0.54275  -0.53704  -0.53018
 Alpha  occ. eigenvalues --   -0.52361  -0.51521  -0.50773  -0.50594  -0.49910
 Alpha  occ. eigenvalues --   -0.49613  -0.48823  -0.48251  -0.48133  -0.47892
 Alpha  occ. eigenvalues --   -0.47579  -0.46890  -0.46552  -0.46229  -0.45867
 Alpha  occ. eigenvalues --   -0.44954  -0.44244  -0.44202  -0.43960  -0.43679
 Alpha  occ. eigenvalues --   -0.43436  -0.43267  -0.43073  -0.42964  -0.42750
 Alpha  occ. eigenvalues --   -0.42425  -0.42167  -0.41838  -0.41669  -0.41133
 Alpha  occ. eigenvalues --   -0.40753  -0.40716  -0.40521  -0.40403  -0.40032
 Alpha  occ. eigenvalues --   -0.39838  -0.39223  -0.38580  -0.38466  -0.38370
 Alpha  occ. eigenvalues --   -0.38238  -0.37877  -0.37665  -0.36976  -0.36640
 Alpha  occ. eigenvalues --   -0.35708  -0.35480  -0.35047  -0.34624  -0.33674
 Alpha  occ. eigenvalues --   -0.33436  -0.32676  -0.32531  -0.32389  -0.32269
 Alpha  occ. eigenvalues --   -0.32084  -0.31763  -0.31251  -0.30613  -0.29244
 Alpha  occ. eigenvalues --   -0.28725  -0.28340  -0.27088  -0.26649  -0.25975
 Alpha  occ. eigenvalues --   -0.25096  -0.24350  -0.23895  -0.22995  -0.21262
 Alpha  occ. eigenvalues --   -0.17678
 Alpha virt. eigenvalues --   -0.10152  -0.05240  -0.03839  -0.03569  -0.01123
 Alpha virt. eigenvalues --    0.01170   0.02129   0.02409   0.02880   0.03336
 Alpha virt. eigenvalues --    0.04234   0.04521   0.05109   0.05439   0.05615

 Mulliken charges:
               1
     1  O   -0.190261
     2  O   -0.292789
     3  O   -0.152956
     4  O   -0.188973
     5  O   -0.206459
     6  O   -0.156765
     7  N    0.127428
     8  N   -0.201727
     9  N   -0.077088
    10  N   -0.383734
    11  C   -0.090405
    12  C   -0.034457
    13  C   -0.179446
    14  C   -0.041054
    15  C   -0.096442
    16  C    0.142062
    17  C   -0.059617
    18  C   -0.094966
    19  C    0.237836
    20  C   -0.117140
    21  C    0.067527
    22  C    0.060945
    23  C   -0.010588
    24  C    0.037092
    25  C   -0.200216
    26  C    0.068805
    27  C    0.141535
    28  C    0.042242
    29  C    0.017567
    30  C   -0.050852
    31  C   -0.048884
    32  C    0.058200
    33  C   -0.146304
    34  C    0.142454
    35  C   -0.090944
    36  C   -0.231579
    37  C    0.182032
    38  C   -0.037931
    39  C    0.097172
    40  C    0.003665
    41  C    0.217801
    42  C    0.148105
    43  C    0.048549
    44  H    0.050883
    45  H    0.035306
    46  H    0.024482
    47  H   -0.091000
    48  H    0.055788
    49  H    0.025720
    50  H    0.022485
    51  H    0.099264
    52  H    0.156294
    53  H    0.027619
    54  H    0.042506
    55  H    0.017183
    56  H    0.129805
    57  H   -0.000598
    58  H    0.055585
    59  H    0.048516
    60  H    0.038750
    61  H    0.058341
    62  H    0.043113
    63  H    0.064104
    64  H   -0.096686
    65  H   -0.007931
    66  H    0.056939
    67  H    0.001722
    68  H    0.009508
    69  H    0.098674
    70  H    0.037082
    71  H    0.044276
    72  H    0.015946
    73  H    0.012040
    74  H    0.046049
    75  H    0.018547
    76  H    0.010009
    77  H   -0.023233
    78  H    0.017412
    79  H    0.018404
    80  H    0.186823
    81  H    0.190833
 Sum of Mulliken charges =  -0.00000

 Dipole moment (field-independent basis, Debye):
    X=             -1.7067    Y=              0.4642    Z=              0.2228  Tot=              1.7826
 Quadrupole moment (field-independent basis, Debye-Ang):
   XX=           -251.7133   YY=           -245.8373   ZZ=           -253.8941
   XY=              9.8618   XZ=             17.2871   YZ=            -17.8851

 Normal termination of Gaussian 16 at Tue Jul  2 13:00:12 2019.
