 Gaussian 16, Revision A.03,
 Gaussian 16:  ES64L-G16RevA.03 25-Dec-2016

 --------------------------
 # td=(NStates=1) B3LYP/SVP
 --------------------------

 --
 TD
 --
 Symbolic Z-matrix:
 Charge =  0 Multiplicity = 1

                         Standard orientation:
 ---------------------------------------------------------------------
 Center     Atomic      Atomic             Coordinates (Angstroms)
 Number     Number       Type             X           Y           Z
 ---------------------------------------------------------------------
      1          8           0        4.967284   -4.519460   -1.877919
      2          8           0       -2.352953   -5.047912   -1.322977
      3          8           0       -7.040893   -1.837024   -1.942336
      4          8           0       -3.432127   -3.447739   -0.162389
      5          8           0       -7.490084   -1.350282    0.210657
      6          8           0        2.756478    2.760508    0.146946
      7          7           0        0.442124   -0.504573    0.554292
      8          7           0       -1.723192    1.727044    0.433098
      9          7           0        3.667052   -2.996387   -0.690081
     10          7           0        0.458469    2.934962    0.169966
     11          6           0       -0.454778   -2.415439    1.396222
     12          6           0       -0.689156   -1.065533    0.934627
     13          6           0        0.977222   -2.601134    1.201884
     14          6           0        1.503620   -1.315760    0.785658
     15          6           0       -3.978362    1.084782    0.277295
     16          6           0       -2.599469    0.590890    0.523279
     17          6           0       -2.084737   -0.638141    0.771692
     18          6           0       -3.885433    2.463325    0.022096
     19          6           0       -1.398441   -3.440854    1.959079
     20          6           0        5.945609   -2.291223   -1.254956
     21          6           0        3.777653   -1.750363   -0.207192
     22          6           0       -2.478687    2.836463    0.129035
     23          6           0        5.192186   -1.206514   -0.395121
     24          6           0       -5.194643    0.280778    0.456776
     25          6           0        2.860643   -0.851517    0.360997
     26          6           0        1.715031   -3.719695    1.853143
     27          6           0        4.926451   -3.460113   -1.275972
     28          6           0       -1.649159   -4.638501    0.898650
     29          6           0       -5.359644   -0.516121   -0.857529
     30          6           0       -4.887080    3.541030   -0.170163
     31          6           0       -1.684100    3.970503   -0.155364
     32          6           0        7.288180   -2.649913   -0.889053
     33          6           0        5.843082   -0.224864    0.194827
     34          6           0       -0.343716    4.004897   -0.179140
     35          6           0        0.483142    5.183130   -0.549911
     36          6           0        1.789576    4.884545   -0.364796
     37          6           0       -2.573225   -4.287965   -0.191139
     38          6           0        5.250068    0.867114    1.110911
     39          6           0       -6.756676   -1.166013   -0.763710
     40          6           0        2.984036    5.568326   -0.481055
     41          6           0        1.790330    3.417811   -0.069291
     42          6           0       -0.033789    6.500292   -0.985395
     43          6           0        3.574394    6.176965    0.949248
     44          1           0        0.613545    0.510886    0.429585
     45          1           0       -2.919328   -1.251126    0.757477
     46          1           0       -2.495189   -3.060648    2.168726
     47          1           0       -1.014795   -3.960656    2.889468
     48          1           0        6.074055   -1.886358   -2.286811
     49          1           0       -5.086929   -0.593568    1.247971
     50          1           0       -6.031501    0.964484    0.601797
     51          1           0        2.936618    0.431672    0.528200
     52          1           0       -0.756325    1.933038    0.476283
     53          1           0        1.850765   -4.491021    1.158562
     54          1           0        2.763425   -3.706091    2.012743
     55          1           0        1.227989   -4.036758    2.737776
     56          1           0        2.756839   -3.395543   -0.679876
     57          1           0       -0.736751   -5.068394    0.647277
     58          1           0       -2.144908   -5.579390    1.734762
     59          1           0       -4.510385   -1.204035   -1.056057
     60          1           0       -5.154127   -0.195233   -1.924312
     61          1           0       -4.988346    4.268606    0.596002
     62          1           0       -5.881656    3.292596   -0.338199
     63          1           0       -4.906207    4.165188   -1.100714
     64          1           0       -2.366206    4.829163   -0.578699
     65          1           0        8.073011   -1.823666   -0.844483
     66          1           0        7.736574   -3.291615   -1.559305
     67          1           0        7.305215   -3.276005    0.131989
     68          1           0        7.023793   -0.400692    0.076065
     69          1           0        4.816999    1.697799    0.553966
     70          1           0        6.175016    1.215707    1.717370
     71          1           0        4.483918    0.567583    1.782745
     72          1           0        2.870493    6.498490   -1.266410
     73          1           0        3.966598    5.021720   -1.020723
     74          1           0       -0.744120    6.434040   -1.867944
     75          1           0        0.861348    7.101456   -1.302410
     76          1           0       -0.582148    7.068884   -0.195684
     77          1           0        2.971949    7.023713    1.195138
     78          1           0        4.583487    6.693074    0.753988
     79          1           0        3.832398    5.189742    1.726356
     80          1           0       -3.123276   -4.779815   -1.971906
     81          1           0       -7.755422   -2.286402   -1.831259
 ---------------------------------------------------------------------

 SCF Done:  E(RB3LYP) =  -1949.05951977     A.U. after   16 cycles

 Excitation energies and oscillator strengths:

 Excited State   1:      Singlet-A      1.9119 eV  648.47 nm  f=0.3643  <S**2>=0.000
     156 ->157         0.70717
 This state for optimization and/or second-order correction.
 Total Energy, E(TD-HF/TD-DFT) =  -1948.98925743
 Copying the excited state density for this state as the 1-particle RhoCI density.

 The electronic state is 1-A.
 Alpha  occ. eigenvalues --  -19.19187 -19.16777 -19.14592 -19.13578 -19.12891
 Alpha  occ. eigenvalues --  -19.10321 -14.37948 -14.37901 -14.34377 -14.28412
 Alpha  occ. eigenvalues --  -10.33549 -10.32986 -10.31319 -10.25889 -10.24573
 Alpha  occ. eigenvalues --  -10.23766 -10.23318 -10.23297 -10.23198 -10.23099
 Alpha  occ. eigenvalues --  -10.22533 -10.22000 -10.21963 -10.21865 -10.21818
 Alpha  occ. eigenvalues --  -10.21483 -10.21196 -10.20918 -10.20811 -10.20440
 Alpha  occ. eigenvalues --  -10.20172 -10.20087 -10.19868 -10.19697 -10.19594
 Alpha  occ. eigenvalues --  -10.19552 -10.19543 -10.19488 -10.19281 -10.18527
 Alpha  occ. eigenvalues --  -10.18241 -10.17920 -10.17744  -1.10130  -1.10008
 Alpha  occ. eigenvalues --   -1.04298  -1.02994  -1.01236  -1.00589  -0.99526
 Alpha  occ. eigenvalues --   -0.96521  -0.95924  -0.90403  -0.83266  -0.82299
 Alpha  occ. eigenvalues --   -0.81568  -0.80814  -0.80038  -0.78336  -0.77724
 Alpha  occ. eigenvalues --   -0.77159  -0.76201  -0.74686  -0.73196  -0.72381
 Alpha  occ. eigenvalues --   -0.72053  -0.69815  -0.69247  -0.68604  -0.67975
 Alpha  occ. eigenvalues --   -0.67743  -0.65493  -0.64787  -0.62325  -0.61511
 Alpha  occ. eigenvalues --   -0.60500  -0.59326  -0.58707  -0.58349  -0.57000
 Alpha  occ. eigenvalues --   -0.56700  -0.55379  -0.55003  -0.53678  -0.52905
 Alpha  occ. eigenvalues --   -0.52331  -0.51779  -0.51211  -0.50421  -0.49644
 Alpha  occ. eigenvalues --   -0.49497  -0.48962  -0.48228  -0.47862  -0.47778
 Alpha  occ. eigenvalues --   -0.47327  -0.46390  -0.45596  -0.45294  -0.45155
 Alpha  occ. eigenvalues --   -0.44817  -0.44722  -0.44347  -0.44178  -0.43966
 Alpha  occ. eigenvalues --   -0.43505  -0.42972  -0.42622  -0.42613  -0.42203
 Alpha  occ. eigenvalues --   -0.42069  -0.41586  -0.41411  -0.41281  -0.41040
 Alpha  occ. eigenvalues --   -0.40519  -0.40301  -0.40096  -0.39932  -0.39676
 Alpha  occ. eigenvalues --   -0.39437  -0.39168  -0.38596  -0.38362  -0.38016
 Alpha  occ. eigenvalues --   -0.37607  -0.37433  -0.37179  -0.36660  -0.36115
 Alpha  occ. eigenvalues --   -0.35976  -0.35907  -0.35502  -0.34972  -0.34548
 Alpha  occ. eigenvalues --   -0.33903  -0.33635  -0.33489  -0.33424  -0.33273
 Alpha  occ. eigenvalues --   -0.32454  -0.32124  -0.31635  -0.30196  -0.29571
 Alpha  occ. eigenvalues --   -0.28983  -0.28027  -0.27667  -0.26098  -0.25312
 Alpha  occ. eigenvalues --   -0.24904  -0.24587  -0.24137  -0.22845  -0.20985
 Alpha  occ. eigenvalues --   -0.17738
 Alpha virt. eigenvalues --   -0.09929  -0.05134  -0.03689  -0.03266  -0.02015
 Alpha virt. eigenvalues --   -0.01942   0.01716   0.02929   0.03404   0.03613
 Alpha virt. eigenvalues --    0.04139   0.04634   0.04972   0.05928   0.05985

 Mulliken charges:
               1
     1  O   -0.189093
     2  O   -0.237632
     3  O   -0.135566
     4  O   -0.211717
     5  O   -0.241078
     6  O   -0.179863
     7  N    0.002792
     8  N   -0.102355
     9  N   -0.093482
    10  N   -0.368318
    11  C   -0.101418
    12  C    0.103677
    13  C   -0.199845
    14  C   -0.001765
    15  C   -0.057598
    16  C    0.033911
    17  C   -0.004854
    18  C   -0.069193
    19  C    0.055819
    20  C   -0.043154
    21  C    0.076905
    22  C    0.036858
    23  C   -0.019278
    24  C    0.125820
    25  C   -0.160272
    26  C    0.158406
    27  C    0.170027
    28  C   -0.055832
    29  C   -0.077428
    30  C    0.106945
    31  C   -0.168770
    32  C    0.031131
    33  C   -0.194444
    34  C    0.168938
    35  C   -0.095621
    36  C   -0.040408
    37  C    0.184333
    38  C    0.058219
    39  C    0.182525
    40  C   -0.130727
    41  C    0.151604
    42  C    0.085147
    43  C   -0.038241
    44  H    0.156574
    45  H   -0.064562
    46  H    0.041900
    47  H    0.021301
    48  H    0.051719
    49  H    0.066895
    50  H    0.026401
    51  H    0.116168
    52  H    0.092264
    53  H   -0.024096
    54  H   -0.008833
    55  H    0.011302
    56  H    0.124834
    57  H    0.012690
    58  H    0.070792
    59  H    0.047927
    60  H    0.028447
    61  H    0.016511
    62  H   -0.031527
    63  H    0.010476
    64  H   -0.007463
    65  H    0.031996
    66  H   -0.001644
    67  H    0.022810
    68  H    0.020709
    69  H    0.065655
    70  H    0.009840
    71  H    0.025169
    72  H    0.015595
    73  H    0.047585
    74  H    0.025301
    75  H    0.009347
    76  H    0.030048
    77  H    0.017498
    78  H    0.016674
    79  H    0.071043
    80  H    0.212907
    81  H    0.104640
 Sum of Mulliken charges =  -0.00000

 Dipole moment (field-independent basis, Debye):
    X=             -1.9654    Y=              0.3264    Z=             -0.8098  Tot=              2.1506
 Quadrupole moment (field-independent basis, Debye-Ang):
   XX=           -248.1898   YY=           -239.2776   ZZ=           -254.9994
   XY=              4.5678   XZ=             14.8730   YZ=            -11.7387

 Normal termination of Gaussian 16 at Mon Jul  1 03:18:09 2019.
