 Gaussian 16, Revision A.03,
 Gaussian 16:  ES64L-G16RevA.03 25-Dec-2016

 --------------------------
 # td=(NStates=1) B3LYP/SVP
 --------------------------

 --
 TD
 --
 Symbolic Z-matrix:
 Charge =  0 Multiplicity = 1

                         Standard orientation:
 ---------------------------------------------------------------------
 Center     Atomic      Atomic             Coordinates (Angstroms)
 Number     Number       Type             X           Y           Z
 ---------------------------------------------------------------------
      1          8           0        4.791363   -4.569970   -1.814193
      2          8           0       -2.545095   -4.989869   -1.190940
      3          8           0       -7.036120   -1.725336   -1.885351
      4          8           0       -3.455902   -3.440996   -0.118284
      5          8           0       -7.387605   -1.045142    0.202067
      6          8           0        2.818838    2.589201    0.111377
      7          7           0        0.265410   -0.564588    0.471085
      8          7           0       -1.701502    1.695714    0.322686
      9          7           0        3.623155   -2.982308   -0.795965
     10          7           0        0.499762    2.975998    0.131339
     11          6           0       -0.472283   -2.445576    1.408303
     12          6           0       -0.944470   -1.136472    0.884072
     13          6           0        0.914833   -2.589909    1.250108
     14          6           0        1.402780   -1.371999    0.666189
     15          6           0       -3.903797    1.204954    0.404461
     16          6           0       -2.548210    0.695351    0.673286
     17          6           0       -2.159732   -0.628172    0.939849
     18          6           0       -3.645479    2.572576    0.001202
     19          6           0       -1.393879   -3.535412    1.966371
     20          6           0        5.795299   -2.266418   -1.398054
     21          6           0        3.775164   -1.698081   -0.083613
     22          6           0       -2.323015    2.789736   -0.041547
     23          6           0        5.079401   -1.305271   -0.428633
     24          6           0       -5.207434    0.444122    0.343448
     25          6           0        2.726786   -0.853099    0.339390
     26          6           0        1.784975   -3.659169    1.828337
     27          6           0        4.698089   -3.459561   -1.438009
     28          6           0       -1.714038   -4.725259    1.007164
     29          6           0       -5.361680   -0.367211   -0.879910
     30          6           0       -4.738301    3.529283   -0.357345
     31          6           0       -1.671747    4.034270   -0.345120
     32          6           0        7.167426   -2.849783   -1.068358
     33          6           0        5.756166   -0.376788    0.232580
     34          6           0       -0.248521    4.051650   -0.270668
     35          6           0        0.616486    5.269645   -0.482562
     36          6           0        1.924641    4.867188   -0.311919
     37          6           0       -2.694906   -4.326181   -0.108141
     38          6           0        5.357694    0.620302    1.318192
     39          6           0       -6.668313   -1.084256   -0.765075
     40          6           0        3.262501    5.533558   -0.448854
     41          6           0        1.841973    3.428233   -0.001671
     42          6           0        0.100933    6.653675   -0.783606
     43          6           0        3.784947    5.927732    0.998199
     44          1           0        0.376164    0.342336   -0.010875
     45          1           0       -3.061364   -1.240448    0.957172
     46          1           0       -2.305326   -2.973792    2.341574
     47          1           0       -0.962174   -3.926013    2.959782
     48          1           0        5.845763   -1.855991   -2.426036
     49          1           0       -5.353586   -0.233364    1.325160
     50          1           0       -6.100261    1.018953    0.629536
     51          1           0        2.902519    0.126654    0.532987
     52          1           0       -0.663008    1.721638    0.299629
     53          1           0        1.920282   -4.659277    1.278955
     54          1           0        2.760792   -3.273429    2.043381
     55          1           0        1.238153   -3.921450    2.596565
     56          1           0        2.656010   -3.470111   -0.825713
     57          1           0       -0.813049   -5.013884    0.381475
     58          1           0       -2.101811   -5.659063    1.706642
     59          1           0       -4.406758   -1.036292   -1.183127
     60          1           0       -5.665808    0.257319   -1.745582
     61          1           0       -4.640597    4.448551    0.127069
     62          1           0       -5.779998    3.217840   -0.227618
     63          1           0       -4.817360    3.821404   -1.384858
     64          1           0       -2.334540    4.749010   -0.848329
     65          1           0        7.783113   -1.970676   -1.247248
     66          1           0        7.532226   -3.608634   -1.794966
     67          1           0        7.408038   -3.283292   -0.084454
     68          1           0        6.790160   -0.165610   -0.027591
     69          1           0        4.786135    1.771658    1.117616
     70          1           0        6.207134    0.924132    1.682737
     71          1           0        4.764177    0.100635    2.132897
     72          1           0        3.067796    6.359420   -0.942844
     73          1           0        3.961353    4.856704   -1.108200
     74          1           0       -0.648705    6.743975   -1.511883
     75          1           0        0.987864    7.453260   -1.101208
     76          1           0       -0.366711    7.181408    0.148397
     77          1           0        3.200911    6.627064    1.528825
     78          1           0        4.756266    6.378033    0.979068
     79          1           0        3.863075    5.156107    1.771641
     80          1           0       -3.011860   -4.691986   -1.930278
     81          1           0       -7.832339   -2.351556   -1.770101
 ---------------------------------------------------------------------

 SCF Done:  E(RB3LYP) =  -1949.13382205     A.U. after   19 cycles

 Excitation energies and oscillator strengths:

 Excited State   1:      Singlet-A      1.8356 eV  675.43 nm  f=0.3998  <S**2>=0.000
     156 ->157         0.70982
     156 <-157        -0.13723
 This state for optimization and/or second-order correction.
 Total Energy, E(TD-HF/TD-DFT) =  -1949.06636371
 Copying the excited state density for this state as the 1-particle RhoCI density.

 The electronic state is 1-A.
 Alpha  occ. eigenvalues --  -19.18817 -19.18078 -19.12946 -19.12082 -19.10783
 Alpha  occ. eigenvalues --  -19.08826 -14.38235 -14.37168 -14.34767 -14.28302
 Alpha  occ. eigenvalues --  -10.32688 -10.31654 -10.28461 -10.25419 -10.25329
 Alpha  occ. eigenvalues --  -10.24826 -10.23703 -10.23591 -10.22698 -10.22323
 Alpha  occ. eigenvalues --  -10.22129 -10.21610 -10.21349 -10.21288 -10.21051
 Alpha  occ. eigenvalues --  -10.20683 -10.20429 -10.20388 -10.20320 -10.20308
 Alpha  occ. eigenvalues --  -10.20049 -10.19920 -10.19839 -10.19724 -10.19060
 Alpha  occ. eigenvalues --  -10.18793 -10.18650 -10.18561 -10.18469 -10.18456
 Alpha  occ. eigenvalues --  -10.18296 -10.17939 -10.17001  -1.14641  -1.09209
 Alpha  occ. eigenvalues --   -1.05231  -1.03119  -1.00081  -0.99379  -0.97127
 Alpha  occ. eigenvalues --   -0.96689  -0.94242  -0.89271  -0.82393  -0.82041
 Alpha  occ. eigenvalues --   -0.81883  -0.81449  -0.79152  -0.78888  -0.77871
 Alpha  occ. eigenvalues --   -0.77494  -0.75953  -0.74594  -0.74025  -0.72543
 Alpha  occ. eigenvalues --   -0.71252  -0.70518  -0.69730  -0.68997  -0.67720
 Alpha  occ. eigenvalues --   -0.67595  -0.65352  -0.64142  -0.63254  -0.63166
 Alpha  occ. eigenvalues --   -0.61639  -0.59967  -0.59033  -0.58201  -0.57115
 Alpha  occ. eigenvalues --   -0.56416  -0.55371  -0.54856  -0.53884  -0.52585
 Alpha  occ. eigenvalues --   -0.51912  -0.51002  -0.50443  -0.49991  -0.49769
 Alpha  occ. eigenvalues --   -0.49608  -0.49080  -0.48741  -0.47967  -0.47479
 Alpha  occ. eigenvalues --   -0.47198  -0.46134  -0.45922  -0.45419  -0.45063
 Alpha  occ. eigenvalues --   -0.45018  -0.44662  -0.44143  -0.43809  -0.43148
 Alpha  occ. eigenvalues --   -0.42914  -0.42715  -0.42394  -0.42282  -0.41992
 Alpha  occ. eigenvalues --   -0.41521  -0.41471  -0.40945  -0.40674  -0.40385
 Alpha  occ. eigenvalues --   -0.40277  -0.40200  -0.39853  -0.39688  -0.39561
 Alpha  occ. eigenvalues --   -0.39287  -0.38973  -0.38852  -0.38811  -0.38274
 Alpha  occ. eigenvalues --   -0.37712  -0.37308  -0.37028  -0.36702  -0.36564
 Alpha  occ. eigenvalues --   -0.36286  -0.36014  -0.35825  -0.35567  -0.35188
 Alpha  occ. eigenvalues --   -0.34341  -0.33972  -0.33907  -0.33730  -0.33495
 Alpha  occ. eigenvalues --   -0.32722  -0.31827  -0.31157  -0.29578  -0.29013
 Alpha  occ. eigenvalues --   -0.27949  -0.26845  -0.26652  -0.25767  -0.25576
 Alpha  occ. eigenvalues --   -0.25023  -0.24028  -0.23201  -0.22926  -0.21316
 Alpha  occ. eigenvalues --   -0.17585
 Alpha virt. eigenvalues --   -0.10593  -0.06251  -0.04459  -0.00409   0.00660
 Alpha virt. eigenvalues --    0.01046   0.01966   0.02816   0.03653   0.04527
 Alpha virt. eigenvalues --    0.04929   0.05058   0.05726   0.06089   0.06165

 Mulliken charges:
               1
     1  O   -0.169730
     2  O   -0.097336
     3  O   -0.218611
     4  O   -0.189525
     5  O   -0.227274
     6  O   -0.290128
     7  N   -0.128419
     8  N   -0.010468
     9  N   -0.171024
    10  N   -0.338021
    11  C   -0.135079
    12  C    0.190989
    13  C   -0.172552
    14  C    0.064959
    15  C   -0.051764
    16  C    0.000348
    17  C   -0.087049
    18  C   -0.135782
    19  C    0.058664
    20  C   -0.086061
    21  C    0.108618
    22  C    0.026350
    23  C    0.015848
    24  C    0.016459
    25  C   -0.012965
    26  C    0.177664
    27  C    0.091771
    28  C   -0.037395
    29  C    0.001370
    30  C    0.141577
    31  C   -0.115445
    32  C    0.057726
    33  C   -0.146157
    34  C    0.117568
    35  C   -0.071849
    36  C   -0.200789
    37  C    0.068880
    38  C    0.040639
    39  C    0.124724
    40  C    0.194352
    41  C    0.175561
    42  C    0.037488
    43  C    0.022869
    44  H    0.140822
    45  H    0.023087
    46  H    0.026950
    47  H    0.022450
    48  H    0.039415
    49  H    0.034188
    50  H    0.012635
    51  H   -0.005667
    52  H    0.128200
    53  H    0.024162
    54  H    0.025018
    55  H   -0.045080
    56  H    0.153720
    57  H    0.048322
    58  H    0.077172
    59  H    0.087077
    60  H    0.031804
    61  H   -0.004253
    62  H   -0.005848
    63  H   -0.005989
    64  H   -0.016763
    65  H    0.006140
    66  H    0.029322
    67  H    0.020706
    68  H   -0.006446
    69  H    0.111195
    70  H   -0.039397
    71  H    0.027543
    72  H   -0.065667
    73  H    0.038979
    74  H    0.008926
    75  H    0.030355
    76  H    0.037230
    77  H   -0.012237
    78  H   -0.005241
    79  H    0.013798
    80  H    0.161499
    81  H    0.210873
 Sum of Mulliken charges =  -0.00000

 Dipole moment (field-independent basis, Debye):
    X=             -2.2364    Y=             -1.2205    Z=             -1.0983  Tot=              2.7744
 Quadrupole moment (field-independent basis, Debye-Ang):
   XX=           -247.8101   YY=           -237.5473   ZZ=           -250.4720
   XY=             16.6748   XZ=             19.8198   YZ=             -9.8075

 Normal termination of Gaussian 16 at Mon Jul  1 08:50:18 2019.
