 Gaussian 16, Revision A.03,
 Gaussian 16:  ES64L-G16RevA.03 25-Dec-2016

 --------------------------
 # td=(NStates=1) B3LYP/SVP
 --------------------------

 --
 TD
 --
 Symbolic Z-matrix:
 Charge =  0 Multiplicity = 1

                         Standard orientation:
 ---------------------------------------------------------------------
 Center     Atomic      Atomic             Coordinates (Angstroms)
 Number     Number       Type             X           Y           Z
 ---------------------------------------------------------------------
      1          8           0       -4.270702   -4.707997    2.070185
      2          8           0        3.121821   -4.962668    1.279040
      3          8           0        6.946973   -1.297918    2.117985
      4          8           0        3.662125   -2.959754    0.110037
      5          8           0        7.639873   -0.534671    0.028424
      6          8           0       -3.001576    2.583508   -0.407904
      7          7           0       -0.255706   -0.618751   -0.686318
      8          7           0        1.590741    1.738592   -0.361002
      9          7           0       -3.474172   -3.153949    0.577959
     10          7           0       -0.732873    2.970054   -0.321350
     11          6           0        0.592979   -2.449279   -1.562487
     12          6           0        0.986361   -1.204137   -1.053548
     13          6           0       -0.804268   -2.672883   -1.409186
     14          6           0       -1.307261   -1.565436   -0.744964
     15          6           0        3.745243    1.330915   -0.431279
     16          6           0        2.428860    0.773202   -0.643636
     17          6           0        2.206550   -0.555373   -0.956117
     18          6           0        3.564891    2.670068   -0.023977
     19          6           0        1.666595   -3.541611   -1.964212
     20          6           0       -5.613895   -2.623415    1.445948
     21          6           0       -3.643003   -1.898275    0.088311
     22          6           0        2.074470    2.961561   -0.047564
     23          6           0       -4.977746   -1.500616    0.451866
     24          6           0        5.068003    0.664822   -0.486024
     25          6           0       -2.671098   -1.077647   -0.581299
     26          6           0       -1.537074   -3.875768   -1.792980
     27          6           0       -4.425029   -3.658957    1.382787
     28          6           0        2.108328   -4.519908   -0.842445
     29          6           0        5.340068   -0.134175    0.831067
     30          6           0        4.562416    3.749760    0.313624
     31          6           0        1.349797    4.151668    0.173690
     32          6           0       -6.897693   -3.225229    1.165510
     33          6           0       -5.847234   -0.593418   -0.064197
     34          6           0        0.011697    4.142985    0.117372
     35          6           0       -0.944812    5.251127    0.396067
     36          6           0       -2.251534    4.721395    0.361035
     37          6           0        3.020904   -3.994037    0.156138
     38          6           0       -5.404561    0.393747   -1.184575
     39          6           0        6.733618   -0.699188    0.850246
     40          6           0       -3.626528    5.366458    0.687828
     41          6           0       -2.103405    3.360623   -0.242305
     42          6           0       -0.525338    6.610302    0.929864
     43          6           0       -4.330203    5.644185   -0.652796
     44          1           0       -0.598987    0.244548   -0.076991
     45          1           0        3.094975   -1.221760   -1.096239
     46          1           0        2.449031   -2.931371   -2.578662
     47          1           0        1.156774   -4.119784   -2.822451
     48          1           0       -5.590201   -2.286866    2.497029
     49          1           0        5.150954    0.117183   -1.446923
     50          1           0        5.835402    1.372144   -0.530511
     51          1           0       -2.871939    0.057246   -0.615717
     52          1           0        0.430811    2.047674   -0.720787
     53          1           0       -1.559752   -4.733219   -1.060854
     54          1           0       -2.563211   -3.497678   -1.874745
     55          1           0       -1.163983   -4.455443   -2.558556
     56          1           0       -2.617556   -3.689312    0.640334
     57          1           0        1.328204   -5.115710   -0.568271
     58          1           0        2.826600   -5.140055   -1.343194
     59          1           0        4.509494   -0.915651    0.860842
     60          1           0        4.982980    0.517692    1.846849
     61          1           0        4.322591    4.609818   -0.358321
     62          1           0        5.608948    3.018171    0.256152
     63          1           0        4.326522    4.046682    1.310420
     64          1           0        1.747176    5.195982    0.408416
     65          1           0       -7.691865   -2.465101    1.089874
     66          1           0       -7.068589   -4.120549    1.851352
     67          1           0       -6.838281   -3.839340    0.189900
     68          1           0       -6.887178   -0.427284    0.410242
     69          1           0       -4.824613    1.065939   -0.707060
     70          1           0       -6.278063    0.520014   -1.754583
     71          1           0       -4.701106    0.024820   -1.819442
     72          1           0       -3.387244    6.199882    1.302779
     73          1           0       -4.020721    4.423659    1.219930
     74          1           0        0.339840    6.435372    1.609196
     75          1           0       -1.261462    7.148117    1.560968
     76          1           0       -0.380011    7.162671    0.017843
     77          1           0       -3.619696    6.370600   -1.238244
     78          1           0       -5.270283    6.069776   -0.678527
     79          1           0       -4.543300    4.840091   -1.381719
     80          1           0        3.800606   -4.544362    1.837976
     81          1           0        7.842522   -1.521013    2.267972
 ---------------------------------------------------------------------

 SCF Done:  E(RB3LYP) =  -1949.09999064     A.U. after   16 cycles

 Excitation energies and oscillator strengths:

 Excited State   1:      Singlet-A      1.9599 eV  632.61 nm  f=0.4105  <S**2>=0.000
     156 ->157         0.70377
     156 <-157        -0.11207
 This state for optimization and/or second-order correction.
 Total Energy, E(TD-HF/TD-DFT) =  -1949.02796657
 Copying the excited state density for this state as the 1-particle RhoCI density.

 The electronic state is 1-A.
 Alpha  occ. eigenvalues --  -19.18332 -19.16971 -19.16504 -19.13753 -19.11032
 Alpha  occ. eigenvalues --  -19.09845 -14.38447 -14.37238 -14.34460 -14.29238
 Alpha  occ. eigenvalues --  -10.34950 -10.33032 -10.29382 -10.26189 -10.25855
 Alpha  occ. eigenvalues --  -10.24012 -10.23281 -10.23158 -10.23026 -10.22615
 Alpha  occ. eigenvalues --  -10.22599 -10.22353 -10.22097 -10.21396 -10.21108
 Alpha  occ. eigenvalues --  -10.20947 -10.20731 -10.20495 -10.20481 -10.20437
 Alpha  occ. eigenvalues --  -10.20249 -10.20188 -10.19897 -10.19592 -10.19555
 Alpha  occ. eigenvalues --  -10.19472 -10.19472 -10.19447 -10.19419 -10.19408
 Alpha  occ. eigenvalues --  -10.19356 -10.18087 -10.16006  -1.08828  -1.07257
 Alpha  occ. eigenvalues --   -1.02957  -1.02077  -1.01101  -0.99872  -0.97981
 Alpha  occ. eigenvalues --   -0.96251  -0.95752  -0.89001  -0.82561  -0.81931
 Alpha  occ. eigenvalues --   -0.81665  -0.80943  -0.79563  -0.78948  -0.78422
 Alpha  occ. eigenvalues --   -0.77317  -0.76036  -0.75523  -0.74690  -0.73284
 Alpha  occ. eigenvalues --   -0.71145  -0.70498  -0.68553  -0.68438  -0.68067
 Alpha  occ. eigenvalues --   -0.66394  -0.66018  -0.65196  -0.63349  -0.62122
 Alpha  occ. eigenvalues --   -0.59639  -0.59124  -0.58572  -0.58202  -0.56653
 Alpha  occ. eigenvalues --   -0.55440  -0.54481  -0.54424  -0.53949  -0.53043
 Alpha  occ. eigenvalues --   -0.52239  -0.51713  -0.50491  -0.50346  -0.49706
 Alpha  occ. eigenvalues --   -0.49662  -0.48571  -0.48116  -0.47312  -0.47207
 Alpha  occ. eigenvalues --   -0.46714  -0.46438  -0.45774  -0.45575  -0.45355
 Alpha  occ. eigenvalues --   -0.44909  -0.44795  -0.44449  -0.44164  -0.43565
 Alpha  occ. eigenvalues --   -0.43253  -0.43097  -0.42947  -0.42747  -0.42374
 Alpha  occ. eigenvalues --   -0.42156  -0.41702  -0.41525  -0.41323  -0.41143
 Alpha  occ. eigenvalues --   -0.40856  -0.40610  -0.40346  -0.39955  -0.39876
 Alpha  occ. eigenvalues --   -0.39485  -0.39102  -0.38801  -0.38720  -0.38589
 Alpha  occ. eigenvalues --   -0.38383  -0.38244  -0.37310  -0.36936  -0.36598
 Alpha  occ. eigenvalues --   -0.36507  -0.35941  -0.35175  -0.34974  -0.34569
 Alpha  occ. eigenvalues --   -0.34065  -0.33783  -0.33689  -0.33270  -0.33123
 Alpha  occ. eigenvalues --   -0.32396  -0.32209  -0.31719  -0.31069  -0.29777
 Alpha  occ. eigenvalues --   -0.28831  -0.27223  -0.26602  -0.25885  -0.25426
 Alpha  occ. eigenvalues --   -0.24791  -0.23953  -0.23876  -0.22890  -0.21536
 Alpha  occ. eigenvalues --   -0.18326
 Alpha virt. eigenvalues --   -0.10618  -0.06044  -0.04396  -0.03065  -0.02043
 Alpha virt. eigenvalues --   -0.00412   0.02000   0.02810   0.03514   0.04466
 Alpha virt. eigenvalues --    0.04889   0.04994   0.05275   0.05516   0.06287

 Mulliken charges:
               1
     1  O   -0.268905
     2  O   -0.273940
     3  O   -0.225682
     4  O   -0.203934
     5  O   -0.231104
     6  O   -0.200403
     7  N   -0.196973
     8  N   -0.127388
     9  N   -0.039825
    10  N   -0.397928
    11  C   -0.123813
    12  C    0.125526
    13  C   -0.117160
    14  C    0.045744
    15  C   -0.145266
    16  C    0.102632
    17  C   -0.107131
    18  C   -0.174197
    19  C    0.002788
    20  C   -0.060029
    21  C    0.091105
    22  C    0.103605
    23  C   -0.029163
    24  C    0.159666
    25  C   -0.134584
    26  C    0.110542
    27  C    0.078714
    28  C    0.172212
    29  C   -0.105518
    30  C    0.091744
    31  C   -0.128251
    32  C    0.046637
    33  C   -0.195225
    34  C    0.087917
    35  C   -0.113826
    36  C   -0.219306
    37  C    0.161901
    38  C    0.167879
    39  C    0.221148
    40  C    0.139470
    41  C    0.167207
    42  C    0.084060
    43  C    0.002536
    44  H    0.188637
    45  H    0.027609
    46  H    0.035261
    47  H    0.012095
    48  H    0.038506
    49  H    0.019974
    50  H   -0.022186
    51  H    0.062207
    52  H    0.235695
    53  H    0.010741
    54  H    0.033734
    55  H   -0.022361
    56  H    0.132711
    57  H    0.012374
    58  H    0.043654
    59  H    0.064872
    60  H    0.074081
    61  H    0.040107
    62  H    0.049244
    63  H    0.013533
    64  H   -0.005232
    65  H    0.026353
    66  H    0.041550
    67  H    0.008092
    68  H    0.028935
    69  H    0.034362
    70  H    0.003252
    71  H   -0.017565
    72  H   -0.008217
    73  H    0.037606
    74  H    0.034208
    75  H    0.018991
    76  H    0.032256
    77  H    0.010762
    78  H   -0.011719
    79  H    0.028919
    80  H    0.182568
    81  H    0.160907
 Sum of Mulliken charges =  -0.00000

 Dipole moment (field-independent basis, Debye):
    X=              1.0544    Y=              0.4551    Z=              0.0448  Tot=              1.1493
 Quadrupole moment (field-independent basis, Debye-Ang):
   XX=           -255.2939   YY=           -238.3112   ZZ=           -255.5646
   XY=            -16.7235   XZ=             14.6623   YZ=             19.7768

 Normal termination of Gaussian 16 at Fri Jun 28 04:35:05 2019.
