 Gaussian 16, Revision A.03,
 Gaussian 16:  ES64L-G16RevA.03 25-Dec-2016

 --------------------------
 # td=(NStates=1) B3LYP/SVP
 --------------------------

 --
 TD
 --
 Symbolic Z-matrix:
 Charge =  0 Multiplicity = 1

                         Standard orientation:
 ---------------------------------------------------------------------
 Center     Atomic      Atomic             Coordinates (Angstroms)
 Number     Number       Type             X           Y           Z
 ---------------------------------------------------------------------
      1          8           0        4.729303   -4.505809   -1.945609
      2          8           0       -2.655975   -5.197930   -1.189195
      3          8           0       -7.020253   -1.557713   -1.989164
      4          8           0       -3.518130   -3.320632   -0.174913
      5          8           0       -7.498388   -0.982157    0.272461
      6          8           0        2.887938    2.666033    0.043145
      7          7           0        0.349532   -0.620007    0.527877
      8          7           0       -1.586071    1.729559    0.166123
      9          7           0        3.483598   -2.959472   -0.667727
     10          7           0        0.537957    3.018762    0.022793
     11          6           0       -0.506859   -2.481299    1.378444
     12          6           0       -0.879771   -1.115228    0.964692
     13          6           0        0.854349   -2.559007    1.198723
     14          6           0        1.333300   -1.440249    0.704266
     15          6           0       -3.906158    1.306137    0.375858
     16          6           0       -2.554835    0.733351    0.427571
     17          6           0       -2.199176   -0.550504    0.887653
     18          6           0       -3.682421    2.641755   -0.027355
     19          6           0       -1.394752   -3.574720    2.050492
     20          6           0        5.670864   -2.423973   -1.307602
     21          6           0        3.713609   -1.702560   -0.141423
     22          6           0       -2.240023    2.880324   -0.007821
     23          6           0        5.181615   -1.309454   -0.413447
     24          6           0       -5.107544    0.479047    0.380522
     25          6           0        2.722322   -0.911812    0.429572
     26          6           0        1.579480   -3.802759    1.769192
     27          6           0        4.633538   -3.511120   -1.318025
     28          6           0       -1.769322   -4.625765    1.010833
     29          6           0       -5.382152   -0.453404   -0.825144
     30          6           0       -4.842882    3.586397   -0.310195
     31          6           0       -1.569747    4.141265   -0.127788
     32          6           0        7.123179   -2.945389   -1.145339
     33          6           0        5.920742   -0.364688    0.252068
     34          6           0       -0.125508    4.113082   -0.203651
     35          6           0        0.687679    5.320902   -0.420860
     36          6           0        1.983894    4.847584   -0.325825
     37          6           0       -2.695561   -4.216689   -0.131242
     38          6           0        5.453036    0.510097    1.296987
     39          6           0       -6.717108   -0.990179   -0.710789
     40          6           0        3.314809    5.580002   -0.442942
     41          6           0        1.870096    3.372949   -0.131858
     42          6           0        0.089924    6.668147   -0.680532
     43          6           0        3.894014    5.817833    0.985901
     44          1           0        0.730685    0.309047    0.052075
     45          1           0       -2.984101   -1.465609    0.979061
     46          1           0       -2.259269   -3.203115    2.638582
     47          1           0       -0.726719   -4.099334    2.808986
     48          1           0        5.715495   -2.062280   -2.268423
     49          1           0       -5.058532   -0.162479    1.231049
     50          1           0       -6.046496    0.914876    0.624973
     51          1           0        2.856730    0.105455    0.680705
     52          1           0       -0.570177    1.879438    0.382588
     53          1           0        1.570038   -4.734708    1.132607
     54          1           0        2.638896   -3.714163    1.679277
     55          1           0        1.072835   -4.036720    2.797732
     56          1           0        2.638865   -3.690124   -0.533949
     57          1           0       -0.894332   -5.180347    0.754422
     58          1           0       -2.507973   -5.336637    1.386711
     59          1           0       -4.717512   -1.245294   -0.879742
     60          1           0       -5.481053    0.048564   -1.729530
     61          1           0       -4.753750    4.292697    0.377426
     62          1           0       -5.874938    3.044318   -0.501009
     63          1           0       -4.700551    4.097541   -1.373757
     64          1           0       -2.057233    5.028973   -0.367760
     65          1           0        7.841380   -2.246751   -1.709976
     66          1           0        7.069871   -3.873303   -1.770933
     67          1           0        7.591139   -3.179849   -0.107354
     68          1           0        6.966646   -0.396014    0.120636
     69          1           0        5.075518    1.268065    0.836846
     70          1           0        6.315843    1.008803    1.858591
     71          1           0        4.943534    0.129309    2.315462
     72          1           0        3.349126    6.478291   -1.133117
     73          1           0        4.030278    4.934494   -0.779504
     74          1           0       -0.541643    6.511983   -1.647605
     75          1           0        1.049654    7.322249   -0.967980
     76          1           0       -0.566025    7.227395   -0.023342
     77          1           0        3.206244    6.576406    1.349970
     78          1           0        4.861042    6.242607    0.646645
     79          1           0        3.733652    4.877443    1.793436
     80          1           0       -3.176609   -4.770101   -1.799117
     81          1           0       -7.947413   -2.017796   -1.977563
 ---------------------------------------------------------------------

 SCF Done:  E(RB3LYP) =  -1949.09544762     A.U. after   16 cycles

 Excitation energies and oscillator strengths:

 Excited State   1:      Singlet-A      2.0111 eV  616.50 nm  f=0.3925  <S**2>=0.000
     156 ->157         0.70517
     156 <-157        -0.10836
 This state for optimization and/or second-order correction.
 Total Energy, E(TD-HF/TD-DFT) =  -1949.02154091
 Copying the excited state density for this state as the 1-particle RhoCI density.

 The electronic state is 1-A.
 Alpha  occ. eigenvalues --  -19.18010 -19.17995 -19.16044 -19.13630 -19.12486
 Alpha  occ. eigenvalues --  -19.10171 -14.38136 -14.38027 -14.35353 -14.29007
 Alpha  occ. eigenvalues --  -10.34750 -10.32599 -10.29650 -10.26490 -10.25062
 Alpha  occ. eigenvalues --  -10.23916 -10.23401 -10.23371 -10.22529 -10.22439
 Alpha  occ. eigenvalues --  -10.22202 -10.22184 -10.21888 -10.20831 -10.20765
 Alpha  occ. eigenvalues --  -10.20726 -10.20517 -10.20207 -10.20194 -10.20035
 Alpha  occ. eigenvalues --  -10.19931 -10.19821 -10.19676 -10.19573 -10.19341
 Alpha  occ. eigenvalues --  -10.19117 -10.18918 -10.18899 -10.18831 -10.18250
 Alpha  occ. eigenvalues --  -10.18082 -10.18067 -10.17538  -1.10054  -1.05994
 Alpha  occ. eigenvalues --   -1.05837  -1.02133  -1.00174  -1.00049  -0.98628
 Alpha  occ. eigenvalues --   -0.97591  -0.95018  -0.92913  -0.82806  -0.82652
 Alpha  occ. eigenvalues --   -0.81514  -0.80101  -0.79558  -0.78745  -0.78508
 Alpha  occ. eigenvalues --   -0.77859  -0.76620  -0.75413  -0.73978  -0.72267
 Alpha  occ. eigenvalues --   -0.70964  -0.69376  -0.69164  -0.68931  -0.68232
 Alpha  occ. eigenvalues --   -0.67388  -0.64791  -0.64214  -0.61677  -0.60624
 Alpha  occ. eigenvalues --   -0.59901  -0.58723  -0.58130  -0.57097  -0.56380
 Alpha  occ. eigenvalues --   -0.55900  -0.55484  -0.54984  -0.54266  -0.53001
 Alpha  occ. eigenvalues --   -0.52775  -0.52256  -0.50899  -0.50702  -0.49908
 Alpha  occ. eigenvalues --   -0.49790  -0.49684  -0.48793  -0.48574  -0.47343
 Alpha  occ. eigenvalues --   -0.47173  -0.46772  -0.46132  -0.45698  -0.45318
 Alpha  occ. eigenvalues --   -0.44674  -0.44607  -0.44417  -0.43848  -0.43636
 Alpha  occ. eigenvalues --   -0.43499  -0.43361  -0.43143  -0.42956  -0.42724
 Alpha  occ. eigenvalues --   -0.42369  -0.41906  -0.41463  -0.40957  -0.40595
 Alpha  occ. eigenvalues --   -0.40370  -0.40160  -0.39839  -0.39778  -0.39648
 Alpha  occ. eigenvalues --   -0.39312  -0.39172  -0.38789  -0.38635  -0.38533
 Alpha  occ. eigenvalues --   -0.38328  -0.37819  -0.37765  -0.37083  -0.36602
 Alpha  occ. eigenvalues --   -0.36388  -0.36294  -0.36070  -0.35620  -0.35308
 Alpha  occ. eigenvalues --   -0.33935  -0.33754  -0.33555  -0.33392  -0.32827
 Alpha  occ. eigenvalues --   -0.32104  -0.31946  -0.31840  -0.30544  -0.29717
 Alpha  occ. eigenvalues --   -0.28493  -0.28161  -0.27543  -0.26012  -0.25651
 Alpha  occ. eigenvalues --   -0.25272  -0.24617  -0.24120  -0.23199  -0.21515
 Alpha  occ. eigenvalues --   -0.17814
 Alpha virt. eigenvalues --   -0.09853  -0.05657  -0.03749  -0.02335  -0.01127
 Alpha virt. eigenvalues --   -0.00165   0.01768   0.02107   0.03588   0.04377
 Alpha virt. eigenvalues --    0.04577   0.04967   0.05182   0.05808   0.06051

 Mulliken charges:
               1
     1  O   -0.166658
     2  O   -0.206224
     3  O   -0.286415
     4  O   -0.214431
     5  O   -0.256451
     6  O   -0.245804
     7  N   -0.064353
     8  N   -0.073981
     9  N   -0.216480
    10  N   -0.273498
    11  C   -0.121810
    12  C    0.013694
    13  C   -0.144548
    14  C   -0.008212
    15  C   -0.035997
    16  C    0.070315
    17  C   -0.083382
    18  C   -0.155599
    19  C    0.112927
    20  C   -0.011810
    21  C    0.100104
    22  C    0.080116
    23  C    0.003894
    24  C    0.107401
    25  C   -0.081587
    26  C    0.055706
    27  C    0.134085
    28  C    0.047393
    29  C    0.117212
    30  C    0.101735
    31  C   -0.086552
    32  C   -0.020206
    33  C   -0.124563
    34  C    0.037841
    35  C   -0.077405
    36  C   -0.193893
    37  C    0.156363
    38  C    0.115782
    39  C    0.155864
    40  C    0.113922
    41  C    0.164791
    42  C    0.038754
    43  C   -0.042984
    44  H    0.189391
    45  H    0.070602
    46  H    0.023346
    47  H    0.006057
    48  H    0.020095
    49  H   -0.006320
    50  H   -0.009706
    51  H    0.001362
    52  H    0.151616
    53  H    0.011328
    54  H   -0.002332
    55  H    0.053066
    56  H    0.181604
    57  H    0.028234
    58  H    0.042253
    59  H    0.031249
    60  H    0.010989
    61  H    0.002176
    62  H    0.043070
    63  H    0.022428
    64  H   -0.060409
    65  H    0.020598
    66  H    0.036084
    67  H    0.037626
    68  H   -0.016563
    69  H    0.002549
    70  H   -0.011735
    71  H    0.051397
    72  H    0.015245
    73  H   -0.029711
    74  H    0.034616
    75  H    0.031860
    76  H    0.039040
    77  H    0.001993
    78  H    0.024218
    79  H    0.065410
    80  H    0.141603
    81  H    0.210615
 Sum of Mulliken charges =  -0.00000

 Dipole moment (field-independent basis, Debye):
    X=             -1.5236    Y=             -0.1588    Z=              0.0670  Tot=              1.5333
 Quadrupole moment (field-independent basis, Debye-Ang):
   XX=           -250.5675   YY=           -238.7569   ZZ=           -254.4094
   XY=              9.0412   XZ=             16.2042   YZ=            -14.7232

 Normal termination of Gaussian 16 at Mon Jul  1 02:27:18 2019.
