 Gaussian 16, Revision A.03,
 Gaussian 16:  ES64L-G16RevA.03 25-Dec-2016

 --------------------------
 # td=(NStates=1) B3LYP/SVP
 --------------------------

 --
 TD
 --
 Symbolic Z-matrix:
 Charge =  0 Multiplicity = 1

                         Standard orientation:
 ---------------------------------------------------------------------
 Center     Atomic      Atomic             Coordinates (Angstroms)
 Number     Number       Type             X           Y           Z
 ---------------------------------------------------------------------
      1          8           0       -4.499376   -4.769516    1.985629
      2          8           0        3.000305   -4.658655    1.368280
      3          8           0        7.189182   -1.308403    1.912206
      4          8           0        3.989078   -3.037693   -0.020149
      5          8           0        7.625042   -0.532002   -0.191355
      6          8           0       -3.063308    2.307011   -0.136949
      7          7           0       -0.239460   -0.600106   -0.678290
      8          7           0        1.499836    1.905304   -0.488710
      9          7           0       -3.243587   -3.139043    0.749834
     10          7           0       -0.835184    2.901435   -0.078016
     11          6           0        0.718691   -2.466842   -1.449109
     12          6           0        0.994615   -1.114532   -1.022631
     13          6           0       -0.728880   -2.684581   -1.222362
     14          6           0       -1.249998   -1.479484   -0.778079
     15          6           0        3.792827    1.449571   -0.282634
     16          6           0        2.472941    0.874791   -0.598713
     17          6           0        2.214002   -0.453367   -0.942744
     18          6           0        3.516230    2.859427    0.078935
     19          6           0        1.753384   -3.430792   -1.861988
     20          6           0       -5.534943   -2.661842    1.318875
     21          6           0       -3.551637   -1.852489    0.235707
     22          6           0        2.027693    3.071251    0.014384
     23          6           0       -4.997097   -1.646247    0.268627
     24          6           0        5.145194    0.803859   -0.349716
     25          6           0       -2.649884   -1.128469   -0.400287
     26          6           0       -1.428200   -3.908181   -1.670243
     27          6           0       -4.390359   -3.756675    1.346964
     28          6           0        2.194628   -4.527128   -0.870062
     29          6           0        5.436052   -0.116872    0.715145
     30          6           0        4.371508    3.932442    0.456677
     31          6           0        1.156494    4.128013    0.282624
     32          6           0       -6.876229   -3.299312    0.985231
     33          6           0       -5.809966   -0.655459   -0.205820
     34          6           0       -0.216437    3.955828    0.121879
     35          6           0       -1.136311    5.083613    0.466584
     36          6           0       -2.431528    4.623911    0.303647
     37          6           0        3.212751   -3.935501    0.174490
     38          6           0       -5.609509    0.254945   -1.357904
     39          6           0        6.901348   -0.622507    0.736010
     40          6           0       -3.736962    5.231609    0.525212
     41          6           0       -2.179742    3.164333    0.007670
     42          6           0       -0.723449    6.468073    0.751213
     43          6           0       -4.331810    5.632262   -0.806999
     44          1           0       -0.415566    0.230237   -0.012944
     45          1           0        3.048065   -0.966117   -1.222957
     46          1           0        2.406874   -2.736780   -2.285793
     47          1           0        1.162040   -4.114882   -2.633188
     48          1           0       -5.484801   -2.096570    2.501774
     49          1           0        5.271985    0.396192   -1.143730
     50          1           0        5.961163    1.560547   -0.697701
     51          1           0       -2.806223   -0.067457   -0.535380
     52          1           0        0.517272    1.900598   -0.562901
     53          1           0       -1.512184   -4.679213   -0.820051
     54          1           0       -2.454765   -3.400084   -2.223185
     55          1           0       -0.867272   -4.679907   -2.453318
     56          1           0       -2.280845   -3.588178    0.663781
     57          1           0        1.451436   -5.032317   -0.412886
     58          1           0        2.568921   -5.485317   -1.462016
     59          1           0        5.027124   -1.270392    0.733150
     60          1           0        5.308343    0.388537    1.776500
     61          1           0        4.661811    4.579271   -0.463665
     62          1           0        5.496093    3.722378    0.749556
     63          1           0        3.948707    4.692398    1.425992
     64          1           0        1.676943    4.989369    0.741811
     65          1           0       -7.737616   -2.563920    1.255791
     66          1           0       -7.088499   -4.091436    1.783789
     67          1           0       -7.142290   -3.416377    0.005952
     68          1           0       -6.945123   -0.806341    0.252679
     69          1           0       -4.928151    1.188280   -1.206017
     70          1           0       -6.582093    0.515559   -1.687332
     71          1           0       -4.994070   -0.074229   -2.372850
     72          1           0       -3.784836    6.245163    1.238264
     73          1           0       -4.309487    4.531427    1.054417
     74          1           0        0.183711    6.755935    1.455165
     75          1           0       -1.394326    7.150540    1.001419
     76          1           0       -0.308877    6.827041   -0.251167
     77          1           0       -3.837967    6.729569   -1.053774
     78          1           0       -5.403159    5.864377   -0.705302
     79          1           0       -4.230801    4.641215   -1.556343
     80          1           0        3.588664   -4.402567    2.008292
     81          1           0        8.078694   -1.677489    1.415637
 ---------------------------------------------------------------------

 SCF Done:  E(RB3LYP) =  -1948.98420759     A.U. after   16 cycles

 Excitation energies and oscillator strengths:

 Excited State   1:      Singlet-A      1.9481 eV  636.43 nm  f=0.4001  <S**2>=0.000
     156 ->157         0.70432
     156 <-157        -0.11691
 This state for optimization and/or second-order correction.
 Total Energy, E(TD-HF/TD-DFT) =  -1948.91261587
 Copying the excited state density for this state as the 1-particle RhoCI density.

 The electronic state is 1-A.
 Alpha  occ. eigenvalues --  -19.19363 -19.18793 -19.16702 -19.14051 -19.11475
 Alpha  occ. eigenvalues --  -19.10636 -14.37968 -14.37093 -14.35476 -14.28946
 Alpha  occ. eigenvalues --  -10.35210 -10.32070 -10.29339 -10.26965 -10.24198
 Alpha  occ. eigenvalues --  -10.24105 -10.23906 -10.23443 -10.23221 -10.22936
 Alpha  occ. eigenvalues --  -10.22599 -10.22381 -10.22217 -10.22099 -10.21919
 Alpha  occ. eigenvalues --  -10.21557 -10.21323 -10.21273 -10.21094 -10.20903
 Alpha  occ. eigenvalues --  -10.20371 -10.20146 -10.19937 -10.19841 -10.19570
 Alpha  occ. eigenvalues --  -10.19325 -10.19227 -10.19136 -10.19020 -10.18615
 Alpha  occ. eigenvalues --  -10.18581 -10.18372 -10.18307  -1.10774  -1.10074
 Alpha  occ. eigenvalues --   -1.04173  -1.03439  -1.01483  -1.01100  -0.98782
 Alpha  occ. eigenvalues --   -0.96884  -0.94468  -0.93923  -0.83185  -0.82479
 Alpha  occ. eigenvalues --   -0.81283  -0.80584  -0.80451  -0.78748  -0.77977
 Alpha  occ. eigenvalues --   -0.77353  -0.76609  -0.75395  -0.74051  -0.72793
 Alpha  occ. eigenvalues --   -0.70926  -0.69457  -0.69267  -0.68234  -0.67952
 Alpha  occ. eigenvalues --   -0.67059  -0.65449  -0.63650  -0.62725  -0.61677
 Alpha  occ. eigenvalues --   -0.60989  -0.59011  -0.57633  -0.56661  -0.55598
 Alpha  occ. eigenvalues --   -0.55452  -0.55200  -0.54808  -0.53527  -0.53240
 Alpha  occ. eigenvalues --   -0.52969  -0.52140  -0.51778  -0.51084  -0.50214
 Alpha  occ. eigenvalues --   -0.49422  -0.49223  -0.48345  -0.48029  -0.47570
 Alpha  occ. eigenvalues --   -0.47318  -0.46622  -0.46079  -0.45785  -0.45662
 Alpha  occ. eigenvalues --   -0.45146  -0.44777  -0.44345  -0.44131  -0.43961
 Alpha  occ. eigenvalues --   -0.43677  -0.43558  -0.42944  -0.42785  -0.42567
 Alpha  occ. eigenvalues --   -0.42227  -0.42074  -0.41730  -0.41430  -0.41148
 Alpha  occ. eigenvalues --   -0.40949  -0.40266  -0.40196  -0.39774  -0.39571
 Alpha  occ. eigenvalues --   -0.39404  -0.39103  -0.38935  -0.38517  -0.38347
 Alpha  occ. eigenvalues --   -0.37818  -0.37685  -0.37118  -0.36722  -0.36624
 Alpha  occ. eigenvalues --   -0.35578  -0.35370  -0.35180  -0.34426  -0.34304
 Alpha  occ. eigenvalues --   -0.33932  -0.33697  -0.33502  -0.33336  -0.32951
 Alpha  occ. eigenvalues --   -0.32605  -0.32480  -0.32163  -0.31303  -0.30272
 Alpha  occ. eigenvalues --   -0.28602  -0.27775  -0.26067  -0.25797  -0.25002
 Alpha  occ. eigenvalues --   -0.24669  -0.24513  -0.24162  -0.23515  -0.21791
 Alpha  occ. eigenvalues --   -0.18029
 Alpha virt. eigenvalues --   -0.10414  -0.06167  -0.04473  -0.03115  -0.01089
 Alpha virt. eigenvalues --    0.00939   0.01337   0.02256   0.02555   0.03401
 Alpha virt. eigenvalues --    0.03510   0.03963   0.04320   0.05099   0.05269

 Mulliken charges:
               1
     1  O   -0.191373
     2  O   -0.185009
     3  O   -0.261221
     4  O   -0.185189
     5  O   -0.206783
     6  O   -0.220500
     7  N   -0.074647
     8  N   -0.086579
     9  N   -0.196589
    10  N   -0.180025
    11  C   -0.132649
    12  C    0.086283
    13  C   -0.134034
    14  C    0.019742
    15  C   -0.097510
    16  C    0.099896
    17  C   -0.018569
    18  C   -0.050700
    19  C    0.090620
    20  C   -0.183699
    21  C    0.182432
    22  C    0.056155
    23  C   -0.009948
    24  C    0.289683
    25  C   -0.118782
    26  C   -0.064300
    27  C    0.181378
    28  C    0.075627
    29  C   -0.094574
    30  C   -0.074063
    31  C   -0.141760
    32  C    0.076987
    33  C   -0.115087
    34  C    0.105374
    35  C   -0.114338
    36  C   -0.133208
    37  C    0.176181
    38  C   -0.020092
    39  C    0.133776
    40  C    0.053326
    41  C    0.120662
    42  C    0.108752
    43  C   -0.061255
    44  H    0.173541
    45  H   -0.054590
    46  H    0.010064
    47  H    0.011647
    48  H    0.078183
    49  H   -0.111486
    50  H    0.015712
    51  H    0.009350
    52  H    0.092341
    53  H    0.033417
    54  H    0.082100
    55  H    0.034212
    56  H    0.152431
    57  H   -0.022473
    58  H    0.053653
    59  H    0.102780
    60  H    0.046278
    61  H    0.043025
    62  H    0.027323
    63  H    0.057484
    64  H   -0.026325
    65  H    0.003080
    66  H    0.042512
    67  H   -0.003010
    68  H    0.030378
    69  H    0.082683
    70  H    0.008517
    71  H    0.036105
    72  H    0.015215
    73  H    0.000692
    74  H    0.025311
    75  H   -0.035343
    76  H    0.027536
    77  H    0.032618
    78  H    0.011990
    79  H    0.058423
    80  H    0.148670
    81  H    0.201568
 Sum of Mulliken charges =  -0.00000

 Dipole moment (field-independent basis, Debye):
    X=              2.9931    Y=              0.5213    Z=             -0.2988  Tot=              3.0528
 Quadrupole moment (field-independent basis, Debye-Ang):
   XX=           -255.9588   YY=           -237.3870   ZZ=           -259.1540
   XY=            -18.0903   XZ=             11.4534   YZ=             13.4253

 Normal termination of Gaussian 16 at Sun Jun 30 10:33:15 2019.
