 Gaussian 16, Revision A.03,
 Gaussian 16:  ES64L-G16RevA.03 25-Dec-2016

 --------------------------
 # td=(NStates=1) B3LYP/SVP
 --------------------------

 --
 TD
 --
 Symbolic Z-matrix:
 Charge =  0 Multiplicity = 1

                         Standard orientation:
 ---------------------------------------------------------------------
 Center     Atomic      Atomic             Coordinates (Angstroms)
 Number     Number       Type             X           Y           Z
 ---------------------------------------------------------------------
      1          8           0       -4.356273   -4.698612    2.085828
      2          8           0        2.891203   -4.997474    1.173471
      3          8           0        7.051676   -1.366514    1.821883
      4          8           0        3.694690   -3.173368    0.143225
      5          8           0        7.614116   -0.597067   -0.163218
      6          8           0       -2.950926    2.465545   -0.250408
      7          7           0       -0.315955   -0.562153   -0.672659
      8          7           0        1.493283    1.799831   -0.452296
      9          7           0       -3.362557   -3.034252    0.707880
     10          7           0       -0.724329    3.036030   -0.060775
     11          6           0        0.630418   -2.483314   -1.426073
     12          6           0        0.897356   -1.134840   -0.942695
     13          6           0       -0.746336   -2.775006   -1.228486
     14          6           0       -1.384232   -1.434715   -0.752201
     15          6           0        3.738099    1.396084   -0.324766
     16          6           0        2.483472    0.809622   -0.497519
     17          6           0        2.152239   -0.523495   -0.808989
     18          6           0        3.515879    2.637848    0.111542
     19          6           0        1.742508   -3.453487   -1.909840
     20          6           0       -5.577920   -2.579022    1.400644
     21          6           0       -3.687674   -1.917902    0.083693
     22          6           0        2.119485    2.938688    0.044120
     23          6           0       -5.115191   -1.607493    0.323298
     24          6           0        5.132965    0.674467   -0.517177
     25          6           0       -2.677249   -1.023104   -0.563752
     26          6           0       -1.492884   -3.936398   -1.737279
     27          6           0       -4.410617   -3.637921    1.412324
     28          6           0        2.149755   -4.611079   -0.994266
     29          6           0        5.487382    0.021044    0.847569
     30          6           0        4.454319    3.744207    0.560835
     31          6           0        1.349391    4.123335    0.348538
     32          6           0       -6.876926   -3.246623    1.176763
     33          6           0       -5.932247   -0.571360   -0.162747
     34          6           0       -0.025639    4.066851    0.196506
     35          6           0       -0.966685    5.213677    0.406575
     36          6           0       -2.255134    4.759476    0.227127
     37          6           0        2.964083   -4.103233    0.184766
     38          6           0       -5.574707    0.385785   -1.287689
     39          6           0        6.839097   -0.655554    0.714433
     40          6           0       -3.568089    5.458456    0.356730
     41          6           0       -2.065817    3.307512   -0.045975
     42          6           0       -0.331624    6.585409    0.819022
     43          6           0       -4.254610    5.728040   -0.927519
     44          1           0       -0.205297    0.421510   -0.333142
     45          1           0        3.182774   -0.991303   -0.987508
     46          1           0        2.573300   -2.925184   -2.254144
     47          1           0        1.222628   -3.885568   -2.956636
     48          1           0       -5.627721   -2.184922    2.504723
     49          1           0        4.986035   -0.259222   -1.240069
     50          1           0        5.899053    1.271270   -0.970772
     51          1           0       -3.049731    0.038907   -0.783008
     52          1           0        0.384511    2.049817   -0.326589
     53          1           0       -1.473851   -4.689604   -0.932024
     54          1           0       -2.526319   -3.701198   -2.025260
     55          1           0       -1.274876   -4.576361   -2.664887
     56          1           0       -2.372898   -3.496036    0.568204
     57          1           0        1.089506   -5.157203   -0.786022
     58          1           0        2.822518   -5.338591   -1.637228
     59          1           0        4.885948   -0.914739    0.928767
     60          1           0        5.226363    0.734826    1.777649
     61          1           0        4.426879    4.626350   -0.185720
     62          1           0        5.513184    3.443579    0.443043
     63          1           0        4.448091    3.895468    1.681423
     64          1           0        1.766247    5.027916    0.806359
     65          1           0       -7.772167   -2.654874    1.414747
     66          1           0       -6.944305   -3.956931    2.024812
     67          1           0       -7.102714   -3.656571    0.254242
     68          1           0       -6.911731   -0.535639    0.204197
     69          1           0       -5.104772    1.306835   -0.700545
     70          1           0       -6.516479    0.522303   -1.998011
     71          1           0       -4.643395   -0.057892   -1.939948
     72          1           0       -3.316647    6.345257    0.989936
     73          1           0       -4.343384    4.919695    0.872012
     74          1           0        0.047429    6.497107    1.764394
     75          1           0       -1.339785    7.241057    0.906087
     76          1           0        0.224745    7.035536    0.042753
     77          1           0       -3.703609    6.386596   -1.656622
     78          1           0       -5.278714    6.125712   -0.589798
     79          1           0       -4.174166    4.883275   -1.318231
     80          1           0        3.629496   -4.575545    1.662898
     81          1           0        7.887664   -1.887661    1.773543
 ---------------------------------------------------------------------

 SCF Done:  E(RB3LYP) =  -1949.10999530     A.U. after   20 cycles

 Excitation energies and oscillator strengths:

 Excited State   1:      Singlet-A      1.7739 eV  698.92 nm  f=0.4525  <S**2>=0.000
     156 ->157         0.71424
     156 <-157        -0.14153
 This state for optimization and/or second-order correction.
 Total Energy, E(TD-HF/TD-DFT) =  -1949.04480393
 Copying the excited state density for this state as the 1-particle RhoCI density.

 The electronic state is 1-A.
 Alpha  occ. eigenvalues --  -19.20392 -19.17659 -19.15509 -19.12672 -19.12307
 Alpha  occ. eigenvalues --  -19.09711 -14.39438 -14.38157 -14.33713 -14.28501
 Alpha  occ. eigenvalues --  -10.33855 -10.31511 -10.30578 -10.26143 -10.25991
 Alpha  occ. eigenvalues --  -10.25159 -10.23250 -10.23088 -10.22574 -10.22170
 Alpha  occ. eigenvalues --  -10.21927 -10.21538 -10.21386 -10.21223 -10.21184
 Alpha  occ. eigenvalues --  -10.21113 -10.21098 -10.21075 -10.21064 -10.21030
 Alpha  occ. eigenvalues --  -10.20897 -10.20834 -10.20070 -10.19857 -10.19636
 Alpha  occ. eigenvalues --  -10.19484 -10.19164 -10.18549 -10.18334 -10.18245
 Alpha  occ. eigenvalues --  -10.18063 -10.18020 -10.16263  -1.13652  -1.10652
 Alpha  occ. eigenvalues --   -1.04387  -1.02759  -1.01666  -1.00540  -0.97960
 Alpha  occ. eigenvalues --   -0.96934  -0.96155  -0.93288  -0.81878  -0.81627
 Alpha  occ. eigenvalues --   -0.81288  -0.80637  -0.79979  -0.78171  -0.77444
 Alpha  occ. eigenvalues --   -0.77007  -0.76242  -0.75511  -0.74159  -0.72299
 Alpha  occ. eigenvalues --   -0.71033  -0.70180  -0.68933  -0.68219  -0.67316
 Alpha  occ. eigenvalues --   -0.67021  -0.65168  -0.63468  -0.62297  -0.61696
 Alpha  occ. eigenvalues --   -0.59492  -0.59087  -0.58574  -0.58496  -0.57530
 Alpha  occ. eigenvalues --   -0.55750  -0.55465  -0.54159  -0.53718  -0.52873
 Alpha  occ. eigenvalues --   -0.52057  -0.51641  -0.51472  -0.50958  -0.49861
 Alpha  occ. eigenvalues --   -0.49743  -0.49010  -0.48575  -0.48289  -0.47923
 Alpha  occ. eigenvalues --   -0.47179  -0.46828  -0.46028  -0.45610  -0.45308
 Alpha  occ. eigenvalues --   -0.45173  -0.44536  -0.44498  -0.44250  -0.44047
 Alpha  occ. eigenvalues --   -0.43737  -0.43364  -0.43108  -0.42806  -0.42464
 Alpha  occ. eigenvalues --   -0.42331  -0.41891  -0.41747  -0.41497  -0.40845
 Alpha  occ. eigenvalues --   -0.40525  -0.40287  -0.40019  -0.39985  -0.39184
 Alpha  occ. eigenvalues --   -0.38708  -0.38620  -0.38299  -0.38081  -0.37786
 Alpha  occ. eigenvalues --   -0.37607  -0.37319  -0.36933  -0.36701  -0.36129
 Alpha  occ. eigenvalues --   -0.35950  -0.35703  -0.35175  -0.34965  -0.34914
 Alpha  occ. eigenvalues --   -0.34755  -0.34180  -0.33706  -0.33596  -0.33341
 Alpha  occ. eigenvalues --   -0.33119  -0.32751  -0.32426  -0.31013  -0.29671
 Alpha  occ. eigenvalues --   -0.28566  -0.26811  -0.26775  -0.26034  -0.25473
 Alpha  occ. eigenvalues --   -0.25405  -0.24737  -0.24060  -0.23536  -0.21084
 Alpha  occ. eigenvalues --   -0.16767
 Alpha virt. eigenvalues --   -0.10009  -0.06333  -0.04283  -0.02234  -0.01755
 Alpha virt. eigenvalues --    0.01124   0.02177   0.02332   0.02931   0.04039
 Alpha virt. eigenvalues --    0.04856   0.05011   0.05362   0.05770   0.05950

 Mulliken charges:
               1
     1  O   -0.238898
     2  O   -0.144481
     3  O   -0.192766
     4  O   -0.197923
     5  O   -0.182845
     6  O   -0.236920
     7  N   -0.050158
     8  N   -0.226341
     9  N   -0.093149
    10  N   -0.232198
    11  C   -0.114709
    12  C    0.087460
    13  C   -0.140221
    14  C    0.122105
    15  C   -0.050434
    16  C    0.004012
    17  C   -0.041586
    18  C   -0.149345
    19  C    0.075862
    20  C   -0.106957
    21  C    0.017296
    22  C    0.072096
    23  C   -0.032136
    24  C    0.066339
    25  C   -0.127625
    26  C    0.007206
    27  C    0.164407
    28  C   -0.036345
    29  C   -0.061974
    30  C    0.083587
    31  C   -0.116288
    32  C    0.080822
    33  C   -0.073609
    34  C    0.051369
    35  C   -0.154029
    36  C   -0.196243
    37  C    0.143071
    38  C   -0.060540
    39  C    0.121154
    40  C    0.089659
    41  C    0.144183
    42  C    0.138527
    43  C    0.094322
    44  H    0.139014
    45  H    0.011385
    46  H   -0.008401
    47  H    0.025885
    48  H    0.067479
    49  H    0.026583
    50  H    0.026342
    51  H    0.061855
    52  H    0.209918
    53  H    0.025901
    54  H    0.031363
    55  H    0.035794
    56  H    0.177770
    57  H    0.056853
    58  H    0.070789
    59  H    0.048871
    60  H    0.075954
    61  H    0.042930
    62  H   -0.012755
    63  H    0.034413
    64  H   -0.020113
    65  H    0.000150
    66  H    0.020133
    67  H   -0.004037
    68  H   -0.021109
    69  H    0.108147
    70  H    0.048104
    71  H    0.056229
    72  H   -0.009389
    73  H   -0.008798
    74  H    0.016641
    75  H    0.013125
    76  H    0.026924
    77  H   -0.000951
    78  H    0.025105
    79  H   -0.049578
    80  H    0.163924
    81  H    0.181792
 Sum of Mulliken charges =  -0.00000

 Dipole moment (field-independent basis, Debye):
    X=              1.4684    Y=             -1.2156    Z=              0.3481  Tot=              1.9378
 Quadrupole moment (field-independent basis, Debye-Ang):
   XX=           -240.7915   YY=           -245.6560   ZZ=           -255.9018
   XY=            -14.5111   XZ=             15.8725   YZ=             16.2755

 Normal termination of Gaussian 16 at Thu Jul  4 20:57:59 2019.
