 Gaussian 16, Revision A.03,
 Gaussian 16:  ES64L-G16RevA.03 25-Dec-2016

 --------------------------
 # td=(NStates=1) B3LYP/SVP
 --------------------------

 --
 TD
 --
 Symbolic Z-matrix:
 Charge =  0 Multiplicity = 1

                         Standard orientation:
 ---------------------------------------------------------------------
 Center     Atomic      Atomic             Coordinates (Angstroms)
 Number     Number       Type             X           Y           Z
 ---------------------------------------------------------------------
      1          8           0        4.658488   -4.760399   -1.726429
      2          8           0       -2.725975   -5.042855   -1.266581
      3          8           0       -6.944340   -1.789928   -1.848074
      4          8           0       -3.662924   -3.275996   -0.154627
      5          8           0       -7.591654   -0.560704    0.016334
      6          8           0        2.953438    2.752653    0.350886
      7          7           0        0.273529   -0.502034    0.647501
      8          7           0       -1.648459    1.774028    0.421677
      9          7           0        3.355525   -3.051247   -0.701968
     10          7           0        0.689066    2.987978    0.186355
     11          6           0       -0.512346   -2.448104    1.370293
     12          6           0       -0.938667   -1.126074    1.038664
     13          6           0        0.822689   -2.571345    1.281834
     14          6           0        1.298959   -1.447283    0.623482
     15          6           0       -3.771074    1.346192    0.417053
     16          6           0       -2.518474    0.728994    0.704890
     17          6           0       -2.160989   -0.594982    1.033471
     18          6           0       -3.645045    2.631884   -0.017796
     19          6           0       -1.545537   -3.510419    1.890663
     20          6           0        5.651984   -2.574216   -1.381817
     21          6           0        3.630651   -1.762679   -0.117510
     22          6           0       -2.227581    2.866807    0.022895
     23          6           0        5.014774   -1.512923   -0.300701
     24          6           0       -5.020745    0.553419    0.472489
     25          6           0        2.684473   -1.067041    0.410867
     26          6           0        1.626103   -3.760047    1.685432
     27          6           0        4.573275   -3.679333   -1.239376
     28          6           0       -1.828097   -4.572064    0.858551
     29          6           0       -5.337063   -0.241196   -0.762955
     30          6           0       -4.723748    3.597670   -0.331729
     31          6           0       -1.501829    4.026944   -0.321788
     32          6           0        7.079133   -3.048522   -1.243533
     33          6           0        5.774975   -0.596423    0.162213
     34          6           0       -0.043236    4.031057   -0.290317
     35          6           0        0.829712    5.273157   -0.621660
     36          6           0        2.062783    4.882601   -0.408861
     37          6           0       -2.888844   -4.172538   -0.176052
     38          6           0        5.380930    0.470165    1.237117
     39          6           0       -6.755403   -0.888042   -0.749545
     40          6           0        3.386368    5.635797   -0.436482
     41          6           0        2.018071    3.429327    0.163933
     42          6           0        0.333032    6.576729   -1.109465
     43          6           0        4.082080    5.859386    0.922727
     44          1           0        0.474492    0.311413    0.198909
     45          1           0       -3.093960   -1.290697    1.056451
     46          1           0       -2.382310   -3.111027    2.316608
     47          1           0       -0.933393   -3.842810    2.792575
     48          1           0        5.685630   -1.905950   -2.418730
     49          1           0       -5.058394    0.026833    1.372550
     50          1           0       -6.031612    1.238582    0.508201
     51          1           0        2.894032    0.027644    0.328797
     52          1           0       -0.747351    1.851676    1.074716
     53          1           0        1.809842   -4.636338    1.122688
     54          1           0        2.677626   -3.574245    1.991333
     55          1           0        1.193775   -4.123638    2.530890
     56          1           0        2.399838   -3.346054   -0.614646
     57          1           0       -0.986665   -4.930628    0.161063
     58          1           0       -2.128062   -5.505105    1.225228
     59          1           0       -4.603880   -1.051016   -1.017449
     60          1           0       -5.392218    0.181567   -1.627694
     61          1           0       -4.658600    4.372659    0.844938
     62          1           0       -5.782029    3.103679   -0.519108
     63          1           0       -4.693427    4.106680   -1.240362
     64          1           0       -2.044911    4.943952   -0.749563
     65          1           0        7.686856   -2.091693   -1.456067
     66          1           0        7.182117   -3.988598   -1.876904
     67          1           0        7.184654   -3.291091   -0.234710
     68          1           0        6.719459   -0.599338   -0.096891
     69          1           0        5.077970    1.410438    0.623366
     70          1           0        6.351668    0.773952    1.989667
     71          1           0        4.629931    0.266305    1.923766
     72          1           0        3.221866    6.719852   -0.912406
     73          1           0        4.127548    5.094266   -0.991648
     74          1           0       -0.191339    6.511519   -2.099023
     75          1           0        1.261785    7.273541   -1.333230
     76          1           0       -0.431819    6.890535   -0.562203
     77          1           0        3.520547    6.397755    1.454524
     78          1           0        5.050199    6.359051    0.888284
     79          1           0        4.035136    4.901509    1.398128
     80          1           0       -3.328255   -4.717829   -1.871679
     81          1           0       -7.868501   -1.821982   -1.749284
 ---------------------------------------------------------------------

 SCF Done:  E(RB3LYP) =  -1949.03593515     A.U. after   16 cycles

 Excitation energies and oscillator strengths:

 Excited State   1:      Singlet-A      2.0132 eV  615.86 nm  f=0.4932  <S**2>=0.000
     156 ->157         0.71087
     156 <-157        -0.13031
 This state for optimization and/or second-order correction.
 Total Energy, E(TD-HF/TD-DFT) =  -1948.96195219
 Copying the excited state density for this state as the 1-particle RhoCI density.

 The electronic state is 1-A.
 Alpha  occ. eigenvalues --  -19.18467 -19.17687 -19.15842 -19.14471 -19.12589
 Alpha  occ. eigenvalues --  -19.10384 -14.37199 -14.36431 -14.35706 -14.28406
 Alpha  occ. eigenvalues --  -10.33918 -10.32437 -10.30491 -10.25800 -10.23751
 Alpha  occ. eigenvalues --  -10.23563 -10.23155 -10.23132 -10.23068 -10.22506
 Alpha  occ. eigenvalues --  -10.22320 -10.22238 -10.22003 -10.21571 -10.21278
 Alpha  occ. eigenvalues --  -10.20225 -10.19813 -10.19511 -10.19485 -10.19450
 Alpha  occ. eigenvalues --  -10.19448 -10.19406 -10.19398 -10.19388 -10.19019
 Alpha  occ. eigenvalues --  -10.18900 -10.18880 -10.18869 -10.18861 -10.18626
 Alpha  occ. eigenvalues --  -10.18504 -10.17741 -10.15178  -1.11428  -1.09896
 Alpha  occ. eigenvalues --   -1.05133  -1.03905  -1.03662  -1.02273  -0.99423
 Alpha  occ. eigenvalues --   -0.98153  -0.93928  -0.90264  -0.83391  -0.82510
 Alpha  occ. eigenvalues --   -0.81971  -0.81903  -0.79547  -0.79321  -0.78837
 Alpha  occ. eigenvalues --   -0.77631  -0.76430  -0.75262  -0.74772  -0.72907
 Alpha  occ. eigenvalues --   -0.71256  -0.70210  -0.69573  -0.69173  -0.67949
 Alpha  occ. eigenvalues --   -0.67209  -0.65209  -0.64845  -0.62299  -0.60954
 Alpha  occ. eigenvalues --   -0.60585  -0.58475  -0.58159  -0.57698  -0.57155
 Alpha  occ. eigenvalues --   -0.56401  -0.54997  -0.54723  -0.54087  -0.53628
 Alpha  occ. eigenvalues --   -0.52575  -0.51893  -0.51015  -0.50708  -0.49817
 Alpha  occ. eigenvalues --   -0.49651  -0.49488  -0.49111  -0.48582  -0.48261
 Alpha  occ. eigenvalues --   -0.47439  -0.46884  -0.46210  -0.45783  -0.45303
 Alpha  occ. eigenvalues --   -0.45137  -0.44595  -0.44540  -0.44149  -0.44031
 Alpha  occ. eigenvalues --   -0.43749  -0.43522  -0.43412  -0.43205  -0.42969
 Alpha  occ. eigenvalues --   -0.42389  -0.42121  -0.41746  -0.41622  -0.41259
 Alpha  occ. eigenvalues --   -0.41138  -0.40991  -0.40480  -0.40226  -0.39971
 Alpha  occ. eigenvalues --   -0.39887  -0.39546  -0.39380  -0.38906  -0.38741
 Alpha  occ. eigenvalues --   -0.38575  -0.37984  -0.37254  -0.36978  -0.36678
 Alpha  occ. eigenvalues --   -0.36155  -0.35967  -0.35467  -0.35261  -0.35098
 Alpha  occ. eigenvalues --   -0.34509  -0.34140  -0.33892  -0.33498  -0.33146
 Alpha  occ. eigenvalues --   -0.32633  -0.32571  -0.32407  -0.30660  -0.30516
 Alpha  occ. eigenvalues --   -0.29127  -0.27295  -0.27116  -0.26705  -0.26408
 Alpha  occ. eigenvalues --   -0.26034  -0.24962  -0.23723  -0.23362  -0.22011
 Alpha  occ. eigenvalues --   -0.17559
 Alpha virt. eigenvalues --   -0.09920  -0.05035  -0.03121  -0.02132  -0.01382
 Alpha virt. eigenvalues --    0.00472   0.01808   0.02331   0.03348   0.04649
 Alpha virt. eigenvalues --    0.05045   0.05376   0.05892   0.06024   0.06743

 Mulliken charges:
               1
     1  O   -0.167366
     2  O   -0.187014
     3  O   -0.210597
     4  O   -0.174759
     5  O   -0.184593
     6  O   -0.157427
     7  N   -0.079267
     8  N   -0.065090
     9  N   -0.196811
    10  N   -0.295347
    11  C   -0.136345
    12  C    0.162041
    13  C   -0.121842
    14  C    0.010215
    15  C   -0.047074
    16  C   -0.006613
    17  C   -0.107999
    18  C   -0.097223
    19  C    0.173380
    20  C   -0.167984
    21  C    0.165527
    22  C    0.057418
    23  C    0.043700
    24  C    0.066478
    25  C   -0.144339
    26  C    0.133273
    27  C    0.202060
    28  C    0.025276
    29  C    0.092855
    30  C    0.026529
    31  C   -0.150854
    32  C    0.063339
    33  C   -0.102925
    34  C    0.055031
    35  C   -0.100976
    36  C   -0.192933
    37  C    0.122827
    38  C   -0.004693
    39  C    0.127885
    40  C    0.042095
    41  C    0.124245
    42  C    0.156380
    43  C    0.096036
    44  H    0.098797
    45  H    0.052851
    46  H   -0.016931
    47  H    0.016129
    48  H    0.074768
    49  H   -0.002893
    50  H    0.028564
    51  H    0.036425
    52  H    0.193705
    53  H    0.011469
    54  H    0.012851
    55  H   -0.034676
    56  H    0.122089
    57  H    0.053305
    58  H    0.021872
    59  H    0.030464
    60  H   -0.040220
    61  H    0.058744
    62  H    0.025967
    63  H    0.013148
    64  H   -0.009190
    65  H    0.038428
    66  H    0.059580
    67  H   -0.007098
    68  H   -0.079103
    69  H    0.081993
    70  H    0.020214
    71  H    0.022077
    72  H   -0.000001
    73  H    0.003018
    74  H    0.008392
    75  H    0.034060
    76  H   -0.022009
    77  H   -0.059873
    78  H    0.010076
    79  H    0.010103
    80  H    0.143935
    81  H    0.142456
 Sum of Mulliken charges =  -0.00000

 Dipole moment (field-independent basis, Debye):
    X=             -1.9511    Y=             -0.6579    Z=             -0.1062  Tot=              2.0617
 Quadrupole moment (field-independent basis, Debye-Ang):
   XX=           -252.3539   YY=           -246.5560   ZZ=           -251.4501
   XY=              8.9561   XZ=             12.0767   YZ=            -14.8631

 Normal termination of Gaussian 16 at Thu Jun 27 11:29:53 2019.
