 Gaussian 16, Revision A.03,
 Gaussian 16:  ES64L-G16RevA.03 25-Dec-2016

 --------------------------
 # td=(NStates=1) B3LYP/SVP
 --------------------------

 --
 TD
 --
 Symbolic Z-matrix:
 Charge =  0 Multiplicity = 1

                         Standard orientation:
 ---------------------------------------------------------------------
 Center     Atomic      Atomic             Coordinates (Angstroms)
 Number     Number       Type             X           Y           Z
 ---------------------------------------------------------------------
      1          8           0        4.574876   -4.896000   -1.614290
      2          8           0       -3.026858   -4.878879   -1.401422
      3          8           0       -7.241694   -1.575607   -1.691881
      4          8           0       -3.887871   -3.119750   -0.089066
      5          8           0       -7.536444   -0.767329    0.375138
      6          8           0        3.099901    2.502738    0.227530
      7          7           0        0.345506   -0.500368    0.479493
      8          7           0       -1.558851    1.833509    0.264458
      9          7           0        3.343809   -3.160387   -0.582930
     10          7           0        0.836745    2.946638    0.117098
     11          6           0       -0.614191   -2.422026    1.332187
     12          6           0       -0.933559   -1.072443    0.947744
     13          6           0        0.786533   -2.588596    1.223814
     14          6           0        1.391376   -1.429546    0.681221
     15          6           0       -3.822110    1.415553    0.315738
     16          6           0       -2.446816    0.781651    0.450546
     17          6           0       -2.127434   -0.455265    0.810044
     18          6           0       -3.598319    2.772775    0.039075
     19          6           0       -1.608353   -3.404053    1.816012
     20          6           0        5.611076   -2.642228   -1.264608
     21          6           0        3.673362   -1.864127   -0.165466
     22          6           0       -2.140687    3.039115   -0.015254
     23          6           0        5.104433   -1.589752   -0.417669
     24          6           0       -5.063076    0.648984    0.369708
     25          6           0        2.668728   -1.018379    0.295658
     26          6           0        1.495665   -3.837665    1.736126
     27          6           0        4.562195   -3.725894   -1.226616
     28          6           0       -2.132321   -4.537352    0.916556
     29          6           0       -5.488766   -0.121005   -0.902341
     30          6           0       -4.584811    3.963141   -0.282145
     31          6           0       -1.311779    4.131514   -0.280551
     32          6           0        7.036263   -3.194619   -1.011433
     33          6           0        5.810554   -0.537727    0.178620
     34          6           0        0.135917    4.032383   -0.197816
     35          6           0        1.063688    5.135923   -0.534553
     36          6           0        2.314569    4.696933   -0.343286
     37          6           0       -3.038629   -3.990938   -0.258063
     38          6           0        5.271490    0.351059    1.215023
     39          6           0       -6.838022   -0.782044   -0.625157
     40          6           0        3.569136    5.383804   -0.465794
     41          6           0        2.117739    3.218324    0.093626
     42          6           0        0.480080    6.537822   -0.907848
     43          6           0        4.168197    5.799529    0.981377
     44          1           0        0.683703    0.318644   -0.091816
     45          1           0       -2.838057   -1.257218    1.043586
     46          1           0       -2.474667   -2.984256    2.492355
     47          1           0       -0.802084   -4.107213    2.457247
     48          1           0        5.507126   -2.396468   -2.238544
     49          1           0       -5.343999    0.048376    1.077308
     50          1           0       -5.732797    1.468712    0.657466
     51          1           0        2.883017    0.135811    0.236089
     52          1           0       -0.549665    2.000592    0.329519
     53          1           0        0.874344   -4.816067    1.199856
     54          1           0        2.728831   -3.822410    1.686217
     55          1           0        1.209760   -3.861546    2.873399
     56          1           0        2.411231   -3.487635   -0.574472
     57          1           0       -1.308240   -5.107200    0.340738
     58          1           0       -2.836966   -5.314681    1.439956
     59          1           0       -4.667358   -0.926987   -1.202767
     60          1           0       -5.755556    0.580039   -1.919968
     61          1           0       -4.350435    4.752867    0.489930
     62          1           0       -5.598300    3.681950   -0.106966
     63          1           0       -4.684449    4.452171   -1.254044
     64          1           0       -1.825287    4.886076   -0.632007
     65          1           0        7.932504   -2.718438   -1.800051
     66          1           0        7.043881   -4.384734   -1.464809
     67          1           0        7.409672   -3.091961    0.211439
     68          1           0        6.924997   -0.555118   -0.077807
     69          1           0        4.909772    1.169115    0.718601
     70          1           0        6.069067    0.862557    1.699431
     71          1           0        4.657292   -0.344593    1.763754
     72          1           0        3.487984    6.333367   -1.071555
     73          1           0        4.309508    4.668116   -1.067394
     74          1           0       -0.513159    6.219412   -1.607658
     75          1           0        1.148276    7.266700   -1.506247
     76          1           0        0.187938    6.896195    0.035203
     77          1           0        3.558326    6.690645    1.468599
     78          1           0        5.016229    6.161736    0.690397
     79          1           0        4.242489    4.862999    1.605126
     80          1           0       -3.634588   -4.235408   -1.964028
     81          1           0       -7.978843   -2.170368   -1.357838
 ---------------------------------------------------------------------

 SCF Done:  E(RB3LYP) =  -1949.02791935     A.U. after   16 cycles

 Excitation energies and oscillator strengths:

 Excited State   1:      Singlet-A      1.8870 eV  657.05 nm  f=0.4385  <S**2>=0.000
     156 ->157         0.71052
     156 <-157        -0.11967
 This state for optimization and/or second-order correction.
 Total Energy, E(TD-HF/TD-DFT) =  -1948.95857387
 Copying the excited state density for this state as the 1-particle RhoCI density.

 The electronic state is 1-A.
 Alpha  occ. eigenvalues --  -19.19988 -19.17256 -19.16291 -19.13197 -19.12890
 Alpha  occ. eigenvalues --  -19.09901 -14.37000 -14.36691 -14.35024 -14.28901
 Alpha  occ. eigenvalues --  -10.34559 -10.32443 -10.31166 -10.25987 -10.24654
 Alpha  occ. eigenvalues --  -10.24313 -10.23900 -10.23711 -10.23550 -10.23496
 Alpha  occ. eigenvalues --  -10.23419 -10.23413 -10.23318 -10.23315 -10.23164
 Alpha  occ. eigenvalues --  -10.21527 -10.21430 -10.21328 -10.21194 -10.20952
 Alpha  occ. eigenvalues --  -10.20537 -10.20504 -10.20214 -10.20039 -10.20032
 Alpha  occ. eigenvalues --  -10.19463 -10.19014 -10.18987 -10.18521 -10.18147
 Alpha  occ. eigenvalues --  -10.18020 -10.17293 -10.16738  -1.08746  -1.08092
 Alpha  occ. eigenvalues --   -1.03435  -1.01448  -1.00988  -0.99178  -0.97225
 Alpha  occ. eigenvalues --   -0.95335  -0.94448  -0.93283  -0.83415  -0.82985
 Alpha  occ. eigenvalues --   -0.82194  -0.81306  -0.79259  -0.78793  -0.77508
 Alpha  occ. eigenvalues --   -0.77184  -0.76862  -0.75304  -0.73786  -0.71877
 Alpha  occ. eigenvalues --   -0.70731  -0.69288  -0.68415  -0.67792  -0.67321
 Alpha  occ. eigenvalues --   -0.66744  -0.65598  -0.64599  -0.62861  -0.61771
 Alpha  occ. eigenvalues --   -0.59378  -0.58659  -0.58429  -0.57593  -0.55967
 Alpha  occ. eigenvalues --   -0.55711  -0.55147  -0.54001  -0.53517  -0.52401
 Alpha  occ. eigenvalues --   -0.52121  -0.51154  -0.50738  -0.50526  -0.49458
 Alpha  occ. eigenvalues --   -0.49419  -0.49195  -0.48345  -0.48248  -0.47568
 Alpha  occ. eigenvalues --   -0.47190  -0.46882  -0.46216  -0.45528  -0.45260
 Alpha  occ. eigenvalues --   -0.44664  -0.44453  -0.44238  -0.43813  -0.43373
 Alpha  occ. eigenvalues --   -0.43242  -0.43129  -0.42869  -0.42392  -0.42161
 Alpha  occ. eigenvalues --   -0.41871  -0.41386  -0.41234  -0.41143  -0.40745
 Alpha  occ. eigenvalues --   -0.40489  -0.40374  -0.40004  -0.39895  -0.39561
 Alpha  occ. eigenvalues --   -0.39369  -0.38874  -0.38753  -0.38439  -0.38194
 Alpha  occ. eigenvalues --   -0.38089  -0.37573  -0.37129  -0.36547  -0.36379
 Alpha  occ. eigenvalues --   -0.36259  -0.36027  -0.35704  -0.35374  -0.35167
 Alpha  occ. eigenvalues --   -0.34921  -0.33858  -0.33730  -0.33605  -0.33130
 Alpha  occ. eigenvalues --   -0.32914  -0.32757  -0.31806  -0.30729  -0.30001
 Alpha  occ. eigenvalues --   -0.28441  -0.27915  -0.27408  -0.26091  -0.25346
 Alpha  occ. eigenvalues --   -0.25244  -0.24532  -0.23629  -0.22997  -0.21763
 Alpha  occ. eigenvalues --   -0.17526
 Alpha virt. eigenvalues --   -0.10159  -0.05935  -0.04336  -0.03988  -0.01593
 Alpha virt. eigenvalues --   -0.00946   0.00717   0.02027   0.02792   0.03826
 Alpha virt. eigenvalues --    0.04311   0.04342   0.04679   0.05210   0.05737

 Mulliken charges:
               1
     1  O   -0.202713
     2  O   -0.261605
     3  O   -0.241526
     4  O   -0.235008
     5  O   -0.234029
     6  O   -0.225215
     7  N   -0.200593
     8  N   -0.088523
     9  N   -0.160786
    10  N   -0.215557
    11  C   -0.031328
    12  C    0.065078
    13  C   -0.147566
    14  C    0.110375
    15  C   -0.052255
    16  C    0.166721
    17  C   -0.061057
    18  C   -0.110572
    19  C   -0.023534
    20  C    0.126955
    21  C    0.039436
    22  C    0.021036
    23  C   -0.066767
    24  C    0.175405
    25  C   -0.175043
    26  C   -0.082098
    27  C    0.125621
    28  C   -0.002285
    29  C   -0.086299
    30  C    0.082233
    31  C   -0.025566
    32  C   -0.127550
    33  C   -0.177673
    34  C    0.094457
    35  C   -0.099176
    36  C   -0.153856
    37  C    0.170302
    38  C    0.197748
    39  C    0.165203
    40  C   -0.026122
    41  C    0.110920
    42  C    0.050959
    43  C    0.039742
    44  H    0.161416
    45  H   -0.008916
    46  H    0.064413
    47  H    0.030813
    48  H    0.013092
    49  H   -0.044514
    50  H    0.000847
    51  H    0.068178
    52  H    0.113977
    53  H    0.051161
    54  H    0.081264
    55  H    0.062030
    56  H    0.125962
    57  H    0.048357
    58  H    0.079857
    59  H    0.083154
    60  H    0.066234
    61  H    0.029424
    62  H   -0.010351
    63  H    0.032759
    64  H   -0.107094
    65  H    0.044462
    66  H    0.071167
    67  H    0.067366
    68  H    0.009599
    69  H    0.024508
    70  H   -0.018881
    71  H    0.048975
    72  H   -0.001280
    73  H    0.028152
    74  H    0.043176
    75  H    0.039336
    76  H    0.026035
    77  H    0.027104
    78  H   -0.028693
    79  H    0.045793
    80  H    0.207362
    81  H    0.195863
 Sum of Mulliken charges =  -0.00000

 Dipole moment (field-independent basis, Debye):
    X=             -0.8939    Y=              0.2991    Z=             -0.7758  Tot=              1.2208
 Quadrupole moment (field-independent basis, Debye-Ang):
   XX=           -250.8326   YY=           -248.7521   ZZ=           -255.3258
   XY=             12.3371   XZ=              9.4758   YZ=            -11.9295

 Normal termination of Gaussian 16 at Fri Jul  5 04:18:50 2019.
