 Gaussian 16, Revision A.03,
 Gaussian 16:  ES64L-G16RevA.03 25-Dec-2016

 --------------------------
 # td=(NStates=1) B3LYP/SVP
 --------------------------

 --
 TD
 --
 Symbolic Z-matrix:
 Charge =  0 Multiplicity = 1

                         Standard orientation:
 ---------------------------------------------------------------------
 Center     Atomic      Atomic             Coordinates (Angstroms)
 Number     Number       Type             X           Y           Z
 ---------------------------------------------------------------------
      1          8           0        4.741613   -4.607864   -1.949378
      2          8           0       -2.674529   -4.933445   -1.319292
      3          8           0       -6.847287   -1.760456   -1.931652
      4          8           0       -3.444016   -3.174520   -0.187870
      5          8           0       -7.524371   -1.006407    0.046595
      6          8           0        2.900824    2.642654    0.245303
      7          7           0        0.275826   -0.604778    0.720189
      8          7           0       -1.653665    1.667160    0.403186
      9          7           0        3.538897   -3.064093   -0.729791
     10          7           0        0.592862    2.976510    0.156013
     11          6           0       -0.445100   -2.491775    1.469271
     12          6           0       -0.925631   -1.182461    1.072077
     13          6           0        0.907311   -2.692892    1.358851
     14          6           0        1.389176   -1.499432    0.666158
     15          6           0       -3.868214    1.341673    0.370288
     16          6           0       -2.532768    0.716621    0.612805
     17          6           0       -2.176904   -0.570274    1.054803
     18          6           0       -3.620161    2.605292    0.043961
     19          6           0       -1.406090   -3.591049    1.958416
     20          6           0        5.726278   -2.448821   -1.359593
     21          6           0        3.647148   -1.765694   -0.207319
     22          6           0       -2.257054    2.827058    0.078058
     23          6           0        5.075445   -1.298793   -0.400367
     24          6           0       -5.195289    0.589801    0.365875
     25          6           0        2.654886   -1.007583    0.347189
     26          6           0        1.712225   -3.935943    1.846908
     27          6           0        4.628840   -3.472574   -1.477253
     28          6           0       -1.707308   -4.562921    0.857778
     29          6           0       -5.372160   -0.310095   -0.840921
     30          6           0       -4.797962    3.584702   -0.258129
     31          6           0       -1.543497    4.014207   -0.341942
     32          6           0        7.129420   -2.923494   -0.964695
     33          6           0        5.650271   -0.343582    0.231519
     34          6           0       -0.089191    4.106413   -0.113864
     35          6           0        0.759527    5.240589   -0.452896
     36          6           0        2.001331    4.880026   -0.454505
     37          6           0       -2.654997   -4.127221   -0.240687
     38          6           0        5.218019    0.682225    1.298967
     39          6           0       -6.639694   -1.026882   -0.812583
     40          6           0        3.309007    5.579257   -0.597366
     41          6           0        1.909702    3.394398    0.119760
     42          6           0        0.204133    6.537781   -0.872551
     43          6           0        3.846115    6.098994    0.774431
     44          1           0        0.356815    0.238986    0.133713
     45          1           0       -3.136581   -1.231236    1.417663
     46          1           0       -2.532865   -3.232378    2.390665
     47          1           0       -0.798264   -4.095061    2.813548
     48          1           0        5.519409   -1.879728   -2.325145
     49          1           0       -5.184896    0.058036    1.319607
     50          1           0       -6.016913    1.325106    0.393000
     51          1           0        2.824777   -0.020765    0.280585
     52          1           0       -0.660489    1.657214    0.912847
     53          1           0        1.593570   -4.876167    1.227336
     54          1           0        2.807706   -3.943695    1.852180
     55          1           0        1.384448   -4.447939    2.779845
     56          1           0        2.824307   -3.790583   -0.633638
     57          1           0       -0.832682   -5.017263    0.452979
     58          1           0       -2.330372   -5.483328    1.289349
     59          1           0       -4.676550   -1.074411   -1.137457
     60          1           0       -5.462909    0.434617   -1.649088
     61          1           0       -4.600370    4.494454    0.199532
     62          1           0       -5.778798    3.096891   -0.008207
     63          1           0       -4.838247    3.631330   -1.401306
     64          1           0       -2.185272    4.936214   -0.464658
     65          1           0        7.727016   -2.166074   -0.986559
     66          1           0        7.382647   -3.840556   -1.757289
     67          1           0        7.046526   -3.376441    0.104902
     68          1           0        6.740608   -0.273520    0.021534
     69          1           0        4.652993    1.330254    0.555006
     70          1           0        6.166314    1.204874    1.904235
     71          1           0        4.334366    0.069527    1.756073
     72          1           0        3.300371    6.495130   -1.361912
     73          1           0        4.190986    5.079333   -1.043921
     74          1           0       -0.652389    6.634979   -1.508528
     75          1           0        0.950274    7.247197   -1.029454
     76          1           0       -0.389812    6.952796   -0.017497
     77          1           0        3.294730    7.047636    1.179367
     78          1           0        4.902515    6.600440    0.667784
     79          1           0        3.724426    5.337173    1.452618
     80          1           0       -3.642231   -4.745800   -1.673509
     81          1           0       -7.721361   -2.165826   -1.977691
 ---------------------------------------------------------------------

 SCF Done:  E(RB3LYP) =  -1949.10795319     A.U. after   17 cycles

 Excitation energies and oscillator strengths:

 Excited State   1:      Singlet-A      1.8544 eV  668.60 nm  f=0.4571  <S**2>=0.000
     156 ->157         0.71485
     156 <-157        -0.14579
 This state for optimization and/or second-order correction.
 Total Energy, E(TD-HF/TD-DFT) =  -1949.03980616
 Copying the excited state density for this state as the 1-particle RhoCI density.

 The electronic state is 1-A.
 Alpha  occ. eigenvalues --  -19.19763 -19.17417 -19.13812 -19.11790 -19.11058
 Alpha  occ. eigenvalues --  -19.09745 -14.37836 -14.37670 -14.36426 -14.28910
 Alpha  occ. eigenvalues --  -10.33572 -10.31619 -10.29296 -10.26180 -10.25051
 Alpha  occ. eigenvalues --  -10.24319 -10.23533 -10.23386 -10.22880 -10.22793
 Alpha  occ. eigenvalues --  -10.22684 -10.22667 -10.22061 -10.21717 -10.21582
 Alpha  occ. eigenvalues --  -10.21296 -10.20503 -10.20403 -10.20385 -10.20244
 Alpha  occ. eigenvalues --  -10.20057 -10.20053 -10.19914 -10.19850 -10.19848
 Alpha  occ. eigenvalues --  -10.19477 -10.19365 -10.19029 -10.18704 -10.18449
 Alpha  occ. eigenvalues --  -10.18437 -10.18285 -10.18026  -1.10327  -1.08797
 Alpha  occ. eigenvalues --   -1.02957  -1.00290  -1.00068  -0.99362  -0.98754
 Alpha  occ. eigenvalues --   -0.97407  -0.94775  -0.91670  -0.82814  -0.82379
 Alpha  occ. eigenvalues --   -0.81944  -0.81283  -0.80289  -0.79661  -0.77958
 Alpha  occ. eigenvalues --   -0.77823  -0.76167  -0.75197  -0.74258  -0.71877
 Alpha  occ. eigenvalues --   -0.71078  -0.69861  -0.69482  -0.68762  -0.68446
 Alpha  occ. eigenvalues --   -0.67448  -0.65984  -0.64847  -0.62626  -0.61285
 Alpha  occ. eigenvalues --   -0.60208  -0.59599  -0.58650  -0.57615  -0.57292
 Alpha  occ. eigenvalues --   -0.55937  -0.55297  -0.53931  -0.53889  -0.53065
 Alpha  occ. eigenvalues --   -0.52153  -0.51756  -0.51456  -0.50424  -0.50052
 Alpha  occ. eigenvalues --   -0.49798  -0.49177  -0.48673  -0.48102  -0.47494
 Alpha  occ. eigenvalues --   -0.46997  -0.46831  -0.46468  -0.45989  -0.45068
 Alpha  occ. eigenvalues --   -0.44468  -0.44181  -0.43937  -0.43587  -0.43052
 Alpha  occ. eigenvalues --   -0.42707  -0.42507  -0.42416  -0.42321  -0.42194
 Alpha  occ. eigenvalues --   -0.42028  -0.41657  -0.41315  -0.41094  -0.40483
 Alpha  occ. eigenvalues --   -0.40175  -0.40077  -0.39840  -0.39789  -0.39504
 Alpha  occ. eigenvalues --   -0.39347  -0.39221  -0.39000  -0.38793  -0.38624
 Alpha  occ. eigenvalues --   -0.38355  -0.37820  -0.37196  -0.37092  -0.36722
 Alpha  occ. eigenvalues --   -0.36444  -0.35962  -0.35683  -0.35024  -0.34847
 Alpha  occ. eigenvalues --   -0.34638  -0.34547  -0.34108  -0.33026  -0.32122
 Alpha  occ. eigenvalues --   -0.31528  -0.31509  -0.30434  -0.29897  -0.29024
 Alpha  occ. eigenvalues --   -0.27742  -0.27369  -0.26843  -0.26483  -0.26092
 Alpha  occ. eigenvalues --   -0.25847  -0.25525  -0.23844  -0.23451  -0.21689
 Alpha  occ. eigenvalues --   -0.17207
 Alpha virt. eigenvalues --   -0.10259  -0.05368  -0.03350  -0.01960   0.00169
 Alpha virt. eigenvalues --    0.00612   0.02168   0.02605   0.02989   0.04002
 Alpha virt. eigenvalues --    0.04128   0.04892   0.05128   0.05515   0.05621

 Mulliken charges:
               1
     1  O   -0.236644
     2  O   -0.210491
     3  O   -0.197873
     4  O   -0.257286
     5  O   -0.252365
     6  O   -0.244542
     7  N   -0.141478
     8  N   -0.048210
     9  N   -0.124679
    10  N   -0.278492
    11  C   -0.111919
    12  C    0.098701
    13  C   -0.078224
    14  C    0.076310
    15  C   -0.095412
    16  C   -0.035564
    17  C   -0.064670
    18  C   -0.131640
    19  C    0.040158
    20  C   -0.013533
    21  C    0.090824
    22  C    0.014591
    23  C   -0.004401
    24  C    0.130526
    25  C   -0.042672
    26  C    0.041401
    27  C    0.078632
    28  C    0.022910
    29  C    0.055936
    30  C    0.127135
    31  C   -0.088365
    32  C    0.093514
    33  C   -0.247086
    34  C    0.056868
    35  C   -0.057644
    36  C   -0.168453
    37  C    0.132381
    38  C    0.015679
    39  C    0.115646
    40  C    0.026067
    41  C    0.147134
    42  C    0.173909
    43  C   -0.014799
    44  H    0.150213
    45  H    0.050512
    46  H    0.046199
    47  H    0.021840
    48  H    0.045120
    49  H    0.017227
    50  H    0.002216
    51  H   -0.051046
    52  H    0.197796
    53  H    0.009840
    54  H    0.027256
    55  H    0.019063
    56  H    0.135162
    57  H    0.017805
    58  H    0.058314
    59  H    0.049705
    60  H    0.032467
    61  H    0.019482
    62  H    0.014895
    63  H    0.028725
    64  H   -0.012885
    65  H   -0.013435
    66  H    0.063188
    67  H    0.036406
    68  H   -0.010165
    69  H    0.099310
    70  H    0.060513
    71  H    0.046140
    72  H    0.003182
    73  H    0.014691
    74  H    0.002469
    75  H   -0.008158
    76  H   -0.011664
    77  H    0.008047
    78  H    0.021154
    79  H    0.016324
    80  H    0.219930
    81  H    0.180285
 Sum of Mulliken charges =  -0.00000

 Dipole moment (field-independent basis, Debye):
    X=             -2.2906    Y=             -0.5101    Z=              0.2418  Tot=              2.3591
 Quadrupole moment (field-independent basis, Debye-Ang):
   XX=           -250.9855   YY=           -235.2040   ZZ=           -257.3961
   XY=             13.1318   XZ=             18.9944   YZ=            -13.6061

 Normal termination of Gaussian 16 at Sat Jun 29 15:44:22 2019.
