 Gaussian 16, Revision A.03,
 Gaussian 16:  ES64L-G16RevA.03 25-Dec-2016

 --------------------------
 # td=(NStates=1) B3LYP/SVP
 --------------------------

 --
 TD
 --
 Symbolic Z-matrix:
 Charge =  0 Multiplicity = 1

                         Standard orientation:
 ---------------------------------------------------------------------
 Center     Atomic      Atomic             Coordinates (Angstroms)
 Number     Number       Type             X           Y           Z
 ---------------------------------------------------------------------
      1          8           0       -4.143788   -4.821336    1.966253
      2          8           0        3.090137   -4.838783    1.191741
      3          8           0        6.964480   -1.244937    1.951604
      4          8           0        3.922890   -3.017258    0.069454
      5          8           0        7.444612   -0.561948   -0.077390
      6          8           0       -3.065648    2.333334   -0.161404
      7          7           0       -0.246796   -0.576886   -0.606962
      8          7           0        1.488800    1.794204   -0.388267
      9          7           0       -3.287489   -3.180337    0.564025
     10          7           0       -0.813159    2.908344   -0.153590
     11          6           0        0.719808   -2.319693   -1.410233
     12          6           0        1.027344   -0.994152   -0.972255
     13          6           0       -0.609783   -2.623339   -1.314290
     14          6           0       -1.222383   -1.472878   -0.734502
     15          6           0        3.777992    1.548618   -0.483873
     16          6           0        2.466331    0.918638   -0.588496
     17          6           0        2.264065   -0.394718   -0.932838
     18          6           0        3.432344    2.899427   -0.073959
     19          6           0        1.656530   -3.449907   -1.999866
     20          6           0       -5.395551   -2.815413    1.394590
     21          6           0       -3.532216   -2.002005    0.051205
     22          6           0        2.023624    2.971681   -0.173210
     23          6           0       -4.877789   -1.721333    0.343468
     24          6           0        5.131900    0.897839   -0.394365
     25          6           0       -2.572652   -1.219746   -0.563066
     26          6           0       -1.339466   -3.808246   -1.709137
     27          6           0       -4.239462   -3.840876    1.405929
     28          6           0        2.205801   -4.502194   -0.928092
     29          6           0        5.383937    0.068291    0.858757
     30          6           0        4.406461    4.003941    0.415022
     31          6           0        1.227778    4.079192    0.279275
     32          6           0       -6.697916   -3.541312    1.115122
     33          6           0       -5.778027   -0.881262   -0.222623
     34          6           0       -0.193138    4.024056    0.170612
     35          6           0       -1.228710    5.200340    0.445817
     36          6           0       -2.447034    4.645452    0.344484
     37          6           0        3.170766   -3.991687    0.201066
     38          6           0       -5.548533    0.209478   -1.170828
     39          6           0        6.702144   -0.576452    0.920545
     40          6           0       -3.784884    5.252891    0.440041
     41          6           0       -2.278538    3.155009   -0.022069
     42          6           0       -0.758869    6.582917    0.859702
     43          6           0       -4.486364    5.734585   -0.833463
     44          1           0       -0.342589    0.281388   -0.066547
     45          1           0        3.115722   -1.120074   -1.096843
     46          1           0        2.565132   -3.091335   -2.588880
     47          1           0        1.192723   -4.064601   -2.665323
     48          1           0       -5.661047   -2.429062    2.406806
     49          1           0        5.254429    0.182234   -1.222070
     50          1           0        5.962620    1.758606   -0.499663
     51          1           0       -2.894533   -0.182951   -0.581886
     52          1           0        0.405280    1.955673   -0.503160
     53          1           0       -0.990655   -4.598554   -0.936115
     54          1           0       -2.452379   -3.372821   -1.876835
     55          1           0       -0.706989   -4.048929   -2.714340
     56          1           0       -2.344487   -3.773566    0.382410
     57          1           0        1.142043   -4.811870   -0.420271
     58          1           0        2.618463   -5.276194   -1.625535
     59          1           0        4.637461   -0.665830    0.921470
     60          1           0        5.166544    0.798603    1.708876
     61          1           0        4.048742    4.985105   -0.004553
     62          1           0        5.316054    3.877381    0.233461
     63          1           0        4.177284    4.072464    1.349859
     64          1           0        1.552980    4.971317    0.822397
     65          1           0       -7.685297   -2.970899    1.891035
     66          1           0       -6.525619   -4.536304    1.825365
     67          1           0       -6.879993   -3.513830   -0.099640
     68          1           0       -6.758054   -0.832118    0.216633
     69          1           0       -5.331889    1.403258   -0.788834
     70          1           0       -6.611354    0.477079   -1.704009
     71          1           0       -4.833781   -0.166562   -1.959315
     72          1           0       -3.749777    5.962619    1.503514
     73          1           0       -4.455804    4.530811    0.973491
     74          1           0       -0.190631    6.474110    1.769157
     75          1           0       -1.624092    7.309607    1.132955
     76          1           0       -0.222546    7.210962   -0.024771
     77          1           0       -4.012569    6.858309   -1.053952
     78          1           0       -5.521631    5.947707   -0.207917
     79          1           0       -4.455183    5.077847   -1.861014
     80          1           0        3.916450   -4.704231    1.890914
     81          1           0        7.854959   -1.608040    1.733789
 ---------------------------------------------------------------------

 SCF Done:  E(RB3LYP) =  -1948.97362047     A.U. after   16 cycles

 Excitation energies and oscillator strengths:

 Excited State   1:      Singlet-A      1.8845 eV  657.93 nm  f=0.4449  <S**2>=0.000
     156 ->157         0.71025
     156 <-157        -0.12890
 This state for optimization and/or second-order correction.
 Total Energy, E(TD-HF/TD-DFT) =  -1948.90436787
 Copying the excited state density for this state as the 1-particle RhoCI density.

 The electronic state is 1-A.
 Alpha  occ. eigenvalues --  -19.21847 -19.19975 -19.14438 -19.13744 -19.11504
 Alpha  occ. eigenvalues --  -19.10734 -14.37444 -14.37116 -14.34072 -14.28361
 Alpha  occ. eigenvalues --  -10.34292 -10.31104 -10.30011 -10.26883 -10.24211
 Alpha  occ. eigenvalues --  -10.23241 -10.22959 -10.22298 -10.21988 -10.21974
 Alpha  occ. eigenvalues --  -10.21972 -10.21878 -10.21720 -10.21694 -10.20800
 Alpha  occ. eigenvalues --  -10.20720 -10.20467 -10.20433 -10.20386 -10.20280
 Alpha  occ. eigenvalues --  -10.20168 -10.19968 -10.19899 -10.19842 -10.19517
 Alpha  occ. eigenvalues --  -10.19267 -10.18932 -10.18925 -10.18324 -10.17991
 Alpha  occ. eigenvalues --  -10.17827 -10.17207 -10.16710  -1.13694  -1.11285
 Alpha  occ. eigenvalues --   -1.09458  -1.05887  -1.01487  -0.99406  -0.98726
 Alpha  occ. eigenvalues --   -0.98534  -0.97662  -0.89980  -0.81960  -0.81515
 Alpha  occ. eigenvalues --   -0.81077  -0.80652  -0.79438  -0.78647  -0.77219
 Alpha  occ. eigenvalues --   -0.76882  -0.75705  -0.74228  -0.73929  -0.71705
 Alpha  occ. eigenvalues --   -0.71531  -0.69846  -0.68610  -0.68095  -0.67653
 Alpha  occ. eigenvalues --   -0.67121  -0.64875  -0.62900  -0.61892  -0.61156
 Alpha  occ. eigenvalues --   -0.60561  -0.59909  -0.58022  -0.56951  -0.56141
 Alpha  occ. eigenvalues --   -0.55339  -0.55144  -0.54012  -0.52766  -0.52247
 Alpha  occ. eigenvalues --   -0.51594  -0.51036  -0.50603  -0.50268  -0.50117
 Alpha  occ. eigenvalues --   -0.49343  -0.49248  -0.48915  -0.48781  -0.48418
 Alpha  occ. eigenvalues --   -0.47338  -0.46899  -0.46218  -0.45997  -0.45692
 Alpha  occ. eigenvalues --   -0.45571  -0.44895  -0.44312  -0.43985  -0.43704
 Alpha  occ. eigenvalues --   -0.43596  -0.43323  -0.43138  -0.42565  -0.42251
 Alpha  occ. eigenvalues --   -0.41687  -0.41416  -0.41337  -0.40977  -0.40823
 Alpha  occ. eigenvalues --   -0.40444  -0.40333  -0.39823  -0.39457  -0.39322
 Alpha  occ. eigenvalues --   -0.39231  -0.39123  -0.38647  -0.38587  -0.37743
 Alpha  occ. eigenvalues --   -0.37282  -0.37118  -0.36779  -0.36434  -0.36239
 Alpha  occ. eigenvalues --   -0.35806  -0.35228  -0.35097  -0.34348  -0.34149
 Alpha  occ. eigenvalues --   -0.34042  -0.33492  -0.33091  -0.32813  -0.32626
 Alpha  occ. eigenvalues --   -0.32370  -0.31234  -0.30490  -0.29991  -0.29324
 Alpha  occ. eigenvalues --   -0.28037  -0.27693  -0.26934  -0.26222  -0.25254
 Alpha  occ. eigenvalues --   -0.24720  -0.24176  -0.23685  -0.23539  -0.20617
 Alpha  occ. eigenvalues --   -0.16289
 Alpha virt. eigenvalues --   -0.09032  -0.05062  -0.03430  -0.02178  -0.00870
 Alpha virt. eigenvalues --   -0.00087   0.01209   0.01418   0.03368   0.03432
 Alpha virt. eigenvalues --    0.03994   0.04780   0.04968   0.05287   0.05639

 Mulliken charges:
               1
     1  O   -0.101597
     2  O   -0.191607
     3  O   -0.086031
     4  O   -0.245587
     5  O   -0.291050
     6  O   -0.103967
     7  N   -0.028407
     8  N   -0.047522
     9  N   -0.171101
    10  N   -0.372785
    11  C   -0.082243
    12  C    0.055420
    13  C   -0.179025
    14  C    0.083916
    15  C   -0.089143
    16  C    0.071069
    17  C   -0.111564
    18  C   -0.218642
    19  C    0.113004
    20  C   -0.096822
    21  C    0.072315
    22  C    0.084546
    23  C    0.003257
    24  C    0.065142
    25  C   -0.145316
    26  C   -0.011941
    27  C    0.149037
    28  C   -0.095456
    29  C    0.022191
    30  C    0.320866
    31  C   -0.126031
    32  C   -0.118092
    33  C   -0.103275
    34  C    0.022113
    35  C   -0.048008
    36  C   -0.196379
    37  C    0.186834
    38  C   -0.033594
    39  C    0.110674
    40  C   -0.008029
    41  C    0.161836
    42  C    0.029282
    43  C   -0.063251
    44  H    0.130385
    45  H    0.032248
    46  H    0.014138
    47  H   -0.047385
    48  H    0.045610
    49  H    0.016105
    50  H    0.033234
    51  H    0.013107
    52  H    0.176498
    53  H    0.054183
    54  H    0.084779
    55  H    0.052311
    56  H    0.165645
    57  H    0.045586
    58  H    0.059836
    59  H    0.020352
    60  H    0.028286
    61  H    0.008293
    62  H   -0.062995
    63  H   -0.037054
    64  H   -0.033996
    65  H    0.025686
    66  H    0.069828
    67  H    0.065299
    68  H   -0.004592
    69  H    0.098117
    70  H    0.013243
    71  H    0.041408
    72  H    0.017257
    73  H    0.003321
    74  H    0.035033
    75  H    0.018551
    76  H    0.053031
    77  H    0.035200
    78  H    0.043293
    79  H    0.077527
    80  H    0.241969
    81  H    0.181630
 Sum of Mulliken charges =  -0.00000

 Dipole moment (field-independent basis, Debye):
    X=              1.0624    Y=             -1.5884    Z=              2.5224  Tot=              3.1646
 Quadrupole moment (field-independent basis, Debye-Ang):
   XX=           -251.7691   YY=           -235.2961   ZZ=           -252.1581
   XY=            -21.0964   XZ=             18.9223   YZ=              9.0363

 Normal termination of Gaussian 16 at Wed Jul  3 16:23:20 2019.
