 Gaussian 16, Revision A.03,
 Gaussian 16:  ES64L-G16RevA.03 25-Dec-2016

 --------------------------
 # td=(NStates=1) B3LYP/SVP
 --------------------------

 --
 TD
 --
 Symbolic Z-matrix:
 Charge =  0 Multiplicity = 1

                         Standard orientation:
 ---------------------------------------------------------------------
 Center     Atomic      Atomic             Coordinates (Angstroms)
 Number     Number       Type             X           Y           Z
 ---------------------------------------------------------------------
      1          8           0       -4.509040   -4.548008    2.168575
      2          8           0        3.068479   -4.963192    1.228052
      3          8           0        7.060833   -1.446361    1.927671
      4          8           0        3.797157   -3.056130    0.119112
      5          8           0        7.454463   -0.742319   -0.205689
      6          8           0       -2.972561    2.501205   -0.054123
      7          7           0       -0.220177   -0.603026   -0.539959
      8          7           0        1.541883    1.820990   -0.269483
      9          7           0       -3.522304   -3.075319    0.606618
     10          7           0       -0.737193    2.972158   -0.096443
     11          6           0        0.659135   -2.512487   -1.356524
     12          6           0        0.935855   -1.234086   -0.872136
     13          6           0       -0.794013   -2.635469   -1.270829
     14          6           0       -1.293976   -1.443119   -0.744334
     15          6           0        3.753154    1.432937   -0.384398
     16          6           0        2.513141    0.813887   -0.550222
     17          6           0        2.186818   -0.478389   -0.761855
     18          6           0        3.563165    2.758708   -0.095849
     19          6           0        1.634965   -3.527624   -1.884076
     20          6           0       -5.623583   -2.526428    1.327012
     21          6           0       -3.739920   -1.914467   -0.023268
     22          6           0        2.187512    2.984860   -0.000396
     23          6           0       -5.124794   -1.485409    0.318863
     24          6           0        5.102072    0.760551   -0.477423
     25          6           0       -2.677439   -1.068884   -0.352666
     26          6           0       -1.550254   -3.748414   -1.854174
     27          6           0       -4.591787   -3.572566    1.493573
     28          6           0        2.077782   -4.619607   -0.928723
     29          6           0        5.416537   -0.120730    0.820316
     30          6           0        4.613716    3.880785    0.173198
     31          6           0        1.365782    4.037011    0.301524
     32          6           0       -6.874199   -3.304208    0.993581
     33          6           0       -5.833231   -0.587338   -0.371557
     34          6           0       -0.022131    4.092414    0.253954
     35          6           0       -0.984636    5.205749    0.559256
     36          6           0       -2.260211    4.703692    0.424668
     37          6           0        3.040569   -4.099632    0.187722
     38          6           0       -5.236346    0.328958   -1.528073
     39          6           0        6.737391   -0.783505    0.750989
     40          6           0       -3.625322    5.293217    0.501827
     41          6           0       -2.061594    3.305853   -0.019725
     42          6           0       -0.649024    6.607121    0.885950
     43          6           0       -4.129451    5.675987   -0.907365
     44          1           0       -0.361257    0.226966    0.162236
     45          1           0        2.908032   -1.366852   -0.897363
     46          1           0        2.538756   -2.835142   -2.162991
     47          1           0        1.107335   -4.064711   -2.615285
     48          1           0       -5.742841   -2.098631    2.367351
     49          1           0        5.084494    0.111526   -1.343912
     50          1           0        5.848118    1.508048   -0.547414
     51          1           0       -3.012108   -0.024307   -0.530516
     52          1           0        0.342914    1.612979   -0.513446
     53          1           0       -1.508502   -4.605644   -1.121328
     54          1           0       -2.689739   -3.551310   -1.952230
     55          1           0       -1.187829   -4.058872   -2.900025
     56          1           0       -2.598620   -3.682760    0.775138
     57          1           0        1.289836   -5.134333   -0.359529
     58          1           0        2.652879   -5.424872   -1.365772
     59          1           0        4.590424   -0.925179    0.902053
     60          1           0        5.281193    0.613822    1.696847
     61          1           0        4.587162    4.540864   -0.670075
     62          1           0        5.675995    3.337092    0.021736
     63          1           0        4.439307    4.432266    1.216201
     64          1           0        1.757092    5.022021    0.556576
     65          1           0       -7.829540   -2.652839    1.015958
     66          1           0       -6.974681   -3.959069    1.746689
     67          1           0       -6.961618   -3.660704    0.047584
     68          1           0       -6.818196   -0.499477   -0.154728
     69          1           0       -5.005992    1.287056   -0.907635
     70          1           0       -6.122166    0.483035   -2.164789
     71          1           0       -4.284055    0.031077   -1.957229
     72          1           0       -3.604828    6.057151    1.189877
     73          1           0       -4.275485    4.576981    1.087309
     74          1           0        0.227187    6.433558    1.550729
     75          1           0       -1.529456    7.178239    1.357241
     76          1           0       -0.036854    7.312430   -0.061793
     77          1           0       -3.207206    6.196143   -1.469063
     78          1           0       -5.026616    6.136538   -1.096074
     79          1           0       -4.159531    4.878555   -1.482870
     80          1           0        3.745062   -4.723969    1.853008
     81          1           0        7.937132   -1.789066    1.700587
 ---------------------------------------------------------------------

 SCF Done:  E(RB3LYP) =  -1949.12477475     A.U. after   16 cycles

 Excitation energies and oscillator strengths:

 Excited State   1:      Singlet-A      1.9127 eV  648.20 nm  f=0.3450  <S**2>=0.000
     156 ->157         0.70474
 This state for optimization and/or second-order correction.
 Total Energy, E(TD-HF/TD-DFT) =  -1949.05448304
 Copying the excited state density for this state as the 1-particle RhoCI density.

 The electronic state is 1-A.
 Alpha  occ. eigenvalues --  -19.21010 -19.17671 -19.14913 -19.13010 -19.13004
 Alpha  occ. eigenvalues --  -19.08784 -14.37451 -14.36728 -14.34628 -14.27943
 Alpha  occ. eigenvalues --  -10.35072 -10.31752 -10.29801 -10.24441 -10.23979
 Alpha  occ. eigenvalues --  -10.22979 -10.22928 -10.22709 -10.22700 -10.22397
 Alpha  occ. eigenvalues --  -10.22174 -10.21518 -10.21407 -10.21239 -10.21098
 Alpha  occ. eigenvalues --  -10.20996 -10.20821 -10.20520 -10.19962 -10.19878
 Alpha  occ. eigenvalues --  -10.19791 -10.19747 -10.19616 -10.19555 -10.19382
 Alpha  occ. eigenvalues --  -10.19028 -10.18817 -10.18477 -10.18167 -10.17920
 Alpha  occ. eigenvalues --  -10.17784 -10.17771 -10.16667  -1.10968  -1.09153
 Alpha  occ. eigenvalues --   -1.05682  -1.00908  -1.00574  -0.99819  -0.98090
 Alpha  occ. eigenvalues --   -0.96462  -0.95135  -0.90499  -0.82541  -0.81718
 Alpha  occ. eigenvalues --   -0.81507  -0.80373  -0.79266  -0.78492  -0.77959
 Alpha  occ. eigenvalues --   -0.76637  -0.76225  -0.74946  -0.73445  -0.72135
 Alpha  occ. eigenvalues --   -0.70666  -0.69414  -0.69081  -0.68096  -0.67744
 Alpha  occ. eigenvalues --   -0.66994  -0.65405  -0.64389  -0.63034  -0.62687
 Alpha  occ. eigenvalues --   -0.61625  -0.58394  -0.57757  -0.57140  -0.55998
 Alpha  occ. eigenvalues --   -0.55455  -0.55016  -0.54241  -0.53803  -0.52248
 Alpha  occ. eigenvalues --   -0.52091  -0.51697  -0.50747  -0.50123  -0.49679
 Alpha  occ. eigenvalues --   -0.49097  -0.48763  -0.48266  -0.48097  -0.47886
 Alpha  occ. eigenvalues --   -0.47091  -0.46626  -0.45840  -0.45487  -0.44977
 Alpha  occ. eigenvalues --   -0.44557  -0.44364  -0.44109  -0.44004  -0.43628
 Alpha  occ. eigenvalues --   -0.43246  -0.42835  -0.42605  -0.42093  -0.41738
 Alpha  occ. eigenvalues --   -0.41409  -0.41192  -0.41093  -0.40864  -0.40395
 Alpha  occ. eigenvalues --   -0.40094  -0.39969  -0.39680  -0.39476  -0.39332
 Alpha  occ. eigenvalues --   -0.39192  -0.38431  -0.38274  -0.38125  -0.37797
 Alpha  occ. eigenvalues --   -0.37682  -0.37494  -0.37328  -0.37191  -0.36680
 Alpha  occ. eigenvalues --   -0.36478  -0.36343  -0.35840  -0.35764  -0.35360
 Alpha  occ. eigenvalues --   -0.35304  -0.34795  -0.33969  -0.33370  -0.33058
 Alpha  occ. eigenvalues --   -0.32556  -0.32520  -0.31877  -0.29625  -0.29243
 Alpha  occ. eigenvalues --   -0.28470  -0.27555  -0.26465  -0.26023  -0.25439
 Alpha  occ. eigenvalues --   -0.24892  -0.24479  -0.23173  -0.22386  -0.20570
 Alpha  occ. eigenvalues --   -0.17666
 Alpha virt. eigenvalues --   -0.09905  -0.05190  -0.03699  -0.03261  -0.00237
 Alpha virt. eigenvalues --    0.00310   0.02361   0.02755   0.03518   0.03853
 Alpha virt. eigenvalues --    0.04417   0.05014   0.05318   0.05565   0.06096

 Mulliken charges:
               1
     1  O   -0.167444
     2  O   -0.156393
     3  O   -0.208809
     4  O   -0.291851
     5  O   -0.211821
     6  O   -0.218259
     7  N   -0.114056
     8  N   -0.239542
     9  N   -0.221491
    10  N   -0.298259
    11  C   -0.111818
    12  C   -0.054682
    13  C   -0.164724
    14  C    0.058541
    15  C   -0.109163
    16  C    0.178985
    17  C   -0.098877
    18  C   -0.129733
    19  C    0.165586
    20  C   -0.049129
    21  C    0.078091
    22  C    0.181889
    23  C   -0.003474
    24  C    0.182368
    25  C   -0.082227
    26  C    0.016280
    27  C    0.114786
    28  C    0.033417
    29  C   -0.079430
    30  C    0.066447
    31  C   -0.153937
    32  C    0.125116
    33  C   -0.122459
    34  C    0.071275
    35  C   -0.050197
    36  C   -0.224334
    37  C    0.154666
    38  C    0.032792
    39  C    0.166325
    40  C    0.163869
    41  C    0.125541
    42  C   -0.007781
    43  C    0.083230
    44  H    0.179976
    45  H    0.032407
    46  H    0.045861
    47  H   -0.023062
    48  H    0.047192
    49  H    0.010297
    50  H   -0.014870
    51  H    0.035209
    52  H    0.237259
    53  H    0.014733
    54  H    0.038572
    55  H    0.044148
    56  H    0.168073
    57  H    0.033322
    58  H    0.042811
    59  H    0.080138
    60  H    0.048612
    61  H    0.023110
    62  H    0.023774
    63  H    0.061048
    64  H   -0.053488
    65  H    0.004611
    66  H   -0.000316
    67  H   -0.012554
    68  H   -0.049646
    69  H    0.086530
    70  H    0.019362
    71  H    0.045277
    72  H   -0.048678
    73  H    0.007258
    74  H    0.026377
    75  H    0.046410
    76  H    0.045576
    77  H    0.009714
    78  H   -0.004495
    79  H   -0.031033
    80  H    0.183775
    81  H    0.167392
 Sum of Mulliken charges =  -0.00000

 Dipole moment (field-independent basis, Debye):
    X=              1.3462    Y=             -1.8824    Z=              0.4170  Tot=              2.3515
 Quadrupole moment (field-independent basis, Debye-Ang):
   XX=           -244.6027   YY=           -234.4719   ZZ=           -255.5583
   XY=            -11.7431   XZ=             15.2332   YZ=             10.1094

 Normal termination of Gaussian 16 at Fri Jun 28 10:57:10 2019.
