 Gaussian 16, Revision A.03,
 Gaussian 16:  ES64L-G16RevA.03 25-Dec-2016

 --------------------------
 # td=(NStates=1) B3LYP/SVP
 --------------------------

 --
 TD
 --
 Symbolic Z-matrix:
 Charge =  0 Multiplicity = 1

                         Standard orientation:
 ---------------------------------------------------------------------
 Center     Atomic      Atomic             Coordinates (Angstroms)
 Number     Number       Type             X           Y           Z
 ---------------------------------------------------------------------
      1          8           0        4.463469   -4.608988   -1.987266
      2          8           0       -2.701071   -4.849986   -1.235485
      3          8           0       -7.022503   -1.735921   -1.739525
      4          8           0       -3.610054   -3.266193   -0.038423
      5          8           0       -7.661553   -0.688697    0.116184
      6          8           0        2.913690    2.545355    0.178968
      7          7           0        0.371645   -0.521585    0.687821
      8          7           0       -1.591626    1.767896    0.251709
      9          7           0        3.485335   -3.061287   -0.641889
     10          7           0        0.702757    2.913028    0.037945
     11          6           0       -0.526225   -2.418486    1.483437
     12          6           0       -0.820949   -1.174127    1.074692
     13          6           0        0.934635   -2.548637    1.261220
     14          6           0        1.354152   -1.344949    0.887441
     15          6           0       -3.904413    1.273344    0.313082
     16          6           0       -2.524627    0.717049    0.589176
     17          6           0       -2.174150   -0.559063    0.903206
     18          6           0       -3.618503    2.622665   -0.043556
     19          6           0       -1.546359   -3.475644    1.901626
     20          6           0        5.598794   -2.539015   -1.332290
     21          6           0        3.698554   -1.803198   -0.178402
     22          6           0       -2.199034    2.882364   -0.026462
     23          6           0        5.143669   -1.444184   -0.410692
     24          6           0       -5.086972    0.485191    0.417475
     25          6           0        2.754152   -0.993655    0.501506
     26          6           0        1.584346   -3.825259    1.709694
     27          6           0        4.440958   -3.573214   -1.505416
     28          6           0       -1.797552   -4.568178    0.908000
     29          6           0       -5.457892   -0.328924   -0.832925
     30          6           0       -4.643927    3.659422   -0.463539
     31          6           0       -1.464846    4.111719   -0.271273
     32          6           0        6.964897   -3.135549   -1.059001
     33          6           0        5.891501   -0.385196    0.017224
     34          6           0       -0.037180    4.036900   -0.331166
     35          6           0        0.840821    5.259890   -0.523326
     36          6           0        2.100885    4.860998   -0.306710
     37          6           0       -2.766090   -4.162332   -0.096375
     38          6           0        5.400162    0.600358    1.125036
     39          6           0       -6.889401   -0.854703   -0.777957
     40          6           0        3.455241    5.603754   -0.342296
     41          6           0        1.989922    3.315810    0.025750
     42          6           0        0.282771    6.525433   -0.872478
     43          6           0        3.970271    5.714233    1.063967
     44          1           0        0.417552    0.317676    0.363110
     45          1           0       -3.085802   -1.232977    1.077436
     46          1           0       -2.517205   -2.824646    2.083790
     47          1           0       -1.163860   -3.803074    2.853601
     48          1           0        5.733682   -2.088054   -2.403487
     49          1           0       -5.008665   -0.165517    1.194840
     50          1           0       -6.148029    1.074443    0.644480
     51          1           0        2.964855    0.042563    0.539444
     52          1           0       -0.519696    1.890971    0.404614
     53          1           0        1.602601   -4.862057    1.135325
     54          1           0        2.694099   -3.724548    1.954673
     55          1           0        1.257665   -4.059950    2.826278
     56          1           0        2.447650   -3.353318   -0.604224
     57          1           0       -0.761027   -4.836424    0.479334
     58          1           0       -2.111488   -5.572567    1.456956
     59          1           0       -4.699619   -0.972582   -1.118822
     60          1           0       -5.303174    0.485913   -1.622448
     61          1           0       -5.015743    4.518900    0.187596
     62          1           0       -5.538582    3.315050   -0.579607
     63          1           0       -4.329643    4.066962   -1.369215
     64          1           0       -2.019925    4.996365   -0.678470
     65          1           0        7.854571   -2.394710   -1.121420
     66          1           0        7.076063   -4.301724   -1.596825
     67          1           0        6.889246   -3.505828   -0.011304
     68          1           0        6.971336   -0.243168   -0.456002
     69          1           0        4.867789    1.380133    0.754821
     70          1           0        6.239265    0.909613    1.718634
     71          1           0        4.909708   -0.021943    1.914881
     72          1           0        3.380277    6.648086   -0.656319
     73          1           0        4.194679    4.970143   -0.783895
     74          1           0       -0.173856    6.688956   -1.940787
     75          1           0        0.985858    7.346026   -0.895007
     76          1           0       -0.534094    6.617675   -0.029911
     77          1           0        3.126889    6.165261    1.652349
     78          1           0        4.715923    6.323905    0.962763
     79          1           0        4.308982    4.577267    1.545231
     80          1           0       -3.365105   -4.340120   -1.825689
     81          1           0       -7.861441   -2.092512   -1.613473
 ---------------------------------------------------------------------

 SCF Done:  E(RB3LYP) =  -1949.09275308     A.U. after   16 cycles

 Excitation energies and oscillator strengths:

 Excited State   1:      Singlet-A      2.0386 eV  608.19 nm  f=0.2863  <S**2>=0.000
     156 ->157         0.70416
 This state for optimization and/or second-order correction.
 Total Energy, E(TD-HF/TD-DFT) =  -1949.01783725
 Copying the excited state density for this state as the 1-particle RhoCI density.

 The electronic state is 1-A.
 Alpha  occ. eigenvalues --  -19.19614 -19.19405 -19.14018 -19.13801 -19.12008
 Alpha  occ. eigenvalues --  -19.09568 -14.36780 -14.36342 -14.36100 -14.29402
 Alpha  occ. eigenvalues --  -10.33518 -10.32866 -10.29181 -10.26219 -10.24538
 Alpha  occ. eigenvalues --  -10.24202 -10.24047 -10.23636 -10.23073 -10.22793
 Alpha  occ. eigenvalues --  -10.22582 -10.22299 -10.22034 -10.21231 -10.21149
 Alpha  occ. eigenvalues --  -10.21136 -10.20433 -10.20410 -10.20328 -10.20216
 Alpha  occ. eigenvalues --  -10.20067 -10.20047 -10.19744 -10.19527 -10.19230
 Alpha  occ. eigenvalues --  -10.19216 -10.18997 -10.18630 -10.18499 -10.18316
 Alpha  occ. eigenvalues --  -10.17982 -10.17517 -10.16557  -1.13315  -1.11545
 Alpha  occ. eigenvalues --   -1.07681  -1.03203  -1.01468  -1.00513  -1.00379
 Alpha  occ. eigenvalues --   -0.98294  -0.96152  -0.90982  -0.83447  -0.83062
 Alpha  occ. eigenvalues --   -0.80618  -0.80420  -0.80303  -0.79312  -0.78177
 Alpha  occ. eigenvalues --   -0.77408  -0.76754  -0.75166  -0.73370  -0.72429
 Alpha  occ. eigenvalues --   -0.71535  -0.69917  -0.69302  -0.68754  -0.68456
 Alpha  occ. eigenvalues --   -0.67250  -0.65020  -0.63924  -0.62172  -0.61818
 Alpha  occ. eigenvalues --   -0.60453  -0.59837  -0.58356  -0.58096  -0.56732
 Alpha  occ. eigenvalues --   -0.56050  -0.55627  -0.54709  -0.54347  -0.52563
 Alpha  occ. eigenvalues --   -0.52413  -0.52158  -0.51626  -0.51319  -0.50386
 Alpha  occ. eigenvalues --   -0.49924  -0.49410  -0.49298  -0.48465  -0.48121
 Alpha  occ. eigenvalues --   -0.47299  -0.47091  -0.46063  -0.45830  -0.45594
 Alpha  occ. eigenvalues --   -0.45180  -0.44839  -0.44590  -0.44514  -0.44102
 Alpha  occ. eigenvalues --   -0.43361  -0.43136  -0.42792  -0.42684  -0.42572
 Alpha  occ. eigenvalues --   -0.42312  -0.42058  -0.41712  -0.41466  -0.41146
 Alpha  occ. eigenvalues --   -0.40872  -0.40638  -0.40299  -0.39958  -0.39495
 Alpha  occ. eigenvalues --   -0.39335  -0.38965  -0.38789  -0.38657  -0.38002
 Alpha  occ. eigenvalues --   -0.37877  -0.37572  -0.37406  -0.36965  -0.36672
 Alpha  occ. eigenvalues --   -0.36144  -0.35640  -0.35305  -0.34849  -0.34237
 Alpha  occ. eigenvalues --   -0.33913  -0.33753  -0.33417  -0.33288  -0.33192
 Alpha  occ. eigenvalues --   -0.32585  -0.32217  -0.31175  -0.30214  -0.29826
 Alpha  occ. eigenvalues --   -0.29733  -0.28126  -0.26986  -0.26043  -0.25281
 Alpha  occ. eigenvalues --   -0.25221  -0.24405  -0.24004  -0.23503  -0.21106
 Alpha  occ. eigenvalues --   -0.18607
 Alpha virt. eigenvalues --   -0.10004  -0.05031  -0.03860  -0.02608  -0.00423
 Alpha virt. eigenvalues --    0.00789   0.02222   0.02891   0.03570   0.04000
 Alpha virt. eigenvalues --    0.04654   0.04996   0.05238   0.05554   0.06369

 Mulliken charges:
               1
     1  O   -0.112408
     2  O   -0.181775
     3  O   -0.102694
     4  O   -0.261101
     5  O   -0.207839
     6  O   -0.198693
     7  N    0.087812
     8  N   -0.113095
     9  N   -0.129993
    10  N   -0.304081
    11  C   -0.152623
    12  C    0.054806
    13  C   -0.166171
    14  C    0.037668
    15  C   -0.017064
    16  C    0.070292
    17  C   -0.072153
    18  C   -0.156558
    19  C    0.110087
    20  C   -0.126562
    21  C    0.037469
    22  C    0.057413
    23  C    0.044453
    24  C    0.052867
    25  C   -0.054122
    26  C   -0.049197
    27  C    0.129198
    28  C    0.003603
    29  C   -0.004326
    30  C    0.180892
    31  C   -0.120827
    32  C   -0.031716
    33  C   -0.196144
    34  C    0.086636
    35  C   -0.070140
    36  C   -0.194786
    37  C    0.134957
    38  C    0.088097
    39  C    0.140458
    40  C    0.139147
    41  C    0.133458
    42  C    0.029126
    43  C   -0.015574
    44  H    0.028670
    45  H    0.042849
    46  H    0.032023
    47  H   -0.004154
    48  H    0.046233
    49  H   -0.009164
    50  H    0.048890
    51  H   -0.008080
    52  H    0.185614
    53  H    0.048850
    54  H    0.025919
    55  H    0.031261
    56  H    0.157326
    57  H    0.057257
    58  H    0.073887
    59  H    0.009056
    60  H    0.032014
    61  H    0.021341
    62  H   -0.064737
    63  H    0.001967
    64  H    0.002097
    65  H    0.046148
    66  H    0.050413
    67  H    0.008185
    68  H    0.022108
    69  H    0.049123
    70  H   -0.011429
    71  H    0.023334
    72  H   -0.007355
    73  H    0.002857
    74  H    0.040632
    75  H   -0.001613
    76  H    0.050341
    77  H    0.012522
    78  H   -0.032487
    79  H    0.059539
    80  H    0.207309
    81  H    0.142460
 Sum of Mulliken charges =  -0.00000

 Dipole moment (field-independent basis, Debye):
    X=             -3.9209    Y=              0.4942    Z=             -0.9413  Tot=              4.0625
 Quadrupole moment (field-independent basis, Debye-Ang):
   XX=           -250.3091   YY=           -235.8270   ZZ=           -255.6132
   XY=             15.8799   XZ=             17.4190   YZ=            -14.7836

 Normal termination of Gaussian 16 at Wed Jul  3 01:02:18 2019.
