 Gaussian 16, Revision A.03,
 Gaussian 16:  ES64L-G16RevA.03 25-Dec-2016

 --------------------------
 # td=(NStates=1) B3LYP/SVP
 --------------------------

 --
 TD
 --
 Symbolic Z-matrix:
 Charge =  0 Multiplicity = 1

                         Standard orientation:
 ---------------------------------------------------------------------
 Center     Atomic      Atomic             Coordinates (Angstroms)
 Number     Number       Type             X           Y           Z
 ---------------------------------------------------------------------
      1          8           0       -4.616946   -4.776346    1.647981
      2          8           0        2.986385   -4.600075    1.420168
      3          8           0        7.076201   -1.586038    1.792724
      4          8           0        3.894547   -3.201884    0.064210
      5          8           0        7.598094   -0.727654   -0.287330
      6          8           0       -3.008176    2.439402   -0.185696
      7          7           0       -0.285183   -0.645304   -0.703864
      8          7           0        1.493765    1.856226   -0.340981
      9          7           0       -3.508026   -3.264156    0.592962
     10          7           0       -0.753589    2.971704   -0.011054
     11          6           0        0.686406   -2.512145   -1.281570
     12          6           0        0.943204   -1.208107   -0.855957
     13          6           0       -0.705396   -2.825553   -1.189558
     14          6           0       -1.306226   -1.612823   -0.716885
     15          6           0        3.795569    1.468325   -0.300091
     16          6           0        2.454852    0.811003   -0.501744
     17          6           0        2.145191   -0.504184   -0.877485
     18          6           0        3.541046    2.833264   -0.002863
     19          6           0        1.731390   -3.553554   -1.804041
     20          6           0       -5.592523   -2.434404    1.334672
     21          6           0       -3.656369   -1.900232    0.096723
     22          6           0        2.112355    3.068474   -0.034559
     23          6           0       -5.002588   -1.536210    0.350933
     24          6           0        5.064861    0.786146   -0.336410
     25          6           0       -2.678964   -1.215697   -0.568866
     26          6           0       -1.466609   -3.953148   -1.606079
     27          6           0       -4.630909   -3.630743    1.254588
     28          6           0        2.155449   -4.582664   -0.755286
     29          6           0        5.453582   -0.087048    0.886620
     30          6           0        4.538322    3.892007    0.130650
     31          6           0        1.332388    4.151022    0.203275
     32          6           0       -7.063428   -2.958320    1.250114
     33          6           0       -5.832671   -0.543309   -0.272821
     34          6           0       -0.000321    4.090874    0.273670
     35          6           0       -0.935258    5.248393    0.502536
     36          6           0       -2.202360    4.731896    0.325967
     37          6           0        3.037223   -4.007580    0.249193
     38          6           0       -5.375100    0.298235   -1.313700
     39          6           0        6.786100   -0.835186    0.653260
     40          6           0       -3.552931    5.382321    0.410367
     41          6           0       -2.088820    3.284773    0.061884
     42          6           0       -0.514809    6.633322    0.853266
     43          6           0       -4.173739    5.632032   -0.918364
     44          1           0       -0.517699    0.279027   -0.262217
     45          1           0        2.963935   -1.128883   -0.980437
     46          1           0        2.576010   -3.222996   -2.386772
     47          1           0        1.227260   -4.238215   -2.543976
     48          1           0       -5.249431   -1.766073    2.278058
     49          1           0        5.040187    0.100317   -1.430084
     50          1           0        5.853081    1.390191   -0.598347
     51          1           0       -3.005015   -0.202484   -0.320500
     52          1           0        0.428888    1.968910   -0.076260
     53          1           0       -1.407861   -4.837680   -0.839278
     54          1           0       -2.536725   -3.779161   -1.964697
     55          1           0       -0.832219   -4.591623   -2.407165
     56          1           0       -2.648361   -3.892433    0.378676
     57          1           0        1.102417   -4.752482   -0.312698
     58          1           0        2.549706   -5.561553   -1.174994
     59          1           0        4.607279   -0.683915    1.196203
     60          1           0        5.450052    0.722677    1.762439
     61          1           0        4.264120    4.763200   -0.438376
     62          1           0        5.583726    3.636933    0.059726
     63          1           0        4.506432    4.442428    1.207523
     64          1           0        1.560969    5.077414    0.599895
     65          1           0       -7.703707   -2.227415    1.359064
     66          1           0       -7.396832   -3.723535    1.853566
     67          1           0       -7.427900   -3.209885    0.025851
     68          1           0       -6.892052   -0.515651    0.241746
     69          1           0       -4.724559    1.245777   -1.121332
     70          1           0       -6.264351    0.668580   -1.735643
     71          1           0       -4.735580   -0.215206   -2.112294
     72          1           0       -3.536318    6.326323    0.952792
     73          1           0       -4.272100    4.673104    0.970021
     74          1           0        0.209089    6.690863    1.696488
     75          1           0       -1.203278    7.455114    1.255378
     76          1           0        0.051933    6.927808   -0.096213
     77          1           0       -3.524009    6.410450   -1.576637
     78          1           0       -5.417510    6.085582   -0.759610
     79          1           0       -4.350399    4.708383   -1.679465
     80          1           0        3.652509   -4.227731    2.014519
     81          1           0        7.955187   -2.071799    1.580543
 ---------------------------------------------------------------------

 SCF Done:  E(RB3LYP) =  -1949.08958270     A.U. after   17 cycles

 Excitation energies and oscillator strengths:

 Excited State   1:      Singlet-A      1.8640 eV  665.16 nm  f=0.4082  <S**2>=0.000
     156 ->157         0.70840
     156 <-157        -0.11955
 This state for optimization and/or second-order correction.
 Total Energy, E(TD-HF/TD-DFT) =  -1949.02108334
 Copying the excited state density for this state as the 1-particle RhoCI density.

 The electronic state is 1-A.
 Alpha  occ. eigenvalues --  -19.18693 -19.18659 -19.13949 -19.13138 -19.09621
 Alpha  occ. eigenvalues --  -19.09523 -14.37812 -14.36243 -14.34815 -14.28674
 Alpha  occ. eigenvalues --  -10.33594 -10.32342 -10.28271 -10.26019 -10.24455
 Alpha  occ. eigenvalues --  -10.24338 -10.24180 -10.23846 -10.23276 -10.22400
 Alpha  occ. eigenvalues --  -10.22374 -10.22363 -10.22317 -10.22123 -10.21303
 Alpha  occ. eigenvalues --  -10.21301 -10.21285 -10.21104 -10.21088 -10.20892
 Alpha  occ. eigenvalues --  -10.20883 -10.20808 -10.20558 -10.20519 -10.20420
 Alpha  occ. eigenvalues --  -10.20209 -10.20190 -10.19604 -10.18983 -10.18980
 Alpha  occ. eigenvalues --  -10.18753 -10.17852 -10.17686  -1.12482  -1.07529
 Alpha  occ. eigenvalues --   -1.03518  -1.01804  -0.99212  -0.98556  -0.98400
 Alpha  occ. eigenvalues --   -0.95592  -0.93683  -0.90811  -0.82827  -0.82433
 Alpha  occ. eigenvalues --   -0.82094  -0.81713  -0.80028  -0.79295  -0.78776
 Alpha  occ. eigenvalues --   -0.77695  -0.77300  -0.75720  -0.74970  -0.73241
 Alpha  occ. eigenvalues --   -0.71559  -0.70812  -0.69092  -0.68783  -0.68480
 Alpha  occ. eigenvalues --   -0.67043  -0.65993  -0.63956  -0.62134  -0.61251
 Alpha  occ. eigenvalues --   -0.59764  -0.59471  -0.58411  -0.57881  -0.56838
 Alpha  occ. eigenvalues --   -0.56313  -0.56138  -0.55233  -0.53312  -0.52986
 Alpha  occ. eigenvalues --   -0.52636  -0.52210  -0.51616  -0.50286  -0.50094
 Alpha  occ. eigenvalues --   -0.49620  -0.49131  -0.48606  -0.48154  -0.47911
 Alpha  occ. eigenvalues --   -0.47277  -0.46627  -0.46425  -0.45752  -0.45556
 Alpha  occ. eigenvalues --   -0.45109  -0.44564  -0.44234  -0.44027  -0.43632
 Alpha  occ. eigenvalues --   -0.43294  -0.42897  -0.42549  -0.42409  -0.41913
 Alpha  occ. eigenvalues --   -0.41773  -0.41386  -0.41174  -0.40939  -0.40773
 Alpha  occ. eigenvalues --   -0.40586  -0.40456  -0.40326  -0.39735  -0.39302
 Alpha  occ. eigenvalues --   -0.39235  -0.39143  -0.38689  -0.38334  -0.38170
 Alpha  occ. eigenvalues --   -0.38045  -0.37846  -0.37657  -0.37301  -0.37132
 Alpha  occ. eigenvalues --   -0.36744  -0.36385  -0.36087  -0.35508  -0.34714
 Alpha  occ. eigenvalues --   -0.34124  -0.33668  -0.33349  -0.33216  -0.32483
 Alpha  occ. eigenvalues --   -0.32075  -0.31823  -0.31558  -0.29682  -0.29094
 Alpha  occ. eigenvalues --   -0.29068  -0.26937  -0.26274  -0.25533  -0.25312
 Alpha  occ. eigenvalues --   -0.24477  -0.24168  -0.23929  -0.22987  -0.21675
 Alpha  occ. eigenvalues --   -0.18260
 Alpha virt. eigenvalues --   -0.10989  -0.06622  -0.04840  -0.02290  -0.01065
 Alpha virt. eigenvalues --    0.00216   0.01456   0.02268   0.03176   0.03392
 Alpha virt. eigenvalues --    0.04055   0.04514   0.04836   0.05282   0.05292

 Mulliken charges:
               1
     1  O   -0.215685
     2  O   -0.147098
     3  O   -0.243397
     4  O   -0.222157
     5  O   -0.247680
     6  O   -0.268994
     7  N   -0.095295
     8  N   -0.192714
     9  N   -0.155516
    10  N   -0.318093
    11  C   -0.113804
    12  C    0.079375
    13  C   -0.092987
    14  C    0.068888
    15  C   -0.057444
    16  C    0.091324
    17  C   -0.000492
    18  C   -0.088159
    19  C    0.093763
    20  C   -0.084322
    21  C    0.069811
    22  C    0.160269
    23  C   -0.106990
    24  C    0.021267
    25  C   -0.095104
    26  C   -0.021277
    27  C    0.106196
    28  C   -0.015746
    29  C    0.003391
    30  C    0.089247
    31  C   -0.063307
    32  C    0.119191
    33  C   -0.096868
    34  C    0.023140
    35  C   -0.054169
    36  C   -0.186795
    37  C    0.099502
    38  C    0.037648
    39  C    0.222461
    40  C    0.139440
    41  C    0.176372
    42  C    0.037504
    43  C   -0.137363
    44  H    0.161947
    45  H   -0.030868
    46  H    0.015169
    47  H   -0.005588
    48  H    0.082509
    49  H    0.040378
    50  H   -0.016321
    51  H    0.036148
    52  H    0.180258
    53  H    0.040216
    54  H    0.074670
    55  H    0.021941
    56  H    0.156804
    57  H    0.035768
    58  H    0.067800
    59  H    0.033755
    60  H    0.056291
    61  H    0.014778
    62  H    0.015641
    63  H    0.010774
    64  H   -0.074526
    65  H   -0.037764
    66  H    0.022833
    67  H    0.025111
    68  H    0.021788
    69  H    0.099504
    70  H   -0.008202
    71  H    0.037623
    72  H   -0.008704
    73  H    0.023185
    74  H    0.025781
    75  H    0.035066
    76  H    0.042741
    77  H    0.026229
    78  H    0.020217
    79  H    0.053527
    80  H    0.181420
    81  H    0.204768
 Sum of Mulliken charges =  -0.00000

 Dipole moment (field-independent basis, Debye):
    X=              2.4375    Y=              0.5420    Z=              1.4039  Tot=              2.8646
 Quadrupole moment (field-independent basis, Debye-Ang):
   XX=           -252.3834   YY=           -239.6013   ZZ=           -255.4329
   XY=            -12.2818   XZ=             14.4647   YZ=             16.7791

 Normal termination of Gaussian 16 at Fri Jun 28 02:31:13 2019.
