 Gaussian 16, Revision A.03,
 Gaussian 16:  ES64L-G16RevA.03 25-Dec-2016

 --------------------------
 # td=(NStates=1) B3LYP/SVP
 --------------------------

 --
 TD
 --
 Symbolic Z-matrix:
 Charge =  0 Multiplicity = 1

                         Standard orientation:
 ---------------------------------------------------------------------
 Center     Atomic      Atomic             Coordinates (Angstroms)
 Number     Number       Type             X           Y           Z
 ---------------------------------------------------------------------
      1          8           0        4.646270   -4.650924   -1.729335
      2          8           0       -2.882334   -5.087686   -1.385187
      3          8           0       -7.097433   -1.764609   -1.673429
      4          8           0       -3.690710   -3.277281   -0.097062
      5          8           0       -7.701684   -0.527118    0.115404
      6          8           0        2.901455    2.697730    0.056038
      7          7           0        0.339817   -0.549637    0.485526
      8          7           0       -1.618768    1.762858    0.194508
      9          7           0        3.534772   -3.008045   -0.448431
     10          7           0        0.579124    2.967708    0.010026
     11          6           0       -0.483354   -2.482542    1.309261
     12          6           0       -0.867969   -1.107364    0.883637
     13          6           0        0.880183   -2.637851    1.212569
     14          6           0        1.437883   -1.415689    0.685647
     15          6           0       -3.810557    1.297115    0.314029
     16          6           0       -2.505774    0.711752    0.443400
     17          6           0       -2.193108   -0.513242    0.828589
     18          6           0       -3.688179    2.607031    0.123719
     19          6           0       -1.404000   -3.504734    1.771818
     20          6           0        5.695895   -2.516453   -1.297135
     21          6           0        3.692872   -1.788922   -0.054860
     22          6           0       -2.213165    2.875028   -0.056172
     23          6           0        5.115926   -1.471872   -0.339045
     24          6           0       -5.081182    0.411920    0.483010
     25          6           0        2.800946   -0.977031    0.434842
     26          6           0        1.676858   -3.751770    1.891140
     27          6           0        4.635278   -3.550209   -1.202106
     28          6           0       -1.813943   -4.643688    0.746908
     29          6           0       -5.373970   -0.387057   -0.809975
     30          6           0       -4.823572    3.590316   -0.088430
     31          6           0       -1.533164    4.047394   -0.225751
     32          6           0        7.131250   -3.210310   -0.973787
     33          6           0        5.865950   -0.487191    0.184664
     34          6           0       -0.150026    4.106804   -0.083906
     35          6           0        0.736226    5.334367   -0.376675
     36          6           0        2.035702    4.958085   -0.275939
     37          6           0       -2.907230   -4.199413   -0.216288
     38          6           0        5.533192    0.680321    1.082095
     39          6           0       -6.872605   -0.900336   -0.697215
     40          6           0        3.250386    5.719285   -0.560974
     41          6           0        1.875250    3.393912   -0.042868
     42          6           0        0.320328    6.658755   -0.826960
     43          6           0        4.103900    5.770004    0.804330
     44          1           0        0.503200    0.254618    0.111686
     45          1           0       -2.905279   -1.266101    0.883373
     46          1           0       -2.341275   -3.043706    2.200254
     47          1           0       -1.118930   -4.016972    2.693970
     48          1           0        5.876915   -2.068979   -2.274179
     49          1           0       -5.055427   -0.226798    1.481254
     50          1           0       -6.128743    1.173934    0.779700
     51          1           0        2.996811   -0.015333    0.620493
     52          1           0       -0.589549    1.948155    0.140173
     53          1           0        1.526179   -4.825635    1.148161
     54          1           0        2.786040   -3.434352    1.976493
     55          1           0        1.465186   -4.086540    2.966228
     56          1           0        2.620271   -3.487431   -0.522871
     57          1           0       -0.915989   -5.104013    0.058581
     58          1           0       -2.339766   -5.414446    1.238127
     59          1           0       -4.693707   -1.460036   -0.653034
     60          1           0       -5.024364    0.145970   -1.688700
     61          1           0       -4.986974    4.208360    1.037106
     62          1           0       -5.831953    3.006595   -0.240832
     63          1           0       -4.746149    4.500275   -0.918276
     64          1           0       -1.875887    4.974486   -0.542061
     65          1           0        8.034455   -2.484953   -0.945307
     66          1           0        7.370657   -4.053296   -1.521164
     67          1           0        7.275200   -3.557614    0.073333
     68          1           0        6.979937   -0.436051   -0.306329
     69          1           0        4.982221    1.387488    0.269973
     70          1           0        6.445570    1.068729    1.514523
     71          1           0        4.792739    0.420516    2.003922
     72          1           0        2.898969    6.553969   -1.083919
     73          1           0        3.794061    5.103611   -1.309515
     74          1           0        0.071105    6.694186   -2.012939
     75          1           0        1.135856    7.328235   -0.699409
     76          1           0       -0.419959    7.048922   -0.182428
     77          1           0        3.783997    6.501364    1.494116
     78          1           0        5.158694    6.141753    0.404557
     79          1           0        4.290288    4.702468    1.149562
     80          1           0       -3.579070   -5.004680   -2.177211
     81          1           0       -7.881814   -2.206264   -1.579691
 ---------------------------------------------------------------------

 SCF Done:  E(RB3LYP) =  -1949.06819236     A.U. after   16 cycles

 Excitation energies and oscillator strengths:

 Excited State   1:      Singlet-A      2.0776 eV  596.76 nm  f=0.4272  <S**2>=0.000
     156 ->157         0.70683
 This state for optimization and/or second-order correction.
 Total Energy, E(TD-HF/TD-DFT) =  -1948.99184066
 Copying the excited state density for this state as the 1-particle RhoCI density.

 The electronic state is 1-A.
 Alpha  occ. eigenvalues --  -19.18507 -19.17843 -19.15794 -19.12907 -19.11908
 Alpha  occ. eigenvalues --  -19.09347 -14.37088 -14.37010 -14.35030 -14.29615
 Alpha  occ. eigenvalues --  -10.34597 -10.32628 -10.29909 -10.26450 -10.23665
 Alpha  occ. eigenvalues --  -10.23403 -10.23370 -10.23244 -10.22975 -10.22939
 Alpha  occ. eigenvalues --  -10.22543 -10.22507 -10.22330 -10.22016 -10.21589
 Alpha  occ. eigenvalues --  -10.21441 -10.21065 -10.20634 -10.20242 -10.19950
 Alpha  occ. eigenvalues --  -10.19914 -10.19701 -10.19548 -10.19508 -10.19399
 Alpha  occ. eigenvalues --  -10.19350 -10.19108 -10.19072 -10.18959 -10.18832
 Alpha  occ. eigenvalues --  -10.18206 -10.17317 -10.16794  -1.11261  -1.07526
 Alpha  occ. eigenvalues --   -1.03900  -1.01129  -1.00153  -0.99389  -0.99081
 Alpha  occ. eigenvalues --   -0.97751  -0.97079  -0.91705  -0.82884  -0.82351
 Alpha  occ. eigenvalues --   -0.81253  -0.80708  -0.80427  -0.79139  -0.77642
 Alpha  occ. eigenvalues --   -0.76657  -0.75927  -0.74783  -0.74255  -0.72060
 Alpha  occ. eigenvalues --   -0.69604  -0.69225  -0.68736  -0.68226  -0.67635
 Alpha  occ. eigenvalues --   -0.67040  -0.65528  -0.64257  -0.63023  -0.62297
 Alpha  occ. eigenvalues --   -0.60993  -0.60194  -0.59225  -0.58981  -0.57344
 Alpha  occ. eigenvalues --   -0.55656  -0.55324  -0.54187  -0.52750  -0.52357
 Alpha  occ. eigenvalues --   -0.51963  -0.51160  -0.50704  -0.50137  -0.49595
 Alpha  occ. eigenvalues --   -0.49014  -0.48419  -0.48246  -0.48015  -0.46981
 Alpha  occ. eigenvalues --   -0.46855  -0.46495  -0.46127  -0.45556  -0.45128
 Alpha  occ. eigenvalues --   -0.44871  -0.44760  -0.43958  -0.43739  -0.43293
 Alpha  occ. eigenvalues --   -0.43196  -0.42705  -0.42541  -0.41847  -0.41559
 Alpha  occ. eigenvalues --   -0.41312  -0.41155  -0.40751  -0.40575  -0.40441
 Alpha  occ. eigenvalues --   -0.40275  -0.39925  -0.39494  -0.39020  -0.38801
 Alpha  occ. eigenvalues --   -0.38604  -0.38525  -0.38310  -0.37833  -0.37767
 Alpha  occ. eigenvalues --   -0.37426  -0.37273  -0.36935  -0.36660  -0.36515
 Alpha  occ. eigenvalues --   -0.36316  -0.36100  -0.35486  -0.35420  -0.34977
 Alpha  occ. eigenvalues --   -0.34493  -0.34412  -0.33023  -0.32968  -0.32766
 Alpha  occ. eigenvalues --   -0.32702  -0.32535  -0.30672  -0.29975  -0.29735
 Alpha  occ. eigenvalues --   -0.28530  -0.28346  -0.26867  -0.26093  -0.25500
 Alpha  occ. eigenvalues --   -0.25158  -0.24593  -0.23360  -0.23227  -0.21783
 Alpha  occ. eigenvalues --   -0.17681
 Alpha virt. eigenvalues --   -0.09374  -0.04542  -0.02486  -0.02421  -0.01688
 Alpha virt. eigenvalues --    0.00210   0.01645   0.02233   0.02642   0.03668
 Alpha virt. eigenvalues --    0.04069   0.04503   0.05484   0.05615   0.06076

 Mulliken charges:
               1
     1  O   -0.203380
     2  O   -0.335437
     3  O   -0.115215
     4  O   -0.194180
     5  O   -0.226404
     6  O   -0.251188
     7  N   -0.010838
     8  N   -0.034198
     9  N   -0.079376
    10  N   -0.279146
    11  C   -0.065278
    12  C    0.031503
    13  C   -0.122331
    14  C    0.023017
    15  C   -0.030709
    16  C    0.157259
    17  C   -0.027397
    18  C   -0.088065
    19  C    0.072676
    20  C   -0.032584
    21  C    0.133922
    22  C    0.088046
    23  C   -0.038641
    24  C   -0.053396
    25  C   -0.061196
    26  C   -0.047516
    27  C    0.150048
    28  C    0.010234
    29  C   -0.094069
    30  C   -0.063945
    31  C   -0.092891
    32  C    0.034281
    33  C   -0.193153
    34  C    0.051321
    35  C   -0.140982
    36  C   -0.174850
    37  C    0.186756
    38  C    0.004857
    39  C    0.152848
    40  C    0.110570
    41  C    0.146492
    42  C    0.110081
    43  C   -0.022878
    44  H    0.052545
    45  H   -0.030429
    46  H    0.009414
    47  H   -0.005047
    48  H    0.053964
    49  H    0.047450
    50  H    0.054677
    51  H   -0.070604
    52  H    0.134531
    53  H    0.032409
    54  H    0.050852
    55  H    0.046917
    56  H    0.141487
    57  H    0.082618
    58  H    0.030317
    59  H    0.107881
    60  H    0.051475
    61  H    0.042642
    62  H    0.048131
    63  H    0.056683
    64  H   -0.064290
    65  H    0.017528
    66  H    0.022160
    67  H    0.000974
    68  H    0.017974
    69  H    0.113202
    70  H    0.017436
    71  H    0.053565
    72  H   -0.024333
    73  H    0.013613
    74  H    0.046895
    75  H   -0.006293
    76  H    0.005533
    77  H    0.019159
    78  H    0.010778
    79  H    0.062580
    80  H    0.228039
    81  H    0.142900
 Sum of Mulliken charges =  -0.00000

 Dipole moment (field-independent basis, Debye):
    X=             -1.6777    Y=             -0.6621    Z=             -0.8977  Tot=              2.0147
 Quadrupole moment (field-independent basis, Debye-Ang):
   XX=           -250.9556   YY=           -237.5763   ZZ=           -250.5676
   XY=             23.6594   XZ=             16.0539   YZ=            -10.6455

 Normal termination of Gaussian 16 at Fri Jun 28 09:19:49 2019.
