 Gaussian 16, Revision A.03,
 Gaussian 16:  ES64L-G16RevA.03 25-Dec-2016

 --------------------------
 # td=(NStates=1) B3LYP/SVP
 --------------------------

 --
 TD
 --
 Symbolic Z-matrix:
 Charge =  0 Multiplicity = 1

                         Standard orientation:
 ---------------------------------------------------------------------
 Center     Atomic      Atomic             Coordinates (Angstroms)
 Number     Number       Type             X           Y           Z
 ---------------------------------------------------------------------
      1          8           0        4.785049   -4.515517   -1.800531
      2          8           0       -2.696478   -4.988900   -1.351155
      3          8           0       -6.929482   -1.789386   -1.742493
      4          8           0       -3.631348   -3.287568   -0.039315
      5          8           0       -7.788748   -0.286190   -0.192039
      6          8           0        2.811901    2.631306    0.285012
      7          7           0        0.367837   -0.687637    0.589704
      8          7           0       -1.580796    1.731263    0.416066
      9          7           0        3.578676   -3.034062   -0.679010
     10          7           0        0.588871    2.943970    0.132682
     11          6           0       -0.470121   -2.558358    1.350202
     12          6           0       -0.823173   -1.254707    0.942752
     13          6           0        0.947168   -2.711237    1.399267
     14          6           0        1.349377   -1.505392    0.810225
     15          6           0       -3.795032    1.205468    0.345011
     16          6           0       -2.524683    0.637936    0.703866
     17          6           0       -2.194097   -0.657083    0.859527
     18          6           0       -3.635777    2.591090   -0.005067
     19          6           0       -1.587441   -3.588987    1.928031
     20          6           0        5.655138   -2.257413   -1.454980
     21          6           0        3.726482   -1.743294   -0.173508
     22          6           0       -2.245355    2.798031    0.058408
     23          6           0        5.049284   -1.299053   -0.428213
     24          6           0       -5.109245    0.427880    0.489990
     25          6           0        2.735433   -1.118520    0.510229
     26          6           0        1.725621   -3.876521    1.962194
     27          6           0        4.696995   -3.417131   -1.379250
     28          6           0       -1.820115   -4.586356    0.765036
     29          6           0       -5.418318   -0.320494   -0.822764
     30          6           0       -4.663637    3.591906   -0.226230
     31          6           0       -1.536248    3.993633   -0.300199
     32          6           0        7.033091   -2.798784   -1.255927
     33          6           0        5.817698   -0.339676    0.258434
     34          6           0       -0.141240    4.055387   -0.161444
     35          6           0        0.699214    5.248436   -0.382570
     36          6           0        1.999372    4.879143   -0.335078
     37          6           0       -2.830043   -4.206419   -0.198690
     38          6           0        5.359943    0.554165    1.220866
     39          6           0       -6.814630   -0.822852   -0.855617
     40          6           0        3.282885    5.529351   -0.550408
     41          6           0        2.013362    3.356304    0.080215
     42          6           0        0.158626    6.563144   -0.890876
     43          6           0        4.114142    5.910071    0.807983
     44          1           0        0.339601    0.174590   -0.024271
     45          1           0       -2.805895   -1.425102    1.083598
     46          1           0       -2.632659   -3.040570    2.263223
     47          1           0       -1.087066   -4.051775    2.646712
     48          1           0        5.616611   -1.902194   -2.375229
     49          1           0       -4.941924   -0.329339    1.143498
     50          1           0       -5.932652    1.152408    0.856798
     51          1           0        3.146539   -0.044094    0.642683
     52          1           0       -0.645664    1.830840    0.498657
     53          1           0        1.843241   -4.493939    1.135985
     54          1           0        2.750132   -3.717426    2.144321
     55          1           0        1.136354   -4.550398    2.697621
     56          1           0        2.699475   -3.755184   -0.715846
     57          1           0       -0.789952   -4.866635    0.370341
     58          1           0       -2.233292   -5.624628    1.164935
     59          1           0       -4.748052   -1.285015   -0.920464
     60          1           0       -5.383301    0.147196   -1.672792
     61          1           0       -4.396110    4.776191   -0.122755
     62          1           0       -5.785438    3.276459    0.565681
     63          1           0       -4.966065    3.551668   -1.258146
     64          1           0       -2.166533    5.139587   -0.543154
     65          1           0        8.049063   -2.509904   -1.751889
     66          1           0        7.083280   -3.732709   -1.808097
     67          1           0        7.384779   -2.959343   -0.159173
     68          1           0        6.863642   -0.350780   -0.112460
     69          1           0        4.755213    1.329679    0.902959
     70          1           0        6.142127    0.884045    1.669416
     71          1           0        4.747570    0.353931    2.038204
     72          1           0        3.181408    6.453635   -0.997129
     73          1           0        3.820950    4.721357   -1.065676
     74          1           0       -0.571003    6.200729   -1.779452
     75          1           0        0.809509    7.475541   -1.240436
     76          1           0       -0.540653    6.835595    0.018394
     77          1           0        3.820732    7.236262    1.315905
     78          1           0        5.289269    6.128979    0.622740
     79          1           0        3.950861    5.048062    1.479885
     80          1           0       -3.300525   -4.659969   -1.921856
     81          1           0       -8.120902   -1.880467   -1.713122
 ---------------------------------------------------------------------

 SCF Done:  E(RB3LYP) =  -1948.90270879     A.U. after   16 cycles

 Excitation energies and oscillator strengths:

 Excited State   1:      Singlet-A      2.0843 eV  594.85 nm  f=0.3788  <S**2>=0.000
     156 ->157         0.70305
 This state for optimization and/or second-order correction.
 Total Energy, E(TD-HF/TD-DFT) =  -1948.82611238
 Copying the excited state density for this state as the 1-particle RhoCI density.

 The electronic state is 1-A.
 Alpha  occ. eigenvalues --  -19.20863 -19.19181 -19.15494 -19.12159 -19.12135
 Alpha  occ. eigenvalues --  -19.10608 -14.38058 -14.36702 -14.34639 -14.27262
 Alpha  occ. eigenvalues --  -10.34329 -10.32026 -10.28089 -10.26351 -10.23584
 Alpha  occ. eigenvalues --  -10.23471 -10.23350 -10.23199 -10.22652 -10.22442
 Alpha  occ. eigenvalues --  -10.22375 -10.22227 -10.21918 -10.21565 -10.21491
 Alpha  occ. eigenvalues --  -10.21280 -10.21038 -10.20257 -10.20126 -10.20009
 Alpha  occ. eigenvalues --  -10.19934 -10.19907 -10.19885 -10.19866 -10.19822
 Alpha  occ. eigenvalues --  -10.19718 -10.19699 -10.19389 -10.19039 -10.19002
 Alpha  occ. eigenvalues --  -10.18441 -10.18323 -10.15271  -1.10811  -1.09386
 Alpha  occ. eigenvalues --   -1.08769  -1.05358  -1.02941  -1.00414  -0.98132
 Alpha  occ. eigenvalues --   -0.96818  -0.94997  -0.89390  -0.82626  -0.82174
 Alpha  occ. eigenvalues --   -0.81926  -0.80896  -0.79345  -0.79174  -0.78711
 Alpha  occ. eigenvalues --   -0.78209  -0.76849  -0.74894  -0.74313  -0.72410
 Alpha  occ. eigenvalues --   -0.71432  -0.70543  -0.69557  -0.68369  -0.68117
 Alpha  occ. eigenvalues --   -0.66613  -0.65060  -0.64399  -0.61622  -0.60732
 Alpha  occ. eigenvalues --   -0.59950  -0.58824  -0.57791  -0.57648  -0.57170
 Alpha  occ. eigenvalues --   -0.56010  -0.55298  -0.54929  -0.54249  -0.54105
 Alpha  occ. eigenvalues --   -0.52787  -0.52025  -0.51304  -0.50595  -0.49572
 Alpha  occ. eigenvalues --   -0.49246  -0.48966  -0.48916  -0.48615  -0.48227
 Alpha  occ. eigenvalues --   -0.47576  -0.46981  -0.46850  -0.45961  -0.45698
 Alpha  occ. eigenvalues --   -0.45392  -0.44933  -0.44833  -0.44394  -0.44036
 Alpha  occ. eigenvalues --   -0.43750  -0.43494  -0.42942  -0.42630  -0.42329
 Alpha  occ. eigenvalues --   -0.41699  -0.41520  -0.41342  -0.41095  -0.41054
 Alpha  occ. eigenvalues --   -0.40690  -0.40567  -0.40476  -0.40389  -0.39963
 Alpha  occ. eigenvalues --   -0.39651  -0.39439  -0.39365  -0.38889  -0.38489
 Alpha  occ. eigenvalues --   -0.37690  -0.37613  -0.37051  -0.36974  -0.36521
 Alpha  occ. eigenvalues --   -0.35930  -0.35479  -0.35204  -0.35035  -0.34908
 Alpha  occ. eigenvalues --   -0.34685  -0.34512  -0.33780  -0.33625  -0.33325
 Alpha  occ. eigenvalues --   -0.32188  -0.31282  -0.31061  -0.30672  -0.30151
 Alpha  occ. eigenvalues --   -0.28005  -0.27383  -0.26485  -0.25512  -0.25248
 Alpha  occ. eigenvalues --   -0.24728  -0.24177  -0.23275  -0.22753  -0.20587
 Alpha  occ. eigenvalues --   -0.17906
 Alpha virt. eigenvalues --   -0.09462  -0.04926  -0.03967  -0.02914  -0.01670
 Alpha virt. eigenvalues --   -0.00306   0.01011   0.01785   0.02049   0.02615
 Alpha virt. eigenvalues --    0.02826   0.04410   0.04556   0.04922   0.05732

 Mulliken charges:
               1
     1  O   -0.175925
     2  O   -0.162100
     3  O   -0.235674
     4  O   -0.232262
     5  O   -0.322089
     6  O   -0.039136
     7  N    0.017620
     8  N   -0.013345
     9  N   -0.175241
    10  N   -0.386638
    11  C   -0.172997
    12  C   -0.070617
    13  C   -0.163737
    14  C    0.041653
    15  C   -0.148444
    16  C    0.188989
    17  C    0.061453
    18  C   -0.078263
    19  C    0.175713
    20  C    0.079523
    21  C    0.071370
    22  C    0.051986
    23  C   -0.053800
    24  C    0.184115
    25  C   -0.155473
    26  C    0.194212
    27  C    0.053058
    28  C   -0.043480
    29  C    0.032634
    30  C   -0.019166
    31  C   -0.183255
    32  C   -0.030278
    33  C   -0.102863
    34  C    0.086815
    35  C   -0.061293
    36  C   -0.234059
    37  C    0.163715
    38  C    0.221056
    39  C    0.155057
    40  C    0.152217
    41  C    0.114871
    42  C   -0.013732
    43  C   -0.121105
    44  H    0.158911
    45  H   -0.074048
    46  H    0.060474
    47  H   -0.057184
    48  H   -0.007219
    49  H   -0.029198
    50  H    0.047398
    51  H    0.014866
    52  H    0.056067
    53  H   -0.031979
    54  H    0.004407
    55  H    0.029826
    56  H    0.184337
    57  H    0.054537
    58  H    0.059783
    59  H    0.068197
    60  H   -0.015045
    61  H    0.049874
    62  H    0.051052
    63  H    0.026400
    64  H    0.024994
    65  H    0.009646
    66  H    0.017968
    67  H    0.026648
    68  H    0.002333
    69  H    0.026694
    70  H   -0.054052
    71  H   -0.007376
    72  H   -0.024447
    73  H    0.022888
    74  H    0.054554
    75  H    0.052220
    76  H    0.043306
    77  H    0.019211
    78  H    0.043872
    79  H    0.046526
    80  H    0.138092
    81  H    0.254381
 Sum of Mulliken charges =  -0.00000

 Dipole moment (field-independent basis, Debye):
    X=             -1.1612    Y=             -1.0473    Z=             -1.3470  Tot=              2.0639
 Quadrupole moment (field-independent basis, Debye-Ang):
   XX=           -256.6491   YY=           -242.3010   ZZ=           -252.3700
   XY=             21.6458   XZ=             15.9291   YZ=            -12.9513

 Normal termination of Gaussian 16 at Sat Jul  6 11:33:57 2019.
