 Gaussian 16, Revision A.03,
 Gaussian 16:  ES64L-G16RevA.03 25-Dec-2016

 --------------------------
 # td=(NStates=1) B3LYP/SVP
 --------------------------

 --
 TD
 --
 Symbolic Z-matrix:
 Charge =  0 Multiplicity = 1

                         Standard orientation:
 ---------------------------------------------------------------------
 Center     Atomic      Atomic             Coordinates (Angstroms)
 Number     Number       Type             X           Y           Z
 ---------------------------------------------------------------------
      1          8           0       -4.895627   -4.793241    1.812929
      2          8           0        3.088147   -4.827791    1.433887
      3          8           0        6.972233   -1.640012    1.800594
      4          8           0        3.852776   -3.206201    0.060259
      5          8           0        7.725454   -0.512760   -0.039951
      6          8           0       -2.993622    2.549569   -0.205810
      7          7           0       -0.275414   -0.610605   -0.549810
      8          7           0        1.582382    1.855171   -0.383048
      9          7           0       -3.519029   -3.111144    0.745349
     10          7           0       -0.759375    3.011298   -0.160702
     11          6           0        0.635684   -2.533790   -1.351078
     12          6           0        0.996065   -1.128727   -0.910886
     13          6           0       -0.688856   -2.764045   -1.137232
     14          6           0       -1.266571   -1.484485   -0.687627
     15          6           0        3.789772    1.419343   -0.441745
     16          6           0        2.572299    0.815755   -0.665639
     17          6           0        2.165113   -0.528244   -0.920115
     18          6           0        3.617063    2.753906   -0.020692
     19          6           0        1.575432   -3.525698   -1.733165
     20          6           0       -5.714613   -2.432993    1.217951
     21          6           0       -3.655482   -1.907557    0.131235
     22          6           0        2.194464    2.980995   -0.144152
     23          6           0       -5.053640   -1.492337    0.259046
     24          6           0        5.068800    0.596753   -0.450097
     25          6           0       -2.626670   -1.112278   -0.387525
     26          6           0       -1.553377   -3.849060   -1.716934
     27          6           0       -4.708348   -3.604148    1.274299
     28          6           0        2.012883   -4.588502   -0.705684
     29          6           0        5.378458   -0.214239    0.712821
     30          6           0        4.615539    3.725622    0.340487
     31          6           0        1.405333    4.155506    0.172820
     32          6           0       -7.062967   -3.036205    0.915473
     33          6           0       -5.754861   -0.539392   -0.279248
     34          6           0        0.027028    4.062012    0.133038
     35          6           0       -1.035773    5.226521    0.545748
     36          6           0       -2.223882    4.774529    0.359238
     37          6           0        2.993833   -4.133682    0.225572
     38          6           0       -5.313816    0.492742   -1.306476
     39          6           0        6.759888   -0.793203    0.708787
     40          6           0       -3.502275    5.444626    0.615482
     41          6           0       -1.961431    3.322756   -0.051565
     42          6           0       -0.520331    6.590567    0.858390
     43          6           0       -4.231982    5.610127   -0.725489
     44          1           0       -0.312272    0.268455    0.158693
     45          1           0        2.915191   -1.241551   -1.350988
     46          1           0        2.478249   -2.964819   -2.210382
     47          1           0        1.299882   -3.964393   -2.733249
     48          1           0       -5.897213   -2.132356    2.263651
     49          1           0        5.185691   -0.154965   -1.323124
     50          1           0        6.049154    1.229320   -0.742621
     51          1           0       -3.110203    0.041622   -0.460076
     52          1           0        0.559369    1.925661   -0.533220
     53          1           0       -1.392605   -4.887607   -1.235515
     54          1           0       -2.660157   -3.584307   -1.739533
     55          1           0       -1.383504   -4.069650   -2.764184
     56          1           0       -2.568557   -3.585127    0.630986
     57          1           0        1.031040   -5.187616   -0.287126
     58          1           0        2.458605   -5.361456   -1.211319
     59          1           0        4.747775   -1.055817    0.804585
     60          1           0        5.395401    0.206233    1.724576
     61          1           0        4.509356    4.810318   -0.103689
     62          1           0        5.633145    3.355333   -0.276934
     63          1           0        4.779194    3.930385    1.383970
     64          1           0        1.985181    5.163520    0.395817
     65          1           0       -7.993831   -2.391317    1.213696
     66          1           0       -7.112335   -4.014879    1.335786
     67          1           0       -7.059770   -3.266557   -0.138924
     68          1           0       -6.744560   -0.464408   -0.075783
     69          1           0       -4.945695    1.437629   -0.882014
     70          1           0       -6.225166    0.929148   -1.692201
     71          1           0       -4.689280    0.186924   -2.108798
     72          1           0       -3.457397    6.440365    1.254034
     73          1           0       -4.008543    4.632045    1.317159
     74          1           0        0.209707    6.571264    1.754939
     75          1           0       -1.387369    7.214743    1.230002
     76          1           0        0.230363    6.889779    0.041235
     77          1           0       -3.524186    6.185370   -1.445932
     78          1           0       -5.172591    6.266657   -0.603416
     79          1           0       -4.497628    4.431807   -0.859459
     80          1           0        3.915662   -4.499516    2.059421
     81          1           0        7.968397   -1.678840    1.741925
 ---------------------------------------------------------------------

 SCF Done:  E(RB3LYP) =  -1949.08884133     A.U. after   23 cycles

 Excitation energies and oscillator strengths:

 Excited State   1:      Singlet-A      1.8956 eV  654.05 nm  f=0.4312  <S**2>=0.000
     156 ->157         0.70372
     156 <-157        -0.12060
 This state for optimization and/or second-order correction.
 Total Energy, E(TD-HF/TD-DFT) =  -1949.01917790
 Copying the excited state density for this state as the 1-particle RhoCI density.

 The electronic state is 1-A.
 Alpha  occ. eigenvalues --  -19.19739 -19.18087 -19.14475 -19.13143 -19.12234
 Alpha  occ. eigenvalues --  -19.06825 -14.40160 -14.40095 -14.35703 -14.28206
 Alpha  occ. eigenvalues --  -10.34958 -10.32399 -10.31242 -10.26527 -10.26273
 Alpha  occ. eigenvalues --  -10.24460 -10.24442 -10.24166 -10.23473 -10.23262
 Alpha  occ. eigenvalues --  -10.22955 -10.22364 -10.22287 -10.22271 -10.22178
 Alpha  occ. eigenvalues --  -10.21844 -10.21354 -10.21343 -10.21024 -10.20662
 Alpha  occ. eigenvalues --  -10.20492 -10.20269 -10.20016 -10.19849 -10.19573
 Alpha  occ. eigenvalues --  -10.19217 -10.19083 -10.18828 -10.18777 -10.18402
 Alpha  occ. eigenvalues --  -10.17398 -10.17392 -10.15907  -1.07920  -1.07804
 Alpha  occ. eigenvalues --   -1.01713  -0.99679  -0.98527  -0.98517  -0.98475
 Alpha  occ. eigenvalues --   -0.97423  -0.95490  -0.90529  -0.85344  -0.83722
 Alpha  occ. eigenvalues --   -0.83297  -0.82250  -0.80497  -0.79595  -0.79017
 Alpha  occ. eigenvalues --   -0.78872  -0.77349  -0.75503  -0.74044  -0.73177
 Alpha  occ. eigenvalues --   -0.71935  -0.70964  -0.69867  -0.68704  -0.67800
 Alpha  occ. eigenvalues --   -0.67062  -0.66484  -0.65902  -0.62334  -0.61266
 Alpha  occ. eigenvalues --   -0.60098  -0.59359  -0.59086  -0.57904  -0.57463
 Alpha  occ. eigenvalues --   -0.56250  -0.55501  -0.54953  -0.54796  -0.53992
 Alpha  occ. eigenvalues --   -0.53532  -0.52009  -0.51254  -0.50564  -0.50018
 Alpha  occ. eigenvalues --   -0.49581  -0.49130  -0.48953  -0.48186  -0.48081
 Alpha  occ. eigenvalues --   -0.47774  -0.47724  -0.46701  -0.45839  -0.45694
 Alpha  occ. eigenvalues --   -0.45063  -0.44839  -0.44499  -0.44226  -0.43867
 Alpha  occ. eigenvalues --   -0.43372  -0.42817  -0.42561  -0.42302  -0.42232
 Alpha  occ. eigenvalues --   -0.41854  -0.41492  -0.41316  -0.41128  -0.40884
 Alpha  occ. eigenvalues --   -0.40749  -0.40486  -0.40381  -0.40104  -0.39853
 Alpha  occ. eigenvalues --   -0.39472  -0.39218  -0.39134  -0.38922  -0.38174
 Alpha  occ. eigenvalues --   -0.37864  -0.37596  -0.37207  -0.36878  -0.36731
 Alpha  occ. eigenvalues --   -0.36274  -0.35705  -0.35439  -0.34694  -0.34088
 Alpha  occ. eigenvalues --   -0.33480  -0.33335  -0.32966  -0.32492  -0.32295
 Alpha  occ. eigenvalues --   -0.31868  -0.31751  -0.30832  -0.29491  -0.29293
 Alpha  occ. eigenvalues --   -0.28257  -0.27813  -0.27488  -0.26589  -0.26140
 Alpha  occ. eigenvalues --   -0.25515  -0.24578  -0.23398  -0.22219  -0.21782
 Alpha  occ. eigenvalues --   -0.18263
 Alpha virt. eigenvalues --   -0.10946  -0.05719  -0.04111  -0.03703  -0.02687
 Alpha virt. eigenvalues --   -0.00893   0.00750   0.01238   0.01404   0.02033
 Alpha virt. eigenvalues --    0.04144   0.04366   0.04782   0.05127   0.05554

 Mulliken charges:
               1
     1  O   -0.298037
     2  O   -0.278523
     3  O   -0.231371
     4  O   -0.275936
     5  O   -0.270799
     6  O   -0.335082
     7  N   -0.101404
     8  N   -0.100267
     9  N   -0.084158
    10  N   -0.138317
    11  C   -0.055364
    12  C    0.060509
    13  C   -0.125948
    14  C    0.070486
    15  C    0.006119
    16  C    0.077774
    17  C   -0.029575
    18  C   -0.106773
    19  C    0.023964
    20  C   -0.074889
    21  C    0.039984
    22  C    0.034040
    23  C    0.050512
    24  C   -0.011342
    25  C   -0.167150
    26  C    0.012594
    27  C    0.173302
    28  C    0.102801
    29  C    0.093756
    30  C    0.002146
    31  C   -0.147683
    32  C    0.041260
    33  C   -0.117060
    34  C    0.077601
    35  C   -0.116191
    36  C   -0.139876
    37  C    0.174228
    38  C    0.077629
    39  C    0.133455
    40  C   -0.008374
    41  C    0.067220
    42  C    0.079235
    43  C   -0.072167
    44  H    0.203822
    45  H    0.012883
    46  H    0.019670
    47  H    0.008815
    48  H    0.055234
    49  H    0.023064
    50  H    0.036492
    51  H    0.115036
    52  H    0.134310
    53  H    0.030796
    54  H    0.049477
    55  H    0.024649
    56  H    0.160074
    57  H    0.068937
    58  H    0.025947
    59  H    0.019659
    60  H    0.028607
    61  H    0.030057
    62  H    0.040178
    63  H    0.028242
    64  H    0.010893
    65  H    0.035277
    66  H    0.028406
    67  H   -0.011274
    68  H   -0.040434
    69  H    0.074147
    70  H   -0.017483
    71  H    0.027673
    72  H    0.011268
    73  H    0.029066
    74  H    0.007130
    75  H    0.020077
    76  H    0.033403
    77  H    0.032617
    78  H    0.013455
    79  H    0.077031
    80  H    0.254217
    81  H    0.186254
 Sum of Mulliken charges =  -0.00000

 Dipole moment (field-independent basis, Debye):
    X=              2.0273    Y=             -3.3961    Z=             -0.2877  Tot=              3.9656
 Quadrupole moment (field-independent basis, Debye-Ang):
   XX=           -264.9468   YY=           -250.2983   ZZ=           -252.8082
   XY=            -11.9537   XZ=             15.8487   YZ=             18.3939

 Normal termination of Gaussian 16 at Fri Jun 28 06:32:19 2019.
