 Gaussian 16, Revision A.03,
 Gaussian 16:  ES64L-G16RevA.03 25-Dec-2016

 --------------------------
 # td=(NStates=1) B3LYP/SVP
 --------------------------

 --
 TD
 --
 Symbolic Z-matrix:
 Charge =  0 Multiplicity = 1

                         Standard orientation:
 ---------------------------------------------------------------------
 Center     Atomic      Atomic             Coordinates (Angstroms)
 Number     Number       Type             X           Y           Z
 ---------------------------------------------------------------------
      1          8           0       -4.670754   -4.587704    1.914393
      2          8           0        2.789970   -4.919965    1.404623
      3          8           0        7.121249   -1.413106    1.886330
      4          8           0        3.610419   -3.280862    0.110056
      5          8           0        7.589038   -0.713508   -0.275922
      6          8           0       -2.935336    2.528590   -0.197481
      7          7           0       -0.369590   -0.621953   -0.618068
      8          7           0        1.619956    1.708924   -0.333260
      9          7           0       -3.471332   -3.039125    0.628532
     10          7           0       -0.682503    2.961547   -0.248692
     11          6           0        0.576165   -2.425688   -1.429936
     12          6           0        0.894853   -1.078810   -0.968689
     13          6           0       -0.802561   -2.661959   -1.306815
     14          6           0       -1.336928   -1.445704   -0.812914
     15          6           0        3.868341    1.354354   -0.423192
     16          6           0        2.533161    0.687919   -0.513480
     17          6           0        2.252402   -0.518863   -0.937265
     18          6           0        3.633530    2.657376    0.138441
     19          6           0        1.586017   -3.517986   -1.833340
     20          6           0       -5.610781   -2.459464    1.287324
     21          6           0       -3.670792   -1.783540    0.040198
     22          6           0        2.203672    2.924271   -0.025027
     23          6           0       -5.104016   -1.482284    0.288353
     24          6           0        5.099601    0.636197   -0.440185
     25          6           0       -2.695488   -1.034197   -0.511585
     26          6           0       -1.559276   -3.940331   -1.645288
     27          6           0       -4.517058   -3.564574    1.271246
     28          6           0        1.859796   -4.605263   -0.742732
     29          6           0        5.458465   -0.271313    0.676406
     30          6           0        4.745273    3.627826    0.299597
     31          6           0        1.364891    4.084077    0.228575
     32          6           0       -6.978209   -3.175511    1.032901
     33          6           0       -5.853018   -0.492561   -0.253144
     34          6           0        0.011022    4.048953    0.063904
     35          6           0       -0.909912    5.233305    0.405653
     36          6           0       -2.204276    4.766642    0.376578
     37          6           0        2.832063   -4.194166    0.398348
     38          6           0       -5.527208    0.576901   -1.249496
     39          6           0        6.848690   -0.798109    0.737750
     40          6           0       -3.530096    5.396166    0.688089
     41          6           0       -2.047131    3.298403   -0.117415
     42          6           0       -0.429698    6.567784    0.846288
     43          6           0       -3.989813    5.992180   -0.639786
     44          1           0       -0.670519    0.300009   -0.362547
     45          1           0        3.194608   -1.077143   -1.019048
     46          1           0        2.523484   -3.124298   -2.160665
     47          1           0        1.189559   -4.023138   -2.792994
     48          1           0       -5.579997   -2.147770    2.348602
     49          1           0        5.201884    0.116695   -1.429897
     50          1           0        5.963922    1.432450   -0.373909
     51          1           0       -2.790148   -0.046563   -0.895345
     52          1           0        0.584088    1.906828   -0.372635
     53          1           0       -1.615293   -4.709315   -0.779978
     54          1           0       -2.573236   -3.694053   -1.867021
     55          1           0       -0.759037   -4.372558   -2.408262
     56          1           0       -2.821765   -3.940910    0.339893
     57          1           0        0.982248   -4.928648   -0.350339
     58          1           0        2.345106   -5.450833   -1.306067
     59          1           0        4.858039   -1.179648    1.031737
     60          1           0        5.522731    0.356259    1.576855
     61          1           0        4.490868    4.601469   -0.082530
     62          1           0        5.712356    3.135563   -0.063582
     63          1           0        5.041043    3.912352    1.489378
     64          1           0        1.869094    5.046031    0.385916
     65          1           0       -7.900442   -2.584022    1.096793
     66          1           0       -7.154748   -3.941288    1.730607
     67          1           0       -6.900503   -3.633218    0.128283
     68          1           0       -6.830090   -0.431655    0.189322
     69          1           0       -5.070153    1.347959   -0.774337
     70          1           0       -6.265330    1.183183   -1.588819
     71          1           0       -4.883947    0.155266   -2.125841
     72          1           0       -3.620413    6.081864    1.457683
     73          1           0       -4.259081    4.470482    1.023771
     74          1           0        0.350613    6.498349    1.712338
     75          1           0       -1.068751    7.222010    1.379783
     76          1           0       -0.062683    7.126577   -0.024959
     77          1           0       -3.433931    6.852426   -1.262528
     78          1           0       -5.115258    6.203980   -0.418859
     79          1           0       -3.888493    5.232678   -1.445963
     80          1           0        3.619890   -4.721390    1.943114
     81          1           0        8.091789   -1.561473    1.760301
 ---------------------------------------------------------------------

 SCF Done:  E(RB3LYP) =  -1949.13535486     A.U. after   16 cycles

 Excitation energies and oscillator strengths:

 Excited State   1:      Singlet-A      2.1228 eV  584.05 nm  f=0.4145  <S**2>=0.000
     156 ->157         0.70661
 This state for optimization and/or second-order correction.
 Total Energy, E(TD-HF/TD-DFT) =  -1949.05734173
 Copying the excited state density for this state as the 1-particle RhoCI density.

 The electronic state is 1-A.
 Alpha  occ. eigenvalues --  -19.22898 -19.20463 -19.13115 -19.12445 -19.10556
 Alpha  occ. eigenvalues --  -19.10199 -14.38197 -14.37570 -14.34999 -14.28862
 Alpha  occ. eigenvalues --  -10.33452 -10.32353 -10.27792 -10.26582 -10.24629
 Alpha  occ. eigenvalues --  -10.24602 -10.23528 -10.22507 -10.22433 -10.22418
 Alpha  occ. eigenvalues --  -10.21479 -10.21207 -10.21112 -10.20888 -10.20738
 Alpha  occ. eigenvalues --  -10.20732 -10.20675 -10.20672 -10.20577 -10.19795
 Alpha  occ. eigenvalues --  -10.19751 -10.19630 -10.19519 -10.19437 -10.19388
 Alpha  occ. eigenvalues --  -10.19218 -10.19155 -10.18939 -10.18882 -10.18687
 Alpha  occ. eigenvalues --  -10.18327 -10.16870 -10.16555  -1.15796  -1.11034
 Alpha  occ. eigenvalues --   -1.03714  -1.02889  -1.01784  -1.00521  -0.99391
 Alpha  occ. eigenvalues --   -0.96905  -0.95470  -0.91489  -0.83131  -0.81875
 Alpha  occ. eigenvalues --   -0.81089  -0.80977  -0.79647  -0.78842  -0.77760
 Alpha  occ. eigenvalues --   -0.77334  -0.75989  -0.75218  -0.74472  -0.72918
 Alpha  occ. eigenvalues --   -0.71402  -0.70076  -0.69398  -0.68670  -0.68341
 Alpha  occ. eigenvalues --   -0.67446  -0.65213  -0.64587  -0.63514  -0.62389
 Alpha  occ. eigenvalues --   -0.61035  -0.60011  -0.58575  -0.57520  -0.56423
 Alpha  occ. eigenvalues --   -0.55687  -0.55210  -0.54876  -0.53070  -0.53004
 Alpha  occ. eigenvalues --   -0.52300  -0.51956  -0.51645  -0.51223  -0.50178
 Alpha  occ. eigenvalues --   -0.49862  -0.49397  -0.49243  -0.49061  -0.48018
 Alpha  occ. eigenvalues --   -0.47453  -0.47115  -0.46936  -0.45929  -0.45780
 Alpha  occ. eigenvalues --   -0.45217  -0.44826  -0.44128  -0.43845  -0.43788
 Alpha  occ. eigenvalues --   -0.43369  -0.42983  -0.42794  -0.42608  -0.42159
 Alpha  occ. eigenvalues --   -0.41754  -0.41486  -0.41482  -0.41327  -0.41110
 Alpha  occ. eigenvalues --   -0.40921  -0.40696  -0.40428  -0.39751  -0.39643
 Alpha  occ. eigenvalues --   -0.39187  -0.39109  -0.38931  -0.38516  -0.38230
 Alpha  occ. eigenvalues --   -0.37962  -0.37752  -0.37150  -0.36827  -0.36260
 Alpha  occ. eigenvalues --   -0.36065  -0.35865  -0.35498  -0.35276  -0.34852
 Alpha  occ. eigenvalues --   -0.34380  -0.33922  -0.33837  -0.33692  -0.33409
 Alpha  occ. eigenvalues --   -0.32794  -0.32343  -0.31516  -0.30105  -0.28554
 Alpha  occ. eigenvalues --   -0.28098  -0.27487  -0.26063  -0.25319  -0.24933
 Alpha  occ. eigenvalues --   -0.24546  -0.24354  -0.24195  -0.23180  -0.21690
 Alpha  occ. eigenvalues --   -0.18272
 Alpha virt. eigenvalues --   -0.09762  -0.04820  -0.03524  -0.00637  -0.00124
 Alpha virt. eigenvalues --    0.00845   0.01655   0.01910   0.02758   0.03250
 Alpha virt. eigenvalues --    0.03638   0.04497   0.05231   0.05489   0.05630

 Mulliken charges:
               1
     1  O   -0.229406
     2  O   -0.069958
     3  O   -0.162297
     4  O   -0.267846
     5  O   -0.279867
     6  O   -0.160502
     7  N    0.023403
     8  N   -0.120441
     9  N   -0.152265
    10  N   -0.317046
    11  C   -0.128757
    12  C    0.088380
    13  C   -0.160077
    14  C   -0.022983
    15  C   -0.070353
    16  C    0.079706
    17  C   -0.038592
    18  C   -0.097107
    19  C    0.077839
    20  C   -0.071681
    21  C    0.159792
    22  C    0.062335
    23  C   -0.003062
    24  C    0.069363
    25  C   -0.113468
    26  C    0.050032
    27  C    0.062057
    28  C    0.052177
    29  C    0.021564
    30  C    0.022961
    31  C   -0.104980
    32  C    0.122607
    33  C   -0.131511
    34  C    0.102209
    35  C   -0.091704
    36  C   -0.199897
    37  C    0.093681
    38  C    0.169544
    39  C    0.112854
    40  C    0.092239
    41  C    0.143548
    42  C    0.086169
    43  C   -0.048800
    44  H    0.123480
    45  H    0.026043
    46  H   -0.002860
    47  H    0.015096
    48  H    0.041777
    49  H    0.035479
    50  H    0.016197
    51  H    0.009125
    52  H    0.141865
    53  H    0.041352
    54  H    0.026355
    55  H    0.038733
    56  H    0.173116
    57  H   -0.017511
    58  H    0.042447
    59  H    0.061292
    60  H    0.011952
    61  H    0.025494
    62  H    0.031804
    63  H    0.026003
    64  H   -0.025212
    65  H    0.005044
    66  H    0.004683
    67  H   -0.026632
    68  H   -0.022340
    69  H    0.006601
    70  H   -0.037500
    71  H    0.039742
    72  H   -0.010690
    73  H    0.034709
    74  H    0.027036
    75  H   -0.008498
    76  H    0.027966
    77  H    0.033596
    78  H    0.022668
    79  H    0.017124
    80  H    0.207377
    81  H    0.187226
 Sum of Mulliken charges =  -0.00000

 Dipole moment (field-independent basis, Debye):
    X=              3.6550    Y=              0.1525    Z=              1.1040  Tot=              3.8211
 Quadrupole moment (field-independent basis, Debye-Ang):
   XX=           -250.7725   YY=           -233.6961   ZZ=           -255.3205
   XY=            -22.6408   XZ=             24.8990   YZ=              9.6237

 Normal termination of Gaussian 16 at Thu Jul  4 04:41:34 2019.
