 Gaussian 16, Revision A.03,
 Gaussian 16:  ES64L-G16RevA.03 25-Dec-2016

 --------------------------
 # td=(NStates=1) B3LYP/SVP
 --------------------------

 --
 TD
 --
 Symbolic Z-matrix:
 Charge =  0 Multiplicity = 1

                         Standard orientation:
 ---------------------------------------------------------------------
 Center     Atomic      Atomic             Coordinates (Angstroms)
 Number     Number       Type             X           Y           Z
 ---------------------------------------------------------------------
      1          8           0        4.660616   -4.476631   -2.026816
      2          8           0       -2.481223   -5.084052   -1.298967
      3          8           0       -7.157119   -1.652126   -1.893220
      4          8           0       -3.308860   -3.237644   -0.291960
      5          8           0       -7.740995   -0.928892    0.103002
      6          8           0        2.854470    2.598177    0.165447
      7          7           0        0.321646   -0.522477    0.544404
      8          7           0       -1.616576    1.725653    0.292314
      9          7           0        3.597066   -2.975482   -0.599171
     10          7           0        0.552583    2.917601    0.029120
     11          6           0       -0.455715   -2.433446    1.333807
     12          6           0       -0.897964   -1.174545    0.970293
     13          6           0        0.897519   -2.536289    1.312843
     14          6           0        1.385617   -1.325855    0.800059
     15          6           0       -3.825886    1.194163    0.436243
     16          6           0       -2.509113    0.696929    0.636998
     17          6           0       -2.183932   -0.575676    0.969112
     18          6           0       -3.731318    2.497552    0.012290
     19          6           0       -1.416309   -3.524673    1.950186
     20          6           0        5.691343   -2.390024   -1.365976
     21          6           0        3.766880   -1.658017   -0.121442
     22          6           0       -2.266001    2.834303   -0.039858
     23          6           0        5.185853   -1.330132   -0.373146
     24          6           0       -5.224949    0.392408    0.520557
     25          6           0        2.755118   -0.912568    0.512017
     26          6           0        1.724011   -3.736769    1.832693
     27          6           0        4.606567   -3.387044   -1.387858
     28          6           0       -1.667450   -4.550501    0.858409
     29          6           0       -5.506783   -0.384467   -0.723131
     30          6           0       -4.874756    3.519390   -0.089427
     31          6           0       -1.595201    3.975227   -0.298601
     32          6           0        7.137431   -3.028383   -0.895155
     33          6           0        5.901505   -0.321531    0.212163
     34          6           0       -0.173693    3.979021   -0.251019
     35          6           0        0.647726    5.206865   -0.489029
     36          6           0        2.007552    4.811942   -0.383175
     37          6           0       -2.585011   -4.236558   -0.241900
     38          6           0        5.394373    0.684102    1.134274
     39          6           0       -6.865686   -1.063550   -0.749127
     40          6           0        3.191344    5.628538   -0.533968
     41          6           0        1.912421    3.342159   -0.111231
     42          6           0        0.101758    6.521514   -0.870207
     43          6           0        3.904835    5.908832    0.869847
     44          1           0        0.367587    0.337646    0.064254
     45          1           0       -3.011498   -1.396871    1.194851
     46          1           0       -2.291765   -3.274829    2.379180
     47          1           0       -0.836493   -3.977342    2.728831
     48          1           0        5.777301   -1.932528   -2.201057
     49          1           0       -5.060786   -0.433109    1.416621
     50          1           0       -5.891977    1.164829    0.713353
     51          1           0        2.950468    0.184356    0.629082
     52          1           0       -0.408652    1.833413    0.255503
     53          1           0        1.837370   -4.628934    1.275912
     54          1           0        2.872453   -3.371770    1.687772
     55          1           0        1.280737   -3.981553    2.776714
     56          1           0        2.772694   -3.495072   -0.425419
     57          1           0       -0.695200   -4.996890    0.489792
     58          1           0       -2.341508   -5.230898    1.367298
     59          1           0       -4.823706   -1.156784   -0.626181
     60          1           0       -5.391752    0.102849   -1.630535
     61          1           0       -4.642882    4.430884    0.510701
     62          1           0       -5.765185    3.153587    0.215567
     63          1           0       -5.031918    3.828649   -1.098143
     64          1           0       -2.103811    4.904156   -0.691390
     65          1           0        7.733326   -2.218732   -1.085511
     66          1           0        7.487120   -3.921020   -1.437346
     67          1           0        7.010955   -3.409620    0.260456
     68          1           0        6.917762   -0.170993   -0.059983
     69          1           0        4.660154    1.394113    0.550007
     70          1           0        6.193812    1.384986    1.620989
     71          1           0        5.060748    0.180481    2.064680
     72          1           0        3.011509    6.454294   -1.223019
     73          1           0        3.981934    5.037923   -1.023673
     74          1           0       -0.628561    6.412071   -1.655218
     75          1           0        1.111935    7.075651   -1.310447
     76          1           0       -0.470122    7.064181   -0.124610
     77          1           0        3.250113    6.426240    1.701388
     78          1           0        4.866328    6.487573    0.791779
     79          1           0        4.287321    5.044823    1.284640
     80          1           0       -3.185246   -4.606150   -1.925320
     81          1           0       -8.041259   -2.204829   -2.013310
 ---------------------------------------------------------------------

 SCF Done:  E(RB3LYP) =  -1949.14506896     A.U. after   16 cycles

 Excitation energies and oscillator strengths:

 Excited State   1:      Singlet-A      1.9443 eV  637.69 nm  f=0.3218  <S**2>=0.000
     156 ->157         0.70590
     156 <-157        -0.10065
 This state for optimization and/or second-order correction.
 Total Energy, E(TD-HF/TD-DFT) =  -1949.07361804
 Copying the excited state density for this state as the 1-particle RhoCI density.

 The electronic state is 1-A.
 Alpha  occ. eigenvalues --  -19.20103 -19.18048 -19.14121 -19.11193 -19.10854
 Alpha  occ. eigenvalues --  -19.09473 -14.37426 -14.37154 -14.34082 -14.30676
 Alpha  occ. eigenvalues --  -10.33440 -10.31335 -10.28377 -10.27891 -10.24992
 Alpha  occ. eigenvalues --  -10.23397 -10.23060 -10.22974 -10.22377 -10.22226
 Alpha  occ. eigenvalues --  -10.21828 -10.21431 -10.20901 -10.20876 -10.20687
 Alpha  occ. eigenvalues --  -10.20597 -10.20431 -10.20243 -10.19975 -10.19970
 Alpha  occ. eigenvalues --  -10.19886 -10.19812 -10.19710 -10.19642 -10.19558
 Alpha  occ. eigenvalues --  -10.19513 -10.19299 -10.18990 -10.18982 -10.18910
 Alpha  occ. eigenvalues --  -10.18629 -10.18624 -10.18578  -1.10233  -1.08519
 Alpha  occ. eigenvalues --   -1.01799  -1.01534  -1.00596  -0.98090  -0.97852
 Alpha  occ. eigenvalues --   -0.96813  -0.94528  -0.92664  -0.83195  -0.81931
 Alpha  occ. eigenvalues --   -0.81783  -0.80594  -0.80455  -0.79118  -0.78119
 Alpha  occ. eigenvalues --   -0.77358  -0.76641  -0.75647  -0.74363  -0.72347
 Alpha  occ. eigenvalues --   -0.70950  -0.69726  -0.69494  -0.69229  -0.67811
 Alpha  occ. eigenvalues --   -0.66972  -0.65560  -0.64343  -0.63497  -0.62047
 Alpha  occ. eigenvalues --   -0.60317  -0.60031  -0.59574  -0.58055  -0.57434
 Alpha  occ. eigenvalues --   -0.56068  -0.55213  -0.54943  -0.53906  -0.53350
 Alpha  occ. eigenvalues --   -0.52823  -0.51739  -0.51072  -0.50482  -0.49936
 Alpha  occ. eigenvalues --   -0.49631  -0.49435  -0.49225  -0.48464  -0.47759
 Alpha  occ. eigenvalues --   -0.46891  -0.46032  -0.45955  -0.45806  -0.45202
 Alpha  occ. eigenvalues --   -0.44731  -0.44420  -0.44245  -0.43994  -0.43566
 Alpha  occ. eigenvalues --   -0.43382  -0.42960  -0.42769  -0.42316  -0.42036
 Alpha  occ. eigenvalues --   -0.41861  -0.41636  -0.41342  -0.41202  -0.41071
 Alpha  occ. eigenvalues --   -0.40906  -0.40565  -0.40391  -0.40155  -0.40044
 Alpha  occ. eigenvalues --   -0.39662  -0.39238  -0.39171  -0.38735  -0.38527
 Alpha  occ. eigenvalues --   -0.38272  -0.37958  -0.37589  -0.37443  -0.37116
 Alpha  occ. eigenvalues --   -0.35778  -0.35371  -0.35112  -0.35011  -0.34759
 Alpha  occ. eigenvalues --   -0.34497  -0.34263  -0.33940  -0.33429  -0.33281
 Alpha  occ. eigenvalues --   -0.32799  -0.31837  -0.30935  -0.30276  -0.29313
 Alpha  occ. eigenvalues --   -0.28759  -0.26577  -0.26267  -0.25697  -0.25487
 Alpha  occ. eigenvalues --   -0.25100  -0.24647  -0.24231  -0.23709  -0.21860
 Alpha  occ. eigenvalues --   -0.17840
 Alpha virt. eigenvalues --   -0.09993  -0.06153  -0.03846  -0.01305   0.00318
 Alpha virt. eigenvalues --    0.01203   0.02209   0.02656   0.03183   0.03505
 Alpha virt. eigenvalues --    0.04218   0.04515   0.04904   0.05652   0.05780

 Mulliken charges:
               1
     1  O   -0.273453
     2  O   -0.218603
     3  O   -0.220652
     4  O   -0.255753
     5  O   -0.250021
     6  O   -0.210021
     7  N   -0.080137
     8  N   -0.209197
     9  N   -0.073150
    10  N   -0.295434
    11  C   -0.112727
    12  C    0.034673
    13  C   -0.157490
    14  C    0.061682
    15  C   -0.120034
    16  C    0.159503
    17  C   -0.105298
    18  C   -0.149386
    19  C    0.215115
    20  C    0.052525
    21  C    0.065408
    22  C    0.127399
    23  C   -0.028196
    24  C    0.103152
    25  C   -0.115638
    26  C    0.050648
    27  C    0.116187
    28  C    0.029843
    29  C    0.105810
    30  C    0.172715
    31  C   -0.171020
    32  C    0.035857
    33  C   -0.129476
    34  C    0.078690
    35  C   -0.124263
    36  C   -0.155631
    37  C    0.123999
    38  C   -0.005113
    39  C    0.115486
    40  C    0.091100
    41  C    0.182482
    42  C    0.090202
    43  C   -0.015044
    44  H    0.102406
    45  H    0.044457
    46  H   -0.031270
    47  H   -0.022788
    48  H   -0.024655
    49  H    0.034835
    50  H   -0.007577
    51  H    0.033697
    52  H    0.230026
    53  H    0.019378
    54  H    0.044252
    55  H    0.027789
    56  H    0.112246
    57  H    0.056638
    58  H    0.030009
    59  H    0.013459
    60  H    0.011871
    61  H    0.025060
    62  H   -0.029000
    63  H    0.000341
    64  H   -0.017886
    65  H    0.008858
    66  H    0.041537
    67  H    0.040730
    68  H   -0.021610
    69  H    0.114633
    70  H    0.005721
    71  H    0.034168
    72  H    0.003963
    73  H    0.004679
    74  H    0.017285
    75  H    0.038837
    76  H    0.027713
    77  H    0.028679
    78  H    0.008761
    79  H    0.008359
    80  H    0.216416
    81  H    0.231246
 Sum of Mulliken charges =  -0.00000

 Dipole moment (field-independent basis, Debye):
    X=             -1.6889    Y=              1.1266    Z=             -0.3599  Tot=              2.0618
 Quadrupole moment (field-independent basis, Debye-Ang):
   XX=           -253.3341   YY=           -237.1538   ZZ=           -254.0336
   XY=             22.4439   XZ=             20.9947   YZ=            -17.3737

 Normal termination of Gaussian 16 at Sat Jun 29 21:56:10 2019.
