 Gaussian 16, Revision A.03,
 Gaussian 16:  ES64L-G16RevA.03 25-Dec-2016

 --------------------------
 # td=(NStates=1) B3LYP/SVP
 --------------------------

 --
 TD
 --
 Symbolic Z-matrix:
 Charge =  0 Multiplicity = 1

                         Standard orientation:
 ---------------------------------------------------------------------
 Center     Atomic      Atomic             Coordinates (Angstroms)
 Number     Number       Type             X           Y           Z
 ---------------------------------------------------------------------
      1          8           0        4.624848   -4.903503   -1.733704
      2          8           0       -2.878783   -4.563233   -1.485363
      3          8           0       -7.054702   -1.475371   -1.858070
      4          8           0       -3.816537   -3.071842   -0.127962
      5          8           0       -7.563558   -0.802518    0.161870
      6          8           0        2.921829    2.288139    0.283487
      7          7           0        0.225989   -0.566004    0.600172
      8          7           0       -1.565430    1.792299    0.461600
      9          7           0        3.432623   -3.209209   -0.571762
     10          7           0        0.682933    2.842125    0.032432
     11          6           0       -0.747416   -2.442798    1.374371
     12          6           0       -0.925963   -1.045392    0.909699
     13          6           0        0.691006   -2.543620    1.405704
     14          6           0        1.262582   -1.393723    0.865093
     15          6           0       -3.724058    1.425665    0.412156
     16          6           0       -2.482327    0.840882    0.587538
     17          6           0       -2.218296   -0.470254    0.933838
     18          6           0       -3.470775    2.800085   -0.013431
     19          6           0       -1.769059   -3.430644    1.900112
     20          6           0        5.525518   -2.534078   -1.371426
     21          6           0        3.620571   -1.842629   -0.160534
     22          6           0       -2.036020    2.992387   -0.006672
     23          6           0        4.998200   -1.506285   -0.446637
     24          6           0       -5.077907    0.719084    0.468148
     25          6           0        2.652899   -1.000980    0.411885
     26          6           0        1.419537   -3.789522    1.847946
     27          6           0        4.580923   -3.757713   -1.236171
     28          6           0       -2.211517   -4.482610    0.839031
     29          6           0       -5.360833   -0.025904   -0.817141
     30          6           0       -4.480160    3.859003   -0.394308
     31          6           0       -1.247916    4.202129   -0.245591
     32          6           0        6.939036   -3.070117   -1.215475
     33          6           0        5.782630   -0.539226    0.191885
     34          6           0        0.073993    3.969867   -0.292645
     35          6           0        1.046172    5.096426   -0.531675
     36          6           0        2.325976    4.595323   -0.330575
     37          6           0       -3.040581   -3.947816   -0.238856
     38          6           0        5.440696    0.451909    1.226186
     39          6           0       -6.765522   -0.762562   -0.747265
     40          6           0        3.594812    5.160314   -0.433182
     41          6           0        2.032737    3.061352   -0.022579
     42          6           0        0.678506    6.529810   -0.870390
     43          6           0        4.167739    5.550817    0.904974
     44          1           0        0.603791    0.439174    0.443905
     45          1           0       -3.130209   -1.193744    0.823972
     46          1           0       -2.649007   -2.891610    2.081506
     47          1           0       -1.330671   -4.078516    2.652952
     48          1           0        5.224219   -1.954982   -2.526471
     49          1           0       -4.906107   -0.109041    1.289439
     50          1           0       -5.951855    1.436170    0.598883
     51          1           0        2.988587    0.023732    0.679329
     52          1           0       -0.442004    1.957069    0.502090
     53          1           0        1.165157   -4.563567    1.156983
     54          1           0        2.566110   -3.488002    1.847463
     55          1           0        1.031586   -4.302397    2.792671
     56          1           0        2.464304   -3.691693   -0.437398
     57          1           0       -1.274624   -4.997273    0.361635
     58          1           0       -2.635273   -5.298362    1.414814
     59          1           0       -4.497498   -0.802957   -1.175082
     60          1           0       -5.693681    0.832956   -1.600035
     61          1           0       -4.325001    4.920326    0.131391
     62          1           0       -5.538884    3.523830    0.057074
     63          1           0       -4.922234    4.014224   -1.426798
     64          1           0       -1.665224    5.141323   -0.424418
     65          1           0        7.816327   -2.502363   -1.476044
     66          1           0        6.886269   -4.081376   -1.564761
     67          1           0        7.072718   -3.150027   -0.061046
     68          1           0        6.630140   -0.530806   -0.156934
     69          1           0        5.095124    1.360614    0.852632
     70          1           0        6.258287    0.742735    1.848589
     71          1           0        4.702051   -0.124799    1.717464
     72          1           0        3.698834    5.919687   -1.256512
     73          1           0        4.133244    4.166344   -0.795514
     74          1           0        0.329456    6.654216   -2.086853
     75          1           0        1.745879    6.972240   -0.810397
     76          1           0        0.178076    7.122111   -0.157542
     77          1           0        3.421236    6.270830    1.295650
     78          1           0        5.232048    6.060208    0.796683
     79          1           0        4.358212    4.610146    1.483402
     80          1           0       -3.579679   -4.293870   -2.020262
     81          1           0       -8.008381   -1.915482   -1.855700
 ---------------------------------------------------------------------

 SCF Done:  E(RB3LYP) =  -1949.08385235     A.U. after   16 cycles

 Excitation energies and oscillator strengths:

 Excited State   1:      Singlet-A      1.9917 eV  622.51 nm  f=0.4075  <S**2>=0.000
     156 ->157         0.70404
     156 <-157        -0.10850
 This state for optimization and/or second-order correction.
 Total Energy, E(TD-HF/TD-DFT) =  -1949.01065916
 Copying the excited state density for this state as the 1-particle RhoCI density.

 The electronic state is 1-A.
 Alpha  occ. eigenvalues --  -19.18226 -19.17424 -19.15422 -19.12288 -19.11867
 Alpha  occ. eigenvalues --  -19.10465 -14.38753 -14.37854 -14.34246 -14.29735
 Alpha  occ. eigenvalues --  -10.33917 -10.31742 -10.30647 -10.26954 -10.24950
 Alpha  occ. eigenvalues --  -10.23817 -10.23775 -10.23674 -10.23049 -10.23007
 Alpha  occ. eigenvalues --  -10.22629 -10.22300 -10.22232 -10.21856 -10.21742
 Alpha  occ. eigenvalues --  -10.21339 -10.21240 -10.20898 -10.20797 -10.20734
 Alpha  occ. eigenvalues --  -10.20249 -10.20147 -10.20119 -10.20072 -10.19959
 Alpha  occ. eigenvalues --  -10.19429 -10.19097 -10.18948 -10.18872 -10.18651
 Alpha  occ. eigenvalues --  -10.18581 -10.18250 -10.16783  -1.11983  -1.08215
 Alpha  occ. eigenvalues --   -1.03182  -1.01984  -1.01925  -1.01280  -0.98541
 Alpha  occ. eigenvalues --   -0.98108  -0.93705  -0.92866  -0.83088  -0.82052
 Alpha  occ. eigenvalues --   -0.81928  -0.80980  -0.80538  -0.79021  -0.78211
 Alpha  occ. eigenvalues --   -0.77288  -0.75882  -0.75588  -0.74469  -0.72824
 Alpha  occ. eigenvalues --   -0.70918  -0.70100  -0.69362  -0.68021  -0.67801
 Alpha  occ. eigenvalues --   -0.65901  -0.65624  -0.65176  -0.62343  -0.61850
 Alpha  occ. eigenvalues --   -0.60874  -0.59750  -0.58347  -0.57248  -0.56794
 Alpha  occ. eigenvalues --   -0.55987  -0.55877  -0.54432  -0.53867  -0.53679
 Alpha  occ. eigenvalues --   -0.52669  -0.52352  -0.51413  -0.50890  -0.50309
 Alpha  occ. eigenvalues --   -0.49240  -0.48630  -0.47912  -0.47794  -0.46965
 Alpha  occ. eigenvalues --   -0.46487  -0.46310  -0.46232  -0.45974  -0.45788
 Alpha  occ. eigenvalues --   -0.45181  -0.44990  -0.44494  -0.43994  -0.43731
 Alpha  occ. eigenvalues --   -0.43448  -0.43180  -0.42889  -0.42542  -0.42390
 Alpha  occ. eigenvalues --   -0.42274  -0.41904  -0.41086  -0.40973  -0.40839
 Alpha  occ. eigenvalues --   -0.40498  -0.40367  -0.40248  -0.40056  -0.39808
 Alpha  occ. eigenvalues --   -0.39517  -0.39121  -0.38958  -0.38367  -0.38331
 Alpha  occ. eigenvalues --   -0.38192  -0.38107  -0.38010  -0.37830  -0.36969
 Alpha  occ. eigenvalues --   -0.36540  -0.35966  -0.34979  -0.34752  -0.34707
 Alpha  occ. eigenvalues --   -0.34303  -0.34235  -0.33855  -0.33759  -0.33002
 Alpha  occ. eigenvalues --   -0.32888  -0.32398  -0.31351  -0.30747  -0.29813
 Alpha  occ. eigenvalues --   -0.27946  -0.27327  -0.27131  -0.25875  -0.25356
 Alpha  occ. eigenvalues --   -0.24762  -0.24362  -0.23797  -0.23134  -0.21877
 Alpha  occ. eigenvalues --   -0.18634
 Alpha virt. eigenvalues --   -0.10772  -0.05250  -0.04314  -0.02483  -0.02268
 Alpha virt. eigenvalues --    0.00912   0.01947   0.02700   0.03266   0.03537
 Alpha virt. eigenvalues --    0.03890   0.04272   0.04313   0.05755   0.06114

 Mulliken charges:
               1
     1  O   -0.237525
     2  O   -0.190312
     3  O   -0.244087
     4  O   -0.186654
     5  O   -0.228938
     6  O   -0.223052
     7  N    0.009855
     8  N   -0.131546
     9  N   -0.214536
    10  N   -0.296532
    11  C   -0.153271
    12  C    0.038746
    13  C   -0.175538
    14  C    0.002357
    15  C   -0.068036
    16  C    0.093680
    17  C   -0.142040
    18  C   -0.102767
    19  C    0.192175
    20  C   -0.137289
    21  C    0.083448
    22  C    0.070201
    23  C   -0.071197
    24  C    0.068535
    25  C   -0.087486
    26  C    0.032225
    27  C    0.200485
    28  C   -0.032661
    29  C   -0.084009
    30  C   -0.019354
    31  C   -0.104492
    32  C    0.065550
    33  C   -0.014477
    34  C    0.141003
    35  C   -0.119707
    36  C   -0.152969
    37  C    0.145473
    38  C    0.176956
    39  C    0.143406
    40  C   -0.022325
    41  C    0.157301
    42  C    0.043479
    43  C   -0.000315
    44  H    0.185497
    45  H    0.070196
    46  H    0.003988
    47  H   -0.001596
    48  H    0.084760
    49  H    0.039420
    50  H    0.031735
    51  H    0.042951
    52  H    0.186509
    53  H    0.010017
    54  H    0.067153
    55  H    0.024099
    56  H    0.164392
    57  H    0.043239
    58  H    0.048457
    59  H    0.089717
    60  H    0.051382
    61  H    0.042864
    62  H    0.003105
    63  H    0.039526
    64  H   -0.042640
    65  H    0.022353
    66  H    0.036383
    67  H    0.010081
    68  H   -0.125199
    69  H    0.040277
    70  H   -0.006840
    71  H    0.016778
    72  H    0.022233
    73  H    0.030099
    74  H    0.055030
    75  H    0.007458
    76  H    0.024620
    77  H    0.017438
    78  H    0.022109
    79  H    0.039645
    80  H    0.158244
    81  H    0.220759
 Sum of Mulliken charges =  -0.00000

 Dipole moment (field-independent basis, Debye):
    X=             -1.8318    Y=              0.1951    Z=             -0.0288  Tot=              1.8424
 Quadrupole moment (field-independent basis, Debye-Ang):
   XX=           -251.9119   YY=           -242.1194   ZZ=           -257.0893
   XY=             21.2534   XZ=             19.1138   YZ=            -14.2976

 Normal termination of Gaussian 16 at Fri Jun 28 12:14:21 2019.
