 Gaussian 16, Revision A.03,
 Gaussian 16:  ES64L-G16RevA.03 25-Dec-2016

 --------------------------
 # td=(NStates=1) B3LYP/SVP
 --------------------------

 --
 TD
 --
 Symbolic Z-matrix:
 Charge =  0 Multiplicity = 1

                         Standard orientation:
 ---------------------------------------------------------------------
 Center     Atomic      Atomic             Coordinates (Angstroms)
 Number     Number       Type             X           Y           Z
 ---------------------------------------------------------------------
      1          8           0       -4.790252   -4.707210    1.819236
      2          8           0        2.985642   -4.898570    1.388037
      3          8           0        6.911284   -1.406366    1.988851
      4          8           0        3.683390   -3.059554    0.170529
      5          8           0        7.636571   -0.657740   -0.067370
      6          8           0       -2.939377    2.468175   -0.121798
      7          7           0       -0.331819   -0.550698   -0.616778
      8          7           0        1.553062    1.729918   -0.382566
      9          7           0       -3.481785   -3.063390    0.737740
     10          7           0       -0.683472    3.011969   -0.128999
     11          6           0        0.593568   -2.594127   -1.251522
     12          6           0        0.904357   -1.184284   -0.821019
     13          6           0       -0.692458   -2.793390   -1.142687
     14          6           0       -1.316734   -1.544763   -0.713741
     15          6           0        3.795710    1.418746   -0.560545
     16          6           0        2.497946    0.726240   -0.609891
     17          6           0        2.219211   -0.583142   -0.861220
     18          6           0        3.556212    2.710816   -0.183928
     19          6           0        1.677412   -3.530290   -1.817372
     20          6           0       -5.714243   -2.458212    1.182795
     21          6           0       -3.647762   -1.752096    0.058308
     22          6           0        2.174648    2.965261   -0.108430
     23          6           0       -5.104109   -1.362322    0.320125
     24          6           0        5.061292    0.561915   -0.532359
     25          6           0       -2.658864   -1.168930   -0.450108
     26          6           0       -1.446055   -4.017334   -1.693182
     27          6           0       -4.691393   -3.612571    1.286383
     28          6           0        2.062673   -4.607927   -0.765489
     29          6           0        5.376906   -0.189728    0.759117
     30          6           0        4.663513    3.772620   -0.019284
     31          6           0        1.378790    4.099019    0.109015
     32          6           0       -7.045587   -3.011013    0.791308
     33          6           0       -5.811192   -0.398680   -0.235019
     34          6           0        0.005073    4.128715    0.228824
     35          6           0       -0.880957    5.256414    0.394389
     36          6           0       -2.176479    4.771514    0.366183
     37          6           0        2.994981   -4.102511    0.367772
     38          6           0       -5.363720    0.503485   -1.351687
     39          6           0        6.817984   -0.744457    0.758595
     40          6           0       -3.506500    5.408637    0.641395
     41          6           0       -2.047722    3.202461    0.109885
     42          6           0       -0.387913    6.621475    0.926852
     43          6           0       -4.247371    5.595705   -0.637464
     44          1           0       -0.387978    0.362282   -0.034731
     45          1           0        3.085490   -1.343895   -1.148289
     46          1           0        2.712418   -3.049300   -2.080135
     47          1           0        1.303562   -3.889758   -2.782970
     48          1           0       -5.703504   -2.047030    2.186539
     49          1           0        5.183895    0.026874   -1.301613
     50          1           0        5.884396    1.207508   -0.770384
     51          1           0       -2.884237   -0.128005   -0.808447
     52          1           0        0.461468    1.845203   -0.370597
     53          1           0       -1.495696   -4.709306   -0.899537
     54          1           0       -2.474560   -3.676935   -1.951586
     55          1           0       -0.779545   -4.646153   -2.568891
     56          1           0       -2.393592   -3.427284    0.686210
     57          1           0        1.203327   -5.097507   -0.386029
     58          1           0        2.641150   -5.393638   -1.171254
     59          1           0        4.769201   -1.212525    0.752007
     60          1           0        5.282153    0.283628    1.777594
     61          1           0        4.297373    4.956437   -0.436713
     62          1           0        5.814596    3.642467   -0.400680
     63          1           0        4.790516    3.876771    1.108948
     64          1           0        2.197643    4.900647    0.538210
     65          1           0       -7.908775   -2.380734    0.884126
     66          1           0       -7.482686   -3.893706    1.520610
     67          1           0       -7.080515   -3.255581   -0.276462
     68          1           0       -6.941772   -0.156548    0.196532
     69          1           0       -4.695868    1.391258   -0.996582
     70          1           0       -6.302835    1.025572   -1.854710
     71          1           0       -4.704091    0.078584   -2.187752
     72          1           0       -3.336960    6.444871    1.240694
     73          1           0       -4.019008    4.853561    1.474509
     74          1           0        0.112358    6.483693    1.836935
     75          1           0       -1.135416    7.450189    0.967509
     76          1           0        0.435078    6.792055    0.088849
     77          1           0       -3.646578    6.097638   -1.389612
     78          1           0       -5.235599    6.092339   -0.337497
     79          1           0       -4.372950    4.681706   -1.209566
     80          1           0        3.436144   -4.608395    2.151177
     81          1           0        7.834154   -1.904896    1.991924
 ---------------------------------------------------------------------

 SCF Done:  E(RB3LYP) =  -1949.08658831     A.U. after   17 cycles

 Excitation energies and oscillator strengths:

 Excited State   1:      Singlet-A      1.9385 eV  639.60 nm  f=0.4243  <S**2>=0.000
     156 ->157         0.70920
     156 <-157        -0.12817
 This state for optimization and/or second-order correction.
 Total Energy, E(TD-HF/TD-DFT) =  -1949.01535095
 Copying the excited state density for this state as the 1-particle RhoCI density.

 The electronic state is 1-A.
 Alpha  occ. eigenvalues --  -19.22441 -19.17691 -19.14676 -19.13803 -19.11162
 Alpha  occ. eigenvalues --  -19.10641 -14.39464 -14.36640 -14.34557 -14.28266
 Alpha  occ. eigenvalues --  -10.35268 -10.31653 -10.29630 -10.26312 -10.24829
 Alpha  occ. eigenvalues --  -10.23783 -10.23684 -10.23377 -10.22520 -10.22495
 Alpha  occ. eigenvalues --  -10.22350 -10.22199 -10.21745 -10.21738 -10.21693
 Alpha  occ. eigenvalues --  -10.20790 -10.20710 -10.20522 -10.20507 -10.20351
 Alpha  occ. eigenvalues --  -10.20259 -10.20173 -10.20038 -10.19436 -10.19384
 Alpha  occ. eigenvalues --  -10.19360 -10.19285 -10.19168 -10.19012 -10.18465
 Alpha  occ. eigenvalues --  -10.18311 -10.18155 -10.17464  -1.14205  -1.09086
 Alpha  occ. eigenvalues --   -1.03480  -1.02178  -1.01644  -1.00870  -0.97644
 Alpha  occ. eigenvalues --   -0.95765  -0.91788  -0.91062  -0.83032  -0.81380
 Alpha  occ. eigenvalues --   -0.81110  -0.80779  -0.79281  -0.78846  -0.78588
 Alpha  occ. eigenvalues --   -0.76415  -0.75925  -0.74961  -0.74145  -0.72379
 Alpha  occ. eigenvalues --   -0.70465  -0.70042  -0.68708  -0.67500  -0.67428
 Alpha  occ. eigenvalues --   -0.66596  -0.65292  -0.64509  -0.63729  -0.61883
 Alpha  occ. eigenvalues --   -0.60620  -0.58070  -0.57336  -0.57128  -0.57037
 Alpha  occ. eigenvalues --   -0.55604  -0.54774  -0.54204  -0.52084  -0.51989
 Alpha  occ. eigenvalues --   -0.51891  -0.51283  -0.51051  -0.50764  -0.50200
 Alpha  occ. eigenvalues --   -0.49028  -0.48514  -0.48299  -0.47982  -0.47797
 Alpha  occ. eigenvalues --   -0.47187  -0.46772  -0.46203  -0.45704  -0.44867
 Alpha  occ. eigenvalues --   -0.44459  -0.44140  -0.43771  -0.43693  -0.43419
 Alpha  occ. eigenvalues --   -0.42890  -0.42702  -0.42606  -0.41968  -0.41417
 Alpha  occ. eigenvalues --   -0.41321  -0.41171  -0.41029  -0.40488  -0.40398
 Alpha  occ. eigenvalues --   -0.40094  -0.40080  -0.39951  -0.39742  -0.39542
 Alpha  occ. eigenvalues --   -0.39013  -0.38728  -0.38668  -0.38385  -0.38220
 Alpha  occ. eigenvalues --   -0.37874  -0.37431  -0.36722  -0.36499  -0.36331
 Alpha  occ. eigenvalues --   -0.36007  -0.35152  -0.35097  -0.34987  -0.34744
 Alpha  occ. eigenvalues --   -0.34133  -0.33873  -0.33824  -0.33658  -0.33394
 Alpha  occ. eigenvalues --   -0.32865  -0.32370  -0.31439  -0.29940  -0.29514
 Alpha  occ. eigenvalues --   -0.28433  -0.27735  -0.27604  -0.26177  -0.25917
 Alpha  occ. eigenvalues --   -0.25176  -0.24885  -0.23356  -0.22589  -0.21578
 Alpha  occ. eigenvalues --   -0.17776
 Alpha virt. eigenvalues --   -0.10308  -0.05391  -0.02952  -0.02236   0.00529
 Alpha virt. eigenvalues --    0.01148   0.01696   0.02186   0.02929   0.03429
 Alpha virt. eigenvalues --    0.03550   0.04571   0.05076   0.05291   0.05858

 Mulliken charges:
               1
     1  O   -0.208066
     2  O   -0.092936
     3  O   -0.276417
     4  O   -0.271790
     5  O   -0.165257
     6  O   -0.160834
     7  N   -0.112355
     8  N   -0.188859
     9  N   -0.285022
    10  N   -0.357747
    11  C   -0.097504
    12  C    0.020050
    13  C   -0.152646
    14  C    0.063539
    15  C   -0.091439
    16  C    0.109625
    17  C   -0.080569
    18  C   -0.054432
    19  C    0.075150
    20  C   -0.028660
    21  C    0.136261
    22  C    0.028980
    23  C    0.053210
    24  C    0.267986
    25  C   -0.147543
    26  C    0.074181
    27  C    0.177770
    28  C    0.044204
    29  C   -0.076677
    30  C   -0.064143
    31  C   -0.107638
    32  C    0.038984
    33  C   -0.178637
    34  C    0.119302
    35  C   -0.082393
    36  C   -0.229945
    37  C    0.143393
    38  C   -0.056875
    39  C    0.133732
    40  C    0.038661
    41  C    0.161935
    42  C    0.067951
    43  C    0.039200
    44  H    0.184017
    45  H    0.068087
    46  H    0.030989
    47  H    0.016741
    48  H    0.037196
    49  H   -0.078939
    50  H   -0.029803
    51  H    0.028735
    52  H    0.160090
    53  H    0.012069
    54  H    0.049915
    55  H    0.044484
    56  H    0.170267
    57  H    0.008400
    58  H    0.023690
    59  H    0.080745
    60  H    0.045212
    61  H    0.049541
    62  H    0.060854
    63  H    0.034741
    64  H    0.013483
    65  H   -0.006728
    66  H    0.044831
    67  H    0.013794
    68  H    0.034598
    69  H    0.094324
    70  H    0.023553
    71  H    0.038598
    72  H   -0.002542
    73  H    0.018332
    74  H    0.020514
    75  H    0.032044
    76  H    0.033618
    77  H    0.001217
    78  H    0.024163
    79  H    0.013246
    80  H    0.179569
    81  H    0.200624
 Sum of Mulliken charges =  -0.00000

 Dipole moment (field-independent basis, Debye):
    X=              3.3312    Y=             -2.0066    Z=              1.2561  Tot=              4.0867
 Quadrupole moment (field-independent basis, Debye-Ang):
   XX=           -254.2250   YY=           -244.4605   ZZ=           -251.4467
   XY=            -26.5455   XZ=             17.2749   YZ=             10.7147

 Normal termination of Gaussian 16 at Thu Jul  4 23:40:35 2019.
