 Gaussian 16, Revision A.03,
 Gaussian 16:  ES64L-G16RevA.03 25-Dec-2016

 --------------------------
 # td=(NStates=1) B3LYP/SVP
 --------------------------

 --
 TD
 --
 Symbolic Z-matrix:
 Charge =  0 Multiplicity = 1

                         Standard orientation:
 ---------------------------------------------------------------------
 Center     Atomic      Atomic             Coordinates (Angstroms)
 Number     Number       Type             X           Y           Z
 ---------------------------------------------------------------------
      1          8           0       -4.271147   -4.801957    1.962477
      2          8           0        3.444204   -4.539109    1.338651
      3          8           0        7.255018   -1.170838    1.690897
      4          8           0        3.955046   -2.957819   -0.001373
      5          8           0        7.595297   -0.508946   -0.416178
      6          8           0       -3.216248    2.315303   -0.180779
      7          7           0       -0.225787   -0.559287   -0.593029
      8          7           0        1.386119    1.842806   -0.321756
      9          7           0       -3.207942   -3.267880    0.692488
     10          7           0       -0.975435    2.894131   -0.202844
     11          6           0        0.719438   -2.404363   -1.384262
     12          6           0        1.004843   -1.092657   -0.982298
     13          6           0       -0.709629   -2.691909   -1.204027
     14          6           0       -1.273391   -1.465276   -0.799126
     15          6           0        3.725216    1.609395   -0.368161
     16          6           0        2.403881    0.938369   -0.588704
     17          6           0        2.273891   -0.337918   -0.983425
     18          6           0        3.384145    2.895280    0.090374
     19          6           0        1.672123   -3.514073   -1.830016
     20          6           0       -5.341729   -2.752062    1.447700
     21          6           0       -3.533725   -2.031011    0.115237
     22          6           0        1.953510    3.051895   -0.083749
     23          6           0       -4.930922   -1.736737    0.312256
     24          6           0        5.118728    1.013481   -0.375532
     25          6           0       -2.612903   -1.136143   -0.392249
     26          6           0       -1.366174   -3.897640   -1.618508
     27          6           0       -4.329251   -3.716463    1.433434
     28          6           0        2.203557   -4.514094   -0.705634
     29          6           0        5.523050    0.261074    0.889238
     30          6           0        4.385533    3.937400    0.551323
     31          6           0        1.034857    4.181567    0.166453
     32          6           0       -6.737598   -3.452564    1.069098
     33          6           0       -5.725958   -0.827155   -0.297264
     34          6           0       -0.377925    4.015095    0.069938
     35          6           0       -1.315257    5.098048    0.543895
     36          6           0       -2.500855    4.486597    0.329497
     37          6           0        3.336748   -3.937668    0.160997
     38          6           0       -5.363754    0.113239   -1.384755
     39          6           0        6.914750   -0.482549    0.668117
     40          6           0       -3.857328    5.118292    0.519885
     41          6           0       -2.335611    3.109762   -0.116089
     42          6           0       -0.871317    6.465282    0.975273
     43          6           0       -4.553718    5.380954   -0.903867
     44          1           0       -0.493242    0.311730   -0.233714
     45          1           0        3.118751   -1.056421   -1.050171
     46          1           0        2.702665   -3.159420   -2.127560
     47          1           0        1.284848   -4.195538   -2.548073
     48          1           0       -5.296928   -2.139871    2.413621
     49          1           0        5.093013    0.389800   -1.296836
     50          1           0        5.825147    1.750578   -0.623793
     51          1           0       -2.834305   -0.083214   -0.582076
     52          1           0        0.396260    1.671062   -0.280539
     53          1           0       -1.213623   -4.867412   -1.073859
     54          1           0       -2.561381   -3.832049   -1.784315
     55          1           0       -0.835489   -4.276275   -2.448779
     56          1           0       -2.283128   -3.754668    0.729908
     57          1           0        1.478876   -4.861476    0.167687
     58          1           0        2.819473   -5.268640   -1.164313
     59          1           0        4.789997   -0.628065    0.975067
     60          1           0        5.587182    0.926959    1.670678
     61          1           0        4.096602    5.041654    0.255319
     62          1           0        5.454345    3.946728    0.138181
     63          1           0        4.261378    4.032854    1.555100
     64          1           0        1.579798    5.001219    0.463876
     65          1           0       -7.804813   -2.543437    1.017527
     66          1           0       -7.020132   -4.276926    1.722267
     67          1           0       -6.720905   -3.766110    0.002008
     68          1           0       -6.809042   -0.809112    0.052977
     69          1           0       -4.697094    0.949786   -1.189146
     70          1           0       -6.239346    0.457227   -1.712511
     71          1           0       -4.814151   -0.276619   -2.284407
     72          1           0       -3.717300    6.304304    0.733178
     73          1           0       -4.646759    4.705185    1.206815
     74          1           0       -0.276907    6.694067    1.978105
     75          1           0       -1.733673    7.002798    1.164598
     76          1           0       -0.233768    6.954774    0.263223
     77          1           0       -4.196241    5.973953   -1.635974
     78          1           0       -5.605864    5.807777   -0.728443
     79          1           0       -4.940777    4.503736   -1.399722
     80          1           0        3.959166   -4.093401    1.987186
     81          1           0        8.087958   -1.711702    1.543043
 ---------------------------------------------------------------------

 SCF Done:  E(RB3LYP) =  -1949.11573532     A.U. after   16 cycles

 Excitation energies and oscillator strengths:

 Excited State   1:      Singlet-A      1.8974 eV  653.44 nm  f=0.3391  <S**2>=0.000
     156 ->157         0.70618
 This state for optimization and/or second-order correction.
 Total Energy, E(TD-HF/TD-DFT) =  -1949.04600673
 Copying the excited state density for this state as the 1-particle RhoCI density.

 The electronic state is 1-A.
 Alpha  occ. eigenvalues --  -19.20408 -19.18108 -19.13675 -19.11724 -19.10535
 Alpha  occ. eigenvalues --  -19.10374 -14.36700 -14.36373 -14.36297 -14.28206
 Alpha  occ. eigenvalues --  -10.32771 -10.32601 -10.28439 -10.25852 -10.24881
 Alpha  occ. eigenvalues --  -10.23687 -10.23568 -10.23270 -10.22535 -10.22451
 Alpha  occ. eigenvalues --  -10.22407 -10.21893 -10.21636 -10.21538 -10.21517
 Alpha  occ. eigenvalues --  -10.21490 -10.21190 -10.21019 -10.20711 -10.20362
 Alpha  occ. eigenvalues --  -10.20044 -10.19996 -10.19953 -10.19806 -10.19716
 Alpha  occ. eigenvalues --  -10.19654 -10.19502 -10.18903 -10.18407 -10.18287
 Alpha  occ. eigenvalues --  -10.17994 -10.16813 -10.16363  -1.12684  -1.11840
 Alpha  occ. eigenvalues --   -1.03719  -1.03459  -1.02631  -0.98592  -0.97297
 Alpha  occ. eigenvalues --   -0.96735  -0.94175  -0.93187  -0.82385  -0.81593
 Alpha  occ. eigenvalues --   -0.81208  -0.80845  -0.79290  -0.78660  -0.77821
 Alpha  occ. eigenvalues --   -0.77440  -0.76091  -0.74783  -0.73517  -0.72326
 Alpha  occ. eigenvalues --   -0.71552  -0.69811  -0.69554  -0.69195  -0.68711
 Alpha  occ. eigenvalues --   -0.67016  -0.65643  -0.64772  -0.62783  -0.62259
 Alpha  occ. eigenvalues --   -0.61919  -0.60988  -0.58893  -0.57944  -0.57080
 Alpha  occ. eigenvalues --   -0.56214  -0.55732  -0.54809  -0.54193  -0.53702
 Alpha  occ. eigenvalues --   -0.53032  -0.51230  -0.50621  -0.50167  -0.50044
 Alpha  occ. eigenvalues --   -0.49677  -0.49285  -0.48531  -0.48393  -0.48061
 Alpha  occ. eigenvalues --   -0.47514  -0.46900  -0.45914  -0.45880  -0.45187
 Alpha  occ. eigenvalues --   -0.44903  -0.44525  -0.44377  -0.44006  -0.43652
 Alpha  occ. eigenvalues --   -0.43420  -0.42971  -0.42770  -0.42582  -0.42323
 Alpha  occ. eigenvalues --   -0.42096  -0.41660  -0.41451  -0.41213  -0.41036
 Alpha  occ. eigenvalues --   -0.40673  -0.40422  -0.40093  -0.40045  -0.39729
 Alpha  occ. eigenvalues --   -0.39470  -0.38829  -0.38422  -0.38252  -0.37929
 Alpha  occ. eigenvalues --   -0.37737  -0.37475  -0.36883  -0.36753  -0.36645
 Alpha  occ. eigenvalues --   -0.36628  -0.36188  -0.35759  -0.35533  -0.34674
 Alpha  occ. eigenvalues --   -0.34017  -0.33627  -0.33602  -0.33226  -0.32989
 Alpha  occ. eigenvalues --   -0.32090  -0.31443  -0.31194  -0.29994  -0.28940
 Alpha  occ. eigenvalues --   -0.27959  -0.27227  -0.26246  -0.25828  -0.25540
 Alpha  occ. eigenvalues --   -0.25109  -0.24326  -0.23840  -0.23380  -0.20958
 Alpha  occ. eigenvalues --   -0.17772
 Alpha virt. eigenvalues --   -0.10059  -0.05509  -0.03867  -0.00670  -0.00520
 Alpha virt. eigenvalues --    0.00179   0.02165   0.03107   0.03625   0.03786
 Alpha virt. eigenvalues --    0.04031   0.04874   0.05011   0.05386   0.05579

 Mulliken charges:
               1
     1  O   -0.202473
     2  O   -0.163744
     3  O   -0.130401
     4  O   -0.187622
     5  O   -0.304303
     6  O   -0.168848
     7  N   -0.095569
     8  N   -0.049127
     9  N   -0.150235
    10  N   -0.266471
    11  C   -0.075750
    12  C    0.028123
    13  C   -0.144786
    14  C    0.031665
    15  C   -0.122830
    16  C    0.134056
    17  C   -0.068804
    18  C   -0.116194
    19  C    0.101936
    20  C   -0.022155
    21  C    0.120112
    22  C    0.054876
    23  C   -0.038299
    24  C    0.131699
    25  C   -0.082080
    26  C    0.061314
    27  C    0.101355
    28  C   -0.028584
    29  C    0.029269
    30  C    0.086686
    31  C   -0.077169
    32  C   -0.028313
    33  C   -0.137595
    34  C    0.099133
    35  C   -0.072288
    36  C   -0.137831
    37  C    0.066798
    38  C    0.102883
    39  C    0.129768
    40  C    0.010988
    41  C    0.143459
    42  C    0.119100
    43  C   -0.005146
    44  H    0.101608
    45  H    0.028902
    46  H    0.021552
    47  H   -0.004303
    48  H    0.079000
    49  H    0.023830
    50  H   -0.013043
    51  H    0.006249
    52  H    0.110656
    53  H    0.000352
    54  H    0.064443
    55  H   -0.017870
    56  H    0.151117
    57  H    0.067961
    58  H    0.028703
    59  H    0.068490
    60  H    0.014570
    61  H    0.016979
    62  H    0.048197
    63  H   -0.002036
    64  H   -0.079115
    65  H    0.026791
    66  H    0.050522
    67  H    0.035499
    68  H    0.003941
    69  H    0.062036
    70  H   -0.033872
    71  H    0.015997
    72  H    0.020460
    73  H    0.035730
    74  H    0.028627
    75  H   -0.019094
    76  H    0.020083
    77  H   -0.009741
    78  H   -0.011116
    79  H    0.004529
    80  H    0.169594
    81  H    0.207173
 Sum of Mulliken charges =  -0.00000

 Dipole moment (field-independent basis, Debye):
    X=              3.7282    Y=              0.6708    Z=              1.9035  Tot=              4.2394
 Quadrupole moment (field-independent basis, Debye-Ang):
   XX=           -245.1360   YY=           -239.6703   ZZ=           -254.8695
   XY=            -14.1333   XZ=             24.5226   YZ=             12.2987

 Normal termination of Gaussian 16 at Tue Jul  2 14:36:02 2019.
