 Gaussian 16, Revision A.03,
 Gaussian 16:  ES64L-G16RevA.03 25-Dec-2016

 --------------------------
 # td=(NStates=1) B3LYP/SVP
 --------------------------

 --
 TD
 --
 Symbolic Z-matrix:
 Charge =  0 Multiplicity = 1

                         Standard orientation:
 ---------------------------------------------------------------------
 Center     Atomic      Atomic             Coordinates (Angstroms)
 Number     Number       Type             X           Y           Z
 ---------------------------------------------------------------------
      1          8           0       -4.814873   -4.685754    1.797203
      2          8           0        2.867026   -4.800320    1.167148
      3          8           0        7.044814   -1.468216    2.051953
      4          8           0        3.838120   -3.235595   -0.064867
      5          8           0        7.702444   -0.641754    0.090860
      6          8           0       -3.016626    2.401250   -0.016271
      7          7           0       -0.264264   -0.635475   -0.627122
      8          7           0        1.578198    1.701679   -0.491948
      9          7           0       -3.631766   -3.071298    0.728286
     10          7           0       -0.683639    2.842485   -0.087481
     11          6           0        0.579091   -2.499401   -1.308478
     12          6           0        0.934289   -1.180967   -0.990481
     13          6           0       -0.804760   -2.683311   -1.352078
     14          6           0       -1.277889   -1.504218   -0.796455
     15          6           0        3.855230    1.321372   -0.392570
     16          6           0        2.538512    0.704487   -0.606842
     17          6           0        2.187766   -0.696105   -0.960069
     18          6           0        3.578267    2.625175   -0.132534
     19          6           0        1.519620   -3.494739   -1.865005
     20          6           0       -5.686484   -2.429339    1.438231
     21          6           0       -3.684752   -1.764273    0.231881
     22          6           0        2.195828    2.826993   -0.111854
     23          6           0       -5.109751   -1.418302    0.443508
     24          6           0        5.153765    0.663732   -0.365223
     25          6           0       -2.654670   -1.059700   -0.328126
     26          6           0       -1.654043   -3.777656   -1.876736
     27          6           0       -4.712221   -3.514936    1.393452
     28          6           0        2.096370   -4.567119   -0.966771
     29          6           0        5.431335   -0.176262    0.929414
     30          6           0        4.574806    3.779044    0.359574
     31          6           0        1.444113    4.039152    0.128847
     32          6           0       -7.207212   -2.813970    1.151870
     33          6           0       -5.765634   -0.447501   -0.243275
     34          6           0        0.056035    3.999835    0.139237
     35          6           0       -0.830941    5.049709    0.444530
     36          6           0       -2.189275    4.661279    0.359472
     37          6           0        2.952807   -4.096572    0.125008
     38          6           0       -5.166231    0.557419   -1.269779
     39          6           0        6.812514   -0.786481    0.963021
     40          6           0       -3.401205    5.432368    0.456143
     41          6           0       -2.014632    3.168249    0.087433
     42          6           0       -0.389943    6.473010    0.692913
     43          6           0       -4.119382    5.684333   -0.825316
     44          1           0       -0.619216    0.254061   -0.173205
     45          1           0        3.038907   -1.244595   -1.277303
     46          1           0        2.357733   -2.800245   -2.330807
     47          1           0        0.955989   -3.871962   -2.832351
     48          1           0       -5.806824   -1.946873    2.443069
     49          1           0        4.864013   -0.012091   -1.336443
     50          1           0        5.868022    1.434805   -0.687662
     51          1           0       -2.740383    0.100453   -0.514360
     52          1           0        0.494363    1.873476   -0.656202
     53          1           0       -1.854394   -4.588291   -1.162522
     54          1           0       -2.526175   -3.381756   -2.127510
     55          1           0       -0.909280   -4.313529   -2.677605
     56          1           0       -2.781861   -3.747485    0.904988
     57          1           0        1.294488   -5.102941   -0.500670
     58          1           0        2.676110   -5.411323   -1.520246
     59          1           0        4.782476   -0.963994    0.939167
     60          1           0        5.317859    0.417365    2.000490
     61          1           0        4.409969    4.655672   -0.242957
     62          1           0        5.743841    3.345610    0.563033
     63          1           0        4.286514    4.079880    1.367551
     64          1           0        1.849587    4.998756    0.489444
     65          1           0       -7.765048   -1.749814    1.581139
     66          1           0       -7.490107   -3.830655    1.681561
     67          1           0       -7.336724   -2.929985    0.054853
     68          1           0       -6.908392   -0.119476   -0.068358
     69          1           0       -4.674233    1.519617   -0.606852
     70          1           0       -5.983884    0.728113   -1.776355
     71          1           0       -4.276184    0.272541   -2.088136
     72          1           0       -3.475353    6.432293    0.855302
     73          1           0       -4.062730    4.640421    0.912387
     74          1           0        0.474376    6.638713    1.262525
     75          1           0       -1.178158    7.351327    0.986788
     76          1           0       -0.001842    6.906516   -0.218358
     77          1           0       -3.571443    6.368624   -1.526291
     78          1           0       -4.985540    6.333776   -0.757347
     79          1           0       -4.266733    4.867857   -1.342931
     80          1           0        3.471786   -4.196598    1.633745
     81          1           0        7.923579   -1.878723    2.170402
 ---------------------------------------------------------------------

 SCF Done:  E(RB3LYP) =  -1949.05637699     A.U. after   17 cycles

 Excitation energies and oscillator strengths:

 Excited State   1:      Singlet-A      1.9224 eV  644.96 nm  f=0.3738  <S**2>=0.000
     156 ->157         0.70273
     156 <-157        -0.12298
 This state for optimization and/or second-order correction.
 Total Energy, E(TD-HF/TD-DFT) =  -1948.98573187
 Copying the excited state density for this state as the 1-particle RhoCI density.

 The electronic state is 1-A.
 Alpha  occ. eigenvalues --  -19.22475 -19.18844 -19.14161 -19.11192 -19.10505
 Alpha  occ. eigenvalues --  -19.09505 -14.38511 -14.38097 -14.35561 -14.28691
 Alpha  occ. eigenvalues --  -10.33976 -10.32027 -10.28716 -10.26335 -10.25621
 Alpha  occ. eigenvalues --  -10.24397 -10.23857 -10.23511 -10.23040 -10.22316
 Alpha  occ. eigenvalues --  -10.22305 -10.22264 -10.21842 -10.21759 -10.21571
 Alpha  occ. eigenvalues --  -10.21560 -10.21269 -10.21060 -10.21019 -10.20594
 Alpha  occ. eigenvalues --  -10.20510 -10.20470 -10.20362 -10.20065 -10.19669
 Alpha  occ. eigenvalues --  -10.19246 -10.19096 -10.19071 -10.18902 -10.18705
 Alpha  occ. eigenvalues --  -10.18474 -10.18164 -10.15980  -1.17265  -1.10222
 Alpha  occ. eigenvalues --   -1.03119  -1.01741  -1.00570  -0.98714  -0.97997
 Alpha  occ. eigenvalues --   -0.97950  -0.95316  -0.90646  -0.84006  -0.82337
 Alpha  occ. eigenvalues --   -0.81872  -0.81115  -0.79876  -0.79720  -0.78289
 Alpha  occ. eigenvalues --   -0.77233  -0.76855  -0.75525  -0.73879  -0.73176
 Alpha  occ. eigenvalues --   -0.71759  -0.70005  -0.69673  -0.68459  -0.68227
 Alpha  occ. eigenvalues --   -0.67390  -0.65932  -0.64434  -0.63102  -0.62732
 Alpha  occ. eigenvalues --   -0.62006  -0.61138  -0.59561  -0.57203  -0.56741
 Alpha  occ. eigenvalues --   -0.56022  -0.55607  -0.55206  -0.53553  -0.52871
 Alpha  occ. eigenvalues --   -0.52572  -0.52153  -0.52102  -0.51691  -0.51400
 Alpha  occ. eigenvalues --   -0.49957  -0.49222  -0.48837  -0.48041  -0.47661
 Alpha  occ. eigenvalues --   -0.47548  -0.47183  -0.46913  -0.46762  -0.45713
 Alpha  occ. eigenvalues --   -0.45473  -0.45127  -0.44525  -0.44145  -0.43937
 Alpha  occ. eigenvalues --   -0.43269  -0.43017  -0.42744  -0.42484  -0.42219
 Alpha  occ. eigenvalues --   -0.42058  -0.41803  -0.41721  -0.41267  -0.41179
 Alpha  occ. eigenvalues --   -0.40749  -0.40074  -0.39795  -0.39620  -0.39442
 Alpha  occ. eigenvalues --   -0.39292  -0.38858  -0.38330  -0.38228  -0.37784
 Alpha  occ. eigenvalues --   -0.37642  -0.37219  -0.37016  -0.36410  -0.36072
 Alpha  occ. eigenvalues --   -0.35960  -0.35821  -0.35280  -0.35130  -0.34930
 Alpha  occ. eigenvalues --   -0.34307  -0.34209  -0.33725  -0.33141  -0.32853
 Alpha  occ. eigenvalues --   -0.32240  -0.31171  -0.31130  -0.30337  -0.29959
 Alpha  occ. eigenvalues --   -0.27581  -0.26805  -0.26286  -0.26159  -0.25591
 Alpha  occ. eigenvalues --   -0.25183  -0.25035  -0.23733  -0.22369  -0.21458
 Alpha  occ. eigenvalues --   -0.18324
 Alpha virt. eigenvalues --   -0.10834  -0.06049  -0.04135  -0.02745  -0.01079
 Alpha virt. eigenvalues --    0.00095   0.02015   0.02589   0.03386   0.03948
 Alpha virt. eigenvalues --    0.04125   0.04501   0.04516   0.05253   0.05468

 Mulliken charges:
               1
     1  O   -0.249552
     2  O   -0.059201
     3  O   -0.159429
     4  O   -0.292073
     5  O   -0.273028
     6  O   -0.291699
     7  N   -0.056046
     8  N   -0.106492
     9  N   -0.136685
    10  N   -0.354555
    11  C   -0.134374
    12  C    0.174401
    13  C   -0.182321
    14  C    0.002608
    15  C   -0.089026
    16  C    0.007371
    17  C   -0.062344
    18  C   -0.133313
    19  C   -0.005332
    20  C   -0.052462
    21  C    0.161854
    22  C    0.083291
    23  C    0.003309
    24  C    0.043272
    25  C   -0.161018
    26  C    0.159027
    27  C    0.108811
    28  C    0.106849
    29  C    0.055464
    30  C    0.061906
    31  C   -0.101607
    32  C   -0.039299
    33  C   -0.192086
    34  C    0.106560
    35  C   -0.100379
    36  C   -0.132344
    37  C    0.078674
    38  C   -0.034114
    39  C    0.126728
    40  C    0.103138
    41  C    0.177849
    42  C    0.082538
    43  C    0.047261
    44  H    0.166177
    45  H   -0.002928
    46  H    0.033236
    47  H    0.034115
    48  H    0.059599
    49  H    0.045008
    50  H    0.028921
    51  H    0.081214
    52  H    0.183031
    53  H    0.016142
    54  H    0.000784
    55  H    0.021292
    56  H    0.165501
    57  H    0.000482
    58  H    0.068988
    59  H    0.001592
    60  H    0.063408
    61  H    0.024711
    62  H    0.044701
    63  H    0.019108
    64  H   -0.028072
    65  H    0.045636
    66  H    0.068094
    67  H    0.029056
    68  H    0.034914
    69  H    0.139973
    70  H   -0.025663
    71  H    0.045071
    72  H   -0.004393
    73  H    0.014535
    74  H   -0.011305
    75  H    0.029188
    76  H   -0.001446
    77  H   -0.018628
    78  H   -0.004146
    79  H   -0.021464
    80  H    0.165535
    81  H    0.195904
 Sum of Mulliken charges =  -0.00000

 Dipole moment (field-independent basis, Debye):
    X=              2.3210    Y=             -0.9036    Z=              0.9904  Tot=              2.6804
 Quadrupole moment (field-independent basis, Debye-Ang):
   XX=           -264.7971   YY=           -241.0146   ZZ=           -252.5919
   XY=            -19.7067   XZ=             23.0867   YZ=              8.6251

 Normal termination of Gaussian 16 at Thu Jul  4 19:03:42 2019.
