 Gaussian 16, Revision A.03,
 Gaussian 16:  ES64L-G16RevA.03 25-Dec-2016

 --------------------------
 # td=(NStates=1) B3LYP/SVP
 --------------------------

 --
 TD
 --
 Symbolic Z-matrix:
 Charge =  0 Multiplicity = 1

                         Standard orientation:
 ---------------------------------------------------------------------
 Center     Atomic      Atomic             Coordinates (Angstroms)
 Number     Number       Type             X           Y           Z
 ---------------------------------------------------------------------
      1          8           0        4.724622   -4.728670   -1.725205
      2          8           0       -2.876835   -4.913147   -1.307387
      3          8           0       -7.049633   -1.808258   -1.795888
      4          8           0       -3.791926   -3.178369   -0.016258
      5          8           0       -7.684244   -0.632925    0.045813
      6          8           0        3.006669    2.538157    0.131003
      7          7           0        0.262752   -0.599839    0.398632
      8          7           0       -1.626679    1.727020    0.359499
      9          7           0        3.606306   -3.160473   -0.575649
     10          7           0        0.722505    2.924216   -0.020608
     11          6           0       -0.599317   -2.453844    1.332976
     12          6           0       -0.892473   -1.179711    0.953065
     13          6           0        0.774221   -2.701502    1.200254
     14          6           0        1.263051   -1.487724    0.541504
     15          6           0       -3.866688    1.413546    0.414671
     16          6           0       -2.583206    0.827353    0.569514
     17          6           0       -2.220867   -0.585473    0.828271
     18          6           0       -3.669626    2.669904   -0.011244
     19          6           0       -1.538096   -3.453040    1.870457
     20          6           0        5.748677   -2.554268   -1.269266
     21          6           0        3.721973   -1.869808   -0.103620
     22          6           0       -2.155639    2.934688    0.014116
     23          6           0        5.147513   -1.448918   -0.397356
     24          6           0       -5.132394    0.626007    0.505658
     25          6           0        2.641083   -1.040043    0.264283
     26          6           0        1.571326   -3.864070    1.705256
     27          6           0        4.624008   -3.612771   -1.252001
     28          6           0       -2.000467   -4.557993    0.868317
     29          6           0       -5.471599   -0.101899   -0.866845
     30          6           0       -4.627813    3.805301   -0.286451
     31          6           0       -1.454787    4.102145   -0.153757
     32          6           0        7.204847   -2.967705   -1.046491
     33          6           0        5.778787   -0.446783    0.320831
     34          6           0       -0.022422    4.060062   -0.180719
     35          6           0        0.873959    5.217639   -0.464077
     36          6           0        2.138048    4.723249   -0.327812
     37          6           0       -2.997370   -4.079776   -0.156276
     38          6           0        5.247965    0.403926    1.393587
     39          6           0       -6.808673   -0.802234   -0.789184
     40          6           0        3.545761    5.466255   -0.581374
     41          6           0        2.068273    3.298964    0.006344
     42          6           0        0.453404    6.626910   -0.762049
     43          6           0        4.138238    5.833546    0.743555
     44          1           0        0.305331    0.382842   -0.035940
     45          1           0       -2.990676   -1.302161    0.722247
     46          1           0       -2.486236   -3.023246    2.146842
     47          1           0       -1.173888   -3.932419    2.838970
     48          1           0        5.574712   -2.012996   -2.137416
     49          1           0       -5.052700   -0.060492    1.373069
     50          1           0       -6.022464    1.267255    0.928608
     51          1           0        2.894467    0.015201    0.269879
     52          1           0       -0.663797    1.874464    0.517799
     53          1           0        1.741693   -4.560174    1.021877
     54          1           0        2.590268   -3.317531    1.870821
     55          1           0        1.167251   -4.593513    2.511260
     56          1           0        2.758231   -3.664959   -0.660383
     57          1           0       -0.983493   -4.850218    0.186011
     58          1           0       -2.430406   -5.489192    1.426140
     59          1           0       -4.700054   -0.979557   -1.009493
     60          1           0       -5.667471    0.686323   -1.553376
     61          1           0       -4.449708    4.486287    0.641370
     62          1           0       -5.582048    3.288699    0.089148
     63          1           0       -4.650718    4.268799   -1.278858
     64          1           0       -2.096157    4.983630   -0.348196
     65          1           0        7.956346   -2.091502   -1.464681
     66          1           0        7.429598   -3.907511   -1.578289
     67          1           0        7.441640   -3.053279   -0.006309
     68          1           0        6.948430   -0.402731    0.042601
     69          1           0        4.846535    1.316385    1.081945
     70          1           0        6.055828    0.525897    2.279189
     71          1           0        4.401085   -0.136377    2.021455
     72          1           0        3.402397    6.347526   -1.008003
     73          1           0        4.150791    4.916490   -1.260262
     74          1           0        0.026473    6.536557   -1.767277
     75          1           0        1.158283    7.314759   -0.989935
     76          1           0       -0.226466    6.841241    0.083316
     77          1           0        3.724072    6.368383    1.656704
     78          1           0        5.134617    6.389881    0.671664
     79          1           0        4.174415    5.006664    1.303110
     80          1           0       -3.623715   -4.553230   -1.974495
     81          1           0       -7.864067   -2.148580   -1.705686
 ---------------------------------------------------------------------

 SCF Done:  E(RB3LYP) =  -1949.10958631     A.U. after   16 cycles

 Excitation energies and oscillator strengths:

 Excited State   1:      Singlet-A      1.8426 eV  672.87 nm  f=0.3792  <S**2>=0.000
     156 ->157         0.70809
     156 <-157        -0.12452
 This state for optimization and/or second-order correction.
 Total Energy, E(TD-HF/TD-DFT) =  -1949.04187186
 Copying the excited state density for this state as the 1-particle RhoCI density.

 The electronic state is 1-A.
 Alpha  occ. eigenvalues --  -19.19718 -19.16155 -19.16114 -19.13400 -19.10537
 Alpha  occ. eigenvalues --  -19.09964 -14.38241 -14.37509 -14.36351 -14.28987
 Alpha  occ. eigenvalues --  -10.34432 -10.32827 -10.28409 -10.26178 -10.24898
 Alpha  occ. eigenvalues --  -10.24214 -10.24078 -10.23874 -10.23766 -10.23758
 Alpha  occ. eigenvalues --  -10.22859 -10.22655 -10.21666 -10.21620 -10.21246
 Alpha  occ. eigenvalues --  -10.20815 -10.20786 -10.20695 -10.20579 -10.20329
 Alpha  occ. eigenvalues --  -10.20249 -10.20078 -10.20045 -10.19908 -10.19845
 Alpha  occ. eigenvalues --  -10.19604 -10.19569 -10.19156 -10.18998 -10.18737
 Alpha  occ. eigenvalues --  -10.18483 -10.18064 -10.16736  -1.09170  -1.07833
 Alpha  occ. eigenvalues --   -1.04303  -1.01800  -1.01358  -1.00069  -0.99973
 Alpha  occ. eigenvalues --   -0.98273  -0.96525  -0.91455  -0.83291  -0.82748
 Alpha  occ. eigenvalues --   -0.81715  -0.80558  -0.79268  -0.78781  -0.77902
 Alpha  occ. eigenvalues --   -0.77433  -0.76349  -0.75790  -0.74107  -0.72897
 Alpha  occ. eigenvalues --   -0.71842  -0.69616  -0.69559  -0.68613  -0.68182
 Alpha  occ. eigenvalues --   -0.67833  -0.65816  -0.64280  -0.62959  -0.62238
 Alpha  occ. eigenvalues --   -0.60603  -0.59943  -0.59535  -0.58525  -0.57805
 Alpha  occ. eigenvalues --   -0.56589  -0.55852  -0.54339  -0.53976  -0.53220
 Alpha  occ. eigenvalues --   -0.52490  -0.51665  -0.50822  -0.50127  -0.49653
 Alpha  occ. eigenvalues --   -0.49300  -0.48715  -0.48405  -0.48235  -0.47365
 Alpha  occ. eigenvalues --   -0.47046  -0.46778  -0.46187  -0.45842  -0.45691
 Alpha  occ. eigenvalues --   -0.45251  -0.44942  -0.44552  -0.44360  -0.43727
 Alpha  occ. eigenvalues --   -0.43655  -0.43282  -0.42843  -0.42543  -0.42231
 Alpha  occ. eigenvalues --   -0.42096  -0.41696  -0.41525  -0.41245  -0.41131
 Alpha  occ. eigenvalues --   -0.40950  -0.40633  -0.40483  -0.40007  -0.39910
 Alpha  occ. eigenvalues --   -0.39785  -0.39696  -0.39539  -0.39262  -0.39205
 Alpha  occ. eigenvalues --   -0.38501  -0.38449  -0.37858  -0.37285  -0.36946
 Alpha  occ. eigenvalues --   -0.36648  -0.36245  -0.35214  -0.34890  -0.34373
 Alpha  occ. eigenvalues --   -0.34254  -0.34060  -0.33764  -0.33687  -0.33458
 Alpha  occ. eigenvalues --   -0.31986  -0.31800  -0.30643  -0.30127  -0.29015
 Alpha  occ. eigenvalues --   -0.28256  -0.27982  -0.26908  -0.26335  -0.25974
 Alpha  occ. eigenvalues --   -0.25317  -0.24645  -0.24452  -0.23055  -0.21548
 Alpha  occ. eigenvalues --   -0.17730
 Alpha virt. eigenvalues --   -0.10564  -0.06139  -0.04048  -0.02898  -0.00848
 Alpha virt. eigenvalues --    0.01296   0.01872   0.02729   0.03185   0.03881
 Alpha virt. eigenvalues --    0.04018   0.04577   0.05286   0.05831   0.06458

 Mulliken charges:
               1
     1  O   -0.223131
     2  O   -0.273495
     3  O   -0.213575
     4  O   -0.208876
     5  O   -0.223161
     6  O   -0.197409
     7  N   -0.095838
     8  N    0.006149
     9  N   -0.003754
    10  N   -0.338019
    11  C   -0.093611
    12  C    0.083539
    13  C   -0.149991
    14  C    0.047760
    15  C   -0.056363
    16  C    0.045002
    17  C   -0.063601
    18  C   -0.167059
    19  C    0.108474
    20  C    0.030863
    21  C    0.016303
    22  C    0.016379
    23  C   -0.110978
    24  C    0.016840
    25  C   -0.070360
    26  C    0.113027
    27  C    0.030498
    28  C   -0.085026
    29  C    0.065326
    30  C    0.077031
    31  C   -0.111473
    32  C    0.047753
    33  C   -0.140889
    34  C    0.096489
    35  C   -0.136072
    36  C   -0.225662
    37  C    0.189863
    38  C    0.028975
    39  C    0.134406
    40  C    0.252903
    41  C    0.156378
    42  C    0.191490
    43  C   -0.021500
    44  H    0.170011
    45  H   -0.005784
    46  H   -0.005156
    47  H    0.018990
    48  H    0.020722
    49  H    0.018605
    50  H    0.038987
    51  H    0.018275
    52  H    0.107143
    53  H   -0.024328
    54  H    0.050672
    55  H    0.025640
    56  H    0.118795
    57  H    0.068964
    58  H    0.075510
    59  H    0.086683
    60  H    0.035428
    61  H    0.041005
    62  H    0.010943
    63  H    0.053707
    64  H   -0.016405
    65  H    0.030939
    66  H    0.042569
    67  H    0.016090
    68  H    0.018671
    69  H    0.059653
    70  H    0.024663
    71  H    0.036555
    72  H   -0.064276
    73  H    0.006750
    74  H    0.012442
    75  H   -0.027681
    76  H    0.042436
    77  H   -0.000578
    78  H    0.011160
    79  H   -0.022078
    80  H    0.223221
    81  H    0.135450
 Sum of Mulliken charges =  -0.00000

 Dipole moment (field-independent basis, Debye):
    X=             -3.0672    Y=              1.4503    Z=             -0.1681  Tot=              3.3970
 Quadrupole moment (field-independent basis, Debye-Ang):
   XX=           -262.4622   YY=           -240.2330   ZZ=           -252.8604
   XY=             13.4532   XZ=             13.8905   YZ=            -14.3444

 Normal termination of Gaussian 16 at Mon Jul  1 21:26:30 2019.
