 Gaussian 16, Revision A.03,
 Gaussian 16:  ES64L-G16RevA.03 25-Dec-2016

 --------------------------
 # td=(NStates=1) B3LYP/SVP
 --------------------------

 --
 TD
 --
 Symbolic Z-matrix:
 Charge =  0 Multiplicity = 1

                         Standard orientation:
 ---------------------------------------------------------------------
 Center     Atomic      Atomic             Coordinates (Angstroms)
 Number     Number       Type             X           Y           Z
 ---------------------------------------------------------------------
      1          8           0       -4.688191   -4.682672    1.901289
      2          8           0        2.812673   -4.759358    1.362662
      3          8           0        7.038789   -1.587450    1.857743
      4          8           0        3.820839   -3.194238    0.065794
      5          8           0        7.533744   -0.991515   -0.199460
      6          8           0       -3.013982    2.579014   -0.222958
      7          7           0       -0.321824   -0.523312   -0.557619
      8          7           0        1.651286    1.715319   -0.441658
      9          7           0       -3.540154   -3.178372    0.614092
     10          7           0       -0.688933    2.948068   -0.125416
     11          6           0        0.622273   -2.407033   -1.374387
     12          6           0        0.917113   -1.126007   -0.883106
     13          6           0       -0.808391   -2.591020   -1.336218
     14          6           0       -1.337096   -1.461384   -0.729812
     15          6           0        3.869535    1.430615   -0.335693
     16          6           0        2.580476    0.759837   -0.555855
     17          6           0        2.217429   -0.482175   -0.865444
     18          6           0        3.586532    2.801893   -0.116722
     19          6           0        1.613112   -3.425257   -1.903041
     20          6           0       -5.662162   -2.528324    1.267203
     21          6           0       -3.646581   -1.914385    0.098880
     22          6           0        2.163455    2.914096   -0.082479
     23          6           0       -5.102362   -1.534170    0.303479
     24          6           0        5.157293    0.777943   -0.432481
     25          6           0       -2.672619   -1.071170   -0.344364
     26          6           0       -1.568800   -3.902996   -1.690659
     27          6           0       -4.583287   -3.680153    1.317422
     28          6           0        1.929297   -4.612889   -0.768761
     29          6           0        5.454607   -0.130051    0.847355
     30          6           0        4.583376    3.838825    0.234449
     31          6           0        1.459007    4.038066    0.104087
     32          6           0       -7.023239   -3.073643    0.930526
     33          6           0       -5.806592   -0.517607   -0.243661
     34          6           0       -0.002016    3.998503    0.108695
     35          6           0       -0.940714    5.206832    0.583596
     36          6           0       -2.188602    4.747781    0.384044
     37          6           0        2.971374   -3.976243    0.311932
     38          6           0       -5.426383    0.635332   -1.157942
     39          6           0        6.719637   -0.988640    0.731332
     40          6           0       -3.431371    5.513413    0.515189
     41          6           0       -1.995292    3.256315   -0.137133
     42          6           0       -0.420994    6.465946    1.130533
     43          6           0       -4.113761    5.697265   -0.822334
     44          1           0       -0.282545    0.411322    0.000998
     45          1           0        3.050514   -1.126822   -1.010033
     46          1           0        2.421179   -3.036914   -2.152208
     47          1           0        1.207509   -4.267884   -2.689114
     48          1           0       -5.535490   -1.892716    2.292871
     49          1           0        5.001355    0.022817   -1.325263
     50          1           0        6.157490    1.222186   -0.577309
     51          1           0       -2.879498   -0.035397   -0.688451
     52          1           0        0.628646    1.745076   -0.511078
     53          1           0       -1.734743   -4.730223   -0.937126
     54          1           0       -2.353944   -3.587153   -2.211688
     55          1           0       -0.982554   -4.276063   -2.472548
     56          1           0       -2.702840   -3.686019    0.625500
     57          1           0        1.073140   -5.187870   -0.282772
     58          1           0        2.417220   -5.365697   -1.312181
     59          1           0        4.569188   -0.810398    1.040516
     60          1           0        5.598301    0.419639    1.720348
     61          1           0        4.508518    4.592654   -0.683102
     62          1           0        5.580458    3.508223    0.332085
     63          1           0        4.441132    4.495923    1.097914
     64          1           0        1.969238    4.973464    0.403067
     65          1           0       -7.805296   -2.329968    1.093304
     66          1           0       -7.329974   -3.841396    1.396717
     67          1           0       -7.011340   -3.332175   -0.034710
     68          1           0       -6.790211   -0.192047    0.267603
     69          1           0       -4.831833    1.358933   -0.804941
     70          1           0       -6.481566    0.842630   -1.727257
     71          1           0       -4.674572    0.283939   -1.904751
     72          1           0       -3.224700    6.397510    1.004655
     73          1           0       -4.130401    4.835177    1.059041
     74          1           0        0.035461    6.346773    2.305901
     75          1           0       -1.310769    7.290756    1.128385
     76          1           0        0.438645    6.863933    0.284297
     77          1           0       -3.616738    6.221715   -1.660812
     78          1           0       -5.025780    6.199512   -0.751937
     79          1           0       -4.299701    4.489074   -1.190631
     80          1           0        3.609175   -4.392024    2.040928
     81          1           0        7.878186   -2.029730    1.755642
 ---------------------------------------------------------------------

 SCF Done:  E(RB3LYP) =  -1949.06709081     A.U. after   16 cycles

 Excitation energies and oscillator strengths:

 Excited State   1:      Singlet-A      2.0315 eV  610.31 nm  f=0.3768  <S**2>=0.000
     156 ->157         0.70399
 This state for optimization and/or second-order correction.
 Total Energy, E(TD-HF/TD-DFT) =  -1948.99243513
 Copying the excited state density for this state as the 1-particle RhoCI density.

 The electronic state is 1-A.
 Alpha  occ. eigenvalues --  -19.21279 -19.18809 -19.15388 -19.12093 -19.11422
 Alpha  occ. eigenvalues --  -19.11360 -14.37537 -14.36963 -14.35762 -14.30733
 Alpha  occ. eigenvalues --  -10.33595 -10.32287 -10.28700 -10.27914 -10.24445
 Alpha  occ. eigenvalues --  -10.24305 -10.23449 -10.23208 -10.23068 -10.22974
 Alpha  occ. eigenvalues --  -10.22921 -10.21619 -10.21433 -10.21375 -10.21140
 Alpha  occ. eigenvalues --  -10.20826 -10.20534 -10.20462 -10.20439 -10.20162
 Alpha  occ. eigenvalues --  -10.19789 -10.19508 -10.19387 -10.19250 -10.19196
 Alpha  occ. eigenvalues --  -10.18807 -10.18745 -10.18710 -10.18335 -10.18199
 Alpha  occ. eigenvalues --  -10.18111 -10.17435 -10.15559  -1.11885  -1.11225
 Alpha  occ. eigenvalues --   -1.06237  -1.03830  -1.02338  -0.99931  -0.99296
 Alpha  occ. eigenvalues --   -0.97083  -0.96284  -0.94730  -0.82716  -0.82331
 Alpha  occ. eigenvalues --   -0.81275  -0.80643  -0.80582  -0.79181  -0.77548
 Alpha  occ. eigenvalues --   -0.76446  -0.75840  -0.74815  -0.74201  -0.72548
 Alpha  occ. eigenvalues --   -0.71937  -0.70349  -0.69324  -0.69037  -0.67541
 Alpha  occ. eigenvalues --   -0.67076  -0.65638  -0.64371  -0.62878  -0.62029
 Alpha  occ. eigenvalues --   -0.61198  -0.60270  -0.59433  -0.58278  -0.57456
 Alpha  occ. eigenvalues --   -0.56655  -0.55823  -0.54492  -0.53889  -0.53092
 Alpha  occ. eigenvalues --   -0.52367  -0.51735  -0.51197  -0.50423  -0.49923
 Alpha  occ. eigenvalues --   -0.49554  -0.48550  -0.48372  -0.48183  -0.48085
 Alpha  occ. eigenvalues --   -0.47486  -0.47032  -0.46217  -0.45750  -0.45644
 Alpha  occ. eigenvalues --   -0.45319  -0.45209  -0.44971  -0.44486  -0.44120
 Alpha  occ. eigenvalues --   -0.44022  -0.43470  -0.43306  -0.43061  -0.42411
 Alpha  occ. eigenvalues --   -0.42280  -0.41803  -0.41538  -0.41401  -0.41080
 Alpha  occ. eigenvalues --   -0.40811  -0.40618  -0.40361  -0.40171  -0.39913
 Alpha  occ. eigenvalues --   -0.39468  -0.39237  -0.38844  -0.38549  -0.38326
 Alpha  occ. eigenvalues --   -0.38051  -0.37577  -0.37361  -0.37259  -0.36877
 Alpha  occ. eigenvalues --   -0.36698  -0.36505  -0.35917  -0.35574  -0.35046
 Alpha  occ. eigenvalues --   -0.34587  -0.34227  -0.33914  -0.33898  -0.33661
 Alpha  occ. eigenvalues --   -0.32293  -0.32001  -0.31500  -0.30523  -0.29865
 Alpha  occ. eigenvalues --   -0.28607  -0.27782  -0.26707  -0.26051  -0.25094
 Alpha  occ. eigenvalues --   -0.24619  -0.24582  -0.24339  -0.23877  -0.21890
 Alpha  occ. eigenvalues --   -0.18145
 Alpha virt. eigenvalues --   -0.10039  -0.05193  -0.03434  -0.00808  -0.00196
 Alpha virt. eigenvalues --    0.00192   0.01011   0.02179   0.03169   0.03314
 Alpha virt. eigenvalues --    0.03610   0.04828   0.05601   0.05972   0.06279

 Mulliken charges:
               1
     1  O   -0.149717
     2  O   -0.201340
     3  O   -0.143840
     4  O   -0.192667
     5  O   -0.265432
     6  O   -0.211968
     7  N   -0.151722
     8  N   -0.050089
     9  N   -0.058344
    10  N   -0.204816
    11  C   -0.083284
    12  C    0.065680
    13  C   -0.213486
    14  C    0.072406
    15  C    0.001316
    16  C    0.084226
    17  C   -0.067146
    18  C   -0.119339
    19  C    0.155943
    20  C   -0.153287
    21  C    0.106985
    22  C    0.113363
    23  C   -0.011719
    24  C    0.014369
    25  C   -0.112714
    26  C    0.201322
    27  C    0.089399
    28  C   -0.043977
    29  C   -0.008935
    30  C    0.084012
    31  C   -0.144061
    32  C    0.232684
    33  C   -0.190236
    34  C    0.031928
    35  C   -0.060931
    36  C   -0.210147
    37  C    0.146988
    38  C    0.073373
    39  C    0.132037
    40  C    0.165849
    41  C    0.161511
    42  C   -0.066265
    43  C   -0.063811
    44  H    0.166077
    45  H   -0.025219
    46  H   -0.068591
    47  H    0.034388
    48  H    0.061545
    49  H    0.044540
    50  H    0.030034
    51  H    0.028069
    52  H    0.120214
    53  H    0.045921
    54  H   -0.023932
    55  H   -0.035244
    56  H    0.101967
    57  H    0.040177
    58  H    0.023358
    59  H    0.048807
    60  H    0.013688
    61  H    0.033284
    62  H    0.001890
    63  H    0.025132
    64  H   -0.020869
    65  H   -0.000497
    66  H   -0.043676
    67  H   -0.033315
    68  H    0.015099
    69  H    0.024891
    70  H    0.031509
    71  H    0.005111
    72  H   -0.032170
    73  H    0.012349
    74  H    0.068037
    75  H    0.043911
    76  H    0.055039
    77  H    0.010839
    78  H   -0.003191
    79  H    0.056816
    80  H    0.216799
    81  H    0.173093
 Sum of Mulliken charges =  -0.00000

 Dipole moment (field-independent basis, Debye):
    X=              3.9020    Y=              0.6647    Z=              1.8278  Tot=              4.3599
 Quadrupole moment (field-independent basis, Debye-Ang):
   XX=           -258.7913   YY=           -236.8101   ZZ=           -255.1586
   XY=            -12.5258   XZ=             21.6215   YZ=             10.5161

 Normal termination of Gaussian 16 at Fri Jun 28 11:43:09 2019.
