 Gaussian 16, Revision A.03,
 Gaussian 16:  ES64L-G16RevA.03 25-Dec-2016

 --------------------------
 # td=(NStates=1) B3LYP/SVP
 --------------------------

 --
 TD
 --
 Symbolic Z-matrix:
 Charge =  0 Multiplicity = 1

                         Standard orientation:
 ---------------------------------------------------------------------
 Center     Atomic      Atomic             Coordinates (Angstroms)
 Number     Number       Type             X           Y           Z
 ---------------------------------------------------------------------
      1          8           0        4.416105   -4.892088   -1.801569
      2          8           0       -3.373784   -4.802300   -1.273129
      3          8           0       -7.282762   -1.147151   -1.839825
      4          8           0       -3.978490   -3.020927   -0.040432
      5          8           0       -7.613925   -0.371274    0.222995
      6          8           0        3.139794    2.279045   -0.034253
      7          7           0        0.376050   -0.557341    0.633127
      8          7           0       -1.468681    1.855165    0.313427
      9          7           0        3.404747   -3.274582   -0.527495
     10          7           0        0.843685    2.862631    0.049924
     11          6           0       -0.761816   -2.472885    1.272244
     12          6           0       -0.891604   -1.061862    0.937385
     13          6           0        0.659028   -2.734545    1.126632
     14          6           0        1.303359   -1.548088    0.690822
     15          6           0       -3.715345    1.494572    0.309918
     16          6           0       -2.450723    0.869679    0.588043
     17          6           0       -2.153309   -0.467532    0.855772
     18          6           0       -3.525831    2.814376    0.062638
     19          6           0       -1.848612   -3.425448    1.780385
     20          6           0        5.534993   -2.703061   -1.419477
     21          6           0        3.607176   -1.932967   -0.119878
     22          6           0       -2.023894    2.998612    0.037070
     23          6           0        5.040992   -1.591470   -0.450593
     24          6           0       -5.069659    0.843923    0.476832
     25          6           0        2.653997   -1.145089    0.466767
     26          6           0        1.347104   -3.903849    1.838247
     27          6           0        4.447240   -3.846585   -1.271399
     28          6           0       -2.229856   -4.449434    0.796602
     29          6           0       -5.487928    0.101758   -0.809830
     30          6           0       -4.480872    3.875344   -0.386558
     31          6           0       -1.178774    4.097294   -0.346149
     32          6           0        6.921990   -3.299515   -1.152923
     33          6           0        5.769772   -0.639328    0.089646
     34          6           0        0.163498    4.043909   -0.236382
     35          6           0        1.218129    5.158248   -0.521048
     36          6           0        2.384586    4.672602   -0.276552
     37          6           0       -3.229352   -3.983866   -0.135774
     38          6           0        5.479588    0.392093    1.222528
     39          6           0       -6.869262   -0.606933   -0.719588
     40          6           0        3.775130    5.251900   -0.353844
     41          6           0        2.230683    3.226187   -0.002649
     42          6           0        0.775084    6.580694   -0.914855
     43          6           0        4.497605    5.332287    1.064500
     44          1           0        0.498100    0.374310    0.225845
     45          1           0       -3.015970   -0.928625    1.032023
     46          1           0       -2.692459   -2.921556    2.110934
     47          1           0       -1.280227   -3.915776    2.745002
     48          1           0        5.469856   -2.237532   -2.391350
     49          1           0       -5.085574    0.372699    1.532461
     50          1           0       -5.873678    1.681312    0.613399
     51          1           0        2.941133   -0.213770    0.664954
     52          1           0       -0.356319    1.973262    0.765625
     53          1           0        1.737601   -4.872232    1.223571
     54          1           0        2.334742   -3.549755    2.609077
     55          1           0        0.378351   -4.396693    2.456804
     56          1           0        2.540531   -3.744525   -0.258724
     57          1           0       -1.347278   -4.930246    0.387700
     58          1           0       -2.673795   -5.308803    1.594743
     59          1           0       -4.960184   -0.781170   -1.056764
     60          1           0       -5.463254    0.483323   -1.763087
     61          1           0       -3.971875    4.870324   -0.075512
     62          1           0       -5.529628    3.682721    0.314462
     63          1           0       -4.639848    3.833227   -1.591619
     64          1           0       -1.697071    5.167968   -0.425718
     65          1           0        7.692444   -2.720271   -1.402237
     66          1           0        6.853116   -4.317106   -1.762151
     67          1           0        6.897314   -3.684313   -0.009004
     68          1           0        6.903327   -0.369217   -0.192929
     69          1           0        5.311813    1.444440    0.599698
     70          1           0        6.247500    0.555405    1.848008
     71          1           0        4.697661    0.266745    1.895036
     72          1           0        3.889077    6.260200   -0.881566
     73          1           0        4.327578    4.565589   -0.876148
     74          1           0        0.338352    6.747226   -1.976526
     75          1           0        1.725911    7.072640   -0.772774
     76          1           0        0.216756    6.924823   -0.043958
     77          1           0        4.058953    6.303797    1.785062
     78          1           0        5.597784    5.559324    0.932843
     79          1           0        4.481406    4.442715    1.622571
     80          1           0       -4.073255   -4.351736   -1.810580
     81          1           0       -8.383708   -1.548412   -1.813535
 ---------------------------------------------------------------------

 SCF Done:  E(RB3LYP) =  -1949.04474271     A.U. after   16 cycles

 Excitation energies and oscillator strengths:

 Excited State   1:      Singlet-A      2.0696 eV  599.06 nm  f=0.4065  <S**2>=0.000
     156 ->157         0.70553
     156 <-157        -0.10098
 This state for optimization and/or second-order correction.
 Total Energy, E(TD-HF/TD-DFT) =  -1948.96868491
 Copying the excited state density for this state as the 1-particle RhoCI density.

 The electronic state is 1-A.
 Alpha  occ. eigenvalues --  -19.19522 -19.18568 -19.15112 -19.12004 -19.10984
 Alpha  occ. eigenvalues --  -19.09614 -14.38109 -14.36681 -14.35470 -14.29492
 Alpha  occ. eigenvalues --  -10.34179 -10.31237 -10.29524 -10.26734 -10.24472
 Alpha  occ. eigenvalues --  -10.24112 -10.23883 -10.23820 -10.23446 -10.23360
 Alpha  occ. eigenvalues --  -10.22605 -10.22512 -10.22246 -10.22160 -10.21622
 Alpha  occ. eigenvalues --  -10.21167 -10.20665 -10.20621 -10.20519 -10.20505
 Alpha  occ. eigenvalues --  -10.20015 -10.19980 -10.19948 -10.19934 -10.19859
 Alpha  occ. eigenvalues --  -10.19857 -10.19458 -10.19201 -10.19192 -10.19112
 Alpha  occ. eigenvalues --  -10.18612 -10.17656 -10.17451  -1.09618  -1.08535
 Alpha  occ. eigenvalues --   -1.05880  -1.00703  -0.98523  -0.98485  -0.97695
 Alpha  occ. eigenvalues --   -0.96482  -0.94404  -0.89550  -0.83973  -0.82358
 Alpha  occ. eigenvalues --   -0.80947  -0.80742  -0.79978  -0.78834  -0.78059
 Alpha  occ. eigenvalues --   -0.76880  -0.75948  -0.74626  -0.74021  -0.72052
 Alpha  occ. eigenvalues --   -0.70273  -0.69289  -0.69013  -0.68321  -0.67392
 Alpha  occ. eigenvalues --   -0.66360  -0.64799  -0.64512  -0.62033  -0.61322
 Alpha  occ. eigenvalues --   -0.59857  -0.59050  -0.58505  -0.57758  -0.56710
 Alpha  occ. eigenvalues --   -0.55614  -0.55100  -0.54699  -0.53662  -0.53059
 Alpha  occ. eigenvalues --   -0.52874  -0.51451  -0.50596  -0.49839  -0.49418
 Alpha  occ. eigenvalues --   -0.49041  -0.48732  -0.48206  -0.47728  -0.47097
 Alpha  occ. eigenvalues --   -0.46811  -0.46544  -0.45976  -0.45636  -0.44770
 Alpha  occ. eigenvalues --   -0.44466  -0.44082  -0.43911  -0.43891  -0.43493
 Alpha  occ. eigenvalues --   -0.43182  -0.42781  -0.42454  -0.42285  -0.42212
 Alpha  occ. eigenvalues --   -0.42053  -0.41594  -0.41189  -0.40972  -0.40782
 Alpha  occ. eigenvalues --   -0.40150  -0.40017  -0.39822  -0.39567  -0.39224
 Alpha  occ. eigenvalues --   -0.39109  -0.38708  -0.38581  -0.38310  -0.37726
 Alpha  occ. eigenvalues --   -0.37508  -0.37041  -0.36997  -0.36596  -0.36486
 Alpha  occ. eigenvalues --   -0.35992  -0.35617  -0.35060  -0.34583  -0.34418
 Alpha  occ. eigenvalues --   -0.33944  -0.33817  -0.33490  -0.33224  -0.33010
 Alpha  occ. eigenvalues --   -0.32202  -0.31533  -0.31247  -0.30425  -0.29706
 Alpha  occ. eigenvalues --   -0.27018  -0.26857  -0.26631  -0.26211  -0.25883
 Alpha  occ. eigenvalues --   -0.25504  -0.25049  -0.24166  -0.23765  -0.21508
 Alpha  occ. eigenvalues --   -0.18122
 Alpha virt. eigenvalues --   -0.09850  -0.05336  -0.04287  -0.03218  -0.01984
 Alpha virt. eigenvalues --    0.00934   0.01255   0.01631   0.02552   0.03251
 Alpha virt. eigenvalues --    0.03597   0.04300   0.04612   0.04818   0.05630

 Mulliken charges:
               1
     1  O   -0.156692
     2  O   -0.230594
     3  O   -0.257069
     4  O   -0.226753
     5  O   -0.257303
     6  O   -0.305035
     7  N   -0.071916
     8  N   -0.154975
     9  N   -0.145789
    10  N   -0.362962
    11  C   -0.131762
    12  C    0.130104
    13  C   -0.119311
    14  C    0.122091
    15  C   -0.075780
    16  C    0.016418
    17  C    0.026555
    18  C   -0.100469
    19  C    0.082082
    20  C   -0.081783
    21  C    0.073243
    22  C    0.026587
    23  C    0.064128
    24  C    0.074181
    25  C   -0.021259
    26  C   -0.102472
    27  C    0.140673
    28  C    0.019653
    29  C    0.079111
    30  C   -0.021151
    31  C   -0.127683
    32  C    0.047999
    33  C   -0.214053
    34  C    0.086286
    35  C   -0.138404
    36  C   -0.113720
    37  C    0.170874
    38  C    0.069091
    39  C    0.121118
    40  C    0.127859
    41  C    0.193604
    42  C    0.121897
    43  C   -0.062753
    44  H    0.149468
    45  H   -0.086942
    46  H   -0.004051
    47  H    0.042558
    48  H    0.038521
    49  H    0.051522
    50  H    0.021725
    51  H   -0.068781
    52  H    0.230933
    53  H    0.050924
    54  H    0.076917
    55  H    0.025195
    56  H    0.123556
    57  H    0.038997
    58  H    0.084466
    59  H    0.001393
    60  H   -0.002520
    61  H    0.041196
    62  H    0.054911
    63  H    0.069108
    64  H    0.005387
    65  H   -0.003079
    66  H    0.048328
    67  H    0.026679
    68  H    0.021568
    69  H    0.078364
    70  H   -0.024345
    71  H   -0.003388
    72  H    0.011594
    73  H   -0.010505
    74  H    0.062230
    75  H   -0.008043
    76  H    0.022242
    77  H    0.019682
    78  H    0.016778
    79  H    0.024841
    80  H    0.192474
    81  H    0.266230
 Sum of Mulliken charges =  -0.00000

 Dipole moment (field-independent basis, Debye):
    X=             -2.7992    Y=              0.3615    Z=              0.2768  Tot=              2.8360
 Quadrupole moment (field-independent basis, Debye-Ang):
   XX=           -246.3242   YY=           -242.6310   ZZ=           -252.4090
   XY=             20.1316   XZ=             19.7243   YZ=            -12.9297

 Normal termination of Gaussian 16 at Wed Jul  3 20:07:20 2019.
