 Gaussian 16, Revision A.03,
 Gaussian 16:  ES64L-G16RevA.03 25-Dec-2016

 --------------------------
 # td=(NStates=1) B3LYP/SVP
 --------------------------

 --
 TD
 --
 Symbolic Z-matrix:
 Charge =  0 Multiplicity = 1

                         Standard orientation:
 ---------------------------------------------------------------------
 Center     Atomic      Atomic             Coordinates (Angstroms)
 Number     Number       Type             X           Y           Z
 ---------------------------------------------------------------------
      1          8           0       -4.357448   -4.863017    1.749427
      2          8           0        3.013320   -4.873908    1.143655
      3          8           0        6.891081   -1.566107    1.967127
      4          8           0        3.872008   -3.042669    0.067029
      5          8           0        7.588867   -0.506515    0.142781
      6          8           0       -3.076457    2.483250   -0.237381
      7          7           0       -0.302833   -0.605973   -0.658413
      8          7           0        1.438914    1.875600   -0.550529
      9          7           0       -3.237673   -3.121893    0.725574
     10          7           0       -0.866585    2.998077   -0.290503
     11          6           0        0.680936   -2.441603   -1.368083
     12          6           0        0.958874   -1.107777   -1.022142
     13          6           0       -0.726441   -2.826569   -1.265784
     14          6           0       -1.320161   -1.525466   -0.830978
     15          6           0        3.789191    1.473708   -0.297557
     16          6           0        2.464183    0.914947   -0.685676
     17          6           0        2.203099   -0.442925   -0.964674
     18          6           0        3.499627    2.894124   -0.135328
     19          6           0        1.683070   -3.438896   -1.915585
     20          6           0       -5.518954   -2.730696    1.437521
     21          6           0       -3.606690   -1.899063    0.217230
     22          6           0        2.047913    2.964322   -0.098372
     23          6           0       -5.051815   -1.663111    0.532687
     24          6           0        5.075435    0.767521   -0.351604
     25          6           0       -2.727409   -1.117989   -0.370346
     26          6           0       -1.446133   -3.957416   -1.726437
     27          6           0       -4.349949   -3.784253    1.334550
     28          6           0        2.178770   -4.431269   -1.055572
     29          6           0        5.396974   -0.110706    0.844431
     30          6           0        4.556200    3.901642    0.235015
     31          6           0        1.247679    4.088933    0.263175
     32          6           0       -6.782298   -3.427104    1.091044
     33          6           0       -5.786236   -0.728104   -0.119624
     34          6           0       -0.150681    4.083368    0.149305
     35          6           0       -1.068992    5.208151    0.473152
     36          6           0       -2.372074    4.712825    0.399662
     37          6           0        3.075097   -3.971461    0.070185
     38          6           0       -5.415961    0.298654   -1.082275
     39          6           0        6.757022   -0.718648    0.861847
     40          6           0       -3.626330    5.517504    0.503558
     41          6           0       -2.153450    3.345255   -0.123495
     42          6           0       -0.555482    6.607799    0.961351
     43          6           0       -4.264155    5.845523   -0.870055
     44          1           0       -0.364730    0.230351   -0.168932
     45          1           0        3.029208   -1.057328   -1.082134
     46          1           0        2.663873   -2.844439   -2.390030
     47          1           0        1.266734   -3.781158   -2.786760
     48          1           0       -5.600578   -2.455671    2.515866
     49          1           0        5.204585    0.250276   -1.381219
     50          1           0        5.935567    1.366102   -0.481915
     51          1           0       -2.777692   -0.109986   -0.696147
     52          1           0        0.414209    2.089756   -0.618290
     53          1           0       -1.608591   -4.737037   -0.972647
     54          1           0       -2.615264   -3.966014   -1.938287
     55          1           0       -0.934384   -4.472297   -2.588186
     56          1           0       -2.347946   -3.429342    0.855252
     57          1           0        1.265455   -4.979626   -0.601965
     58          1           0        2.706615   -5.412907   -1.402737
     59          1           0        4.622550   -0.902976    1.025998
     60          1           0        5.350363    0.513025    1.788398
     61          1           0        4.678805    4.667139   -0.613711
     62          1           0        5.590712    3.377902    0.799986
     63          1           0        3.996138    4.433072    1.118879
     64          1           0        1.712421    5.069524    0.830804
     65          1           0       -7.647201   -2.863021    1.367019
     66          1           0       -6.838121   -4.267312    1.653448
     67          1           0       -6.635626   -3.749404   -0.078567
     68          1           0       -6.790414   -0.633544    0.124055
     69          1           0       -4.810713    1.024231   -0.655890
     70          1           0       -6.124072    0.711772   -1.696837
     71          1           0       -4.830491   -0.242728   -1.928155
     72          1           0       -3.500083    6.509318    0.838271
     73          1           0       -4.332119    4.996542    1.029921
     74          1           0        0.101699    6.564475    1.941390
     75          1           0       -1.306392    7.139381    1.329795
     76          1           0       -0.091048    7.154221    0.215625
     77          1           0       -3.741919    6.486514   -1.475470
     78          1           0       -5.304567    6.323852   -0.362271
     79          1           0       -4.577786    4.758213   -1.407954
     80          1           0        3.704961   -4.660473    1.855686
     81          1           0        7.716950   -1.976667    2.246932
 ---------------------------------------------------------------------

 SCF Done:  E(RB3LYP) =  -1949.08022764     A.U. after   20 cycles

 Excitation energies and oscillator strengths:

 Excited State   1:      Singlet-A      1.9624 eV  631.80 nm  f=0.4011  <S**2>=0.000
     156 ->157         0.70790
     156 <-157        -0.11894
 This state for optimization and/or second-order correction.
 Total Energy, E(TD-HF/TD-DFT) =  -1949.00811121
 Copying the excited state density for this state as the 1-particle RhoCI density.

 The electronic state is 1-A.
 Alpha  occ. eigenvalues --  -19.18559 -19.15347 -19.14580 -19.13049 -19.12546
 Alpha  occ. eigenvalues --  -19.08038 -14.37554 -14.35947 -14.35740 -14.28445
 Alpha  occ. eigenvalues --  -10.33722 -10.31305 -10.29415 -10.25255 -10.24695
 Alpha  occ. eigenvalues --  -10.24163 -10.24036 -10.23536 -10.23054 -10.22603
 Alpha  occ. eigenvalues --  -10.22454 -10.22185 -10.21678 -10.21162 -10.20934
 Alpha  occ. eigenvalues --  -10.20654 -10.20590 -10.20557 -10.20536 -10.20311
 Alpha  occ. eigenvalues --  -10.20298 -10.20296 -10.19960 -10.19593 -10.19509
 Alpha  occ. eigenvalues --  -10.19479 -10.18929 -10.18736 -10.18614 -10.18240
 Alpha  occ. eigenvalues --  -10.17956 -10.17849 -10.16061  -1.11101  -1.08364
 Alpha  occ. eigenvalues --   -1.07282  -1.00759  -1.00353  -0.98794  -0.98027
 Alpha  occ. eigenvalues --   -0.97315  -0.95866  -0.90612  -0.83593  -0.82416
 Alpha  occ. eigenvalues --   -0.82371  -0.80502  -0.79459  -0.78830  -0.78170
 Alpha  occ. eigenvalues --   -0.77611  -0.76446  -0.75064  -0.74417  -0.72553
 Alpha  occ. eigenvalues --   -0.70998  -0.70353  -0.69236  -0.68604  -0.68223
 Alpha  occ. eigenvalues --   -0.67311  -0.65112  -0.64798  -0.61629  -0.61143
 Alpha  occ. eigenvalues --   -0.60065  -0.59805  -0.58461  -0.57966  -0.57162
 Alpha  occ. eigenvalues --   -0.56519  -0.54977  -0.54642  -0.54086  -0.53029
 Alpha  occ. eigenvalues --   -0.52593  -0.51803  -0.51216  -0.50744  -0.49660
 Alpha  occ. eigenvalues --   -0.49313  -0.49145  -0.48902  -0.48015  -0.47771
 Alpha  occ. eigenvalues --   -0.47465  -0.47409  -0.46391  -0.45446  -0.45332
 Alpha  occ. eigenvalues --   -0.45006  -0.44651  -0.44411  -0.44040  -0.43959
 Alpha  occ. eigenvalues --   -0.43466  -0.43363  -0.42788  -0.42691  -0.42491
 Alpha  occ. eigenvalues --   -0.42055  -0.41854  -0.41577  -0.41269  -0.41044
 Alpha  occ. eigenvalues --   -0.40819  -0.40716  -0.40499  -0.40281  -0.39853
 Alpha  occ. eigenvalues --   -0.39293  -0.38502  -0.38410  -0.38322  -0.38207
 Alpha  occ. eigenvalues --   -0.37507  -0.37227  -0.37067  -0.36733  -0.36345
 Alpha  occ. eigenvalues --   -0.36243  -0.36132  -0.35197  -0.35056  -0.34649
 Alpha  occ. eigenvalues --   -0.33502  -0.33013  -0.32935  -0.32511  -0.32481
 Alpha  occ. eigenvalues --   -0.32196  -0.31508  -0.31157  -0.29603  -0.29166
 Alpha  occ. eigenvalues --   -0.28573  -0.27670  -0.27357  -0.25685  -0.25187
 Alpha  occ. eigenvalues --   -0.25016  -0.24191  -0.23109  -0.22751  -0.21366
 Alpha  occ. eigenvalues --   -0.17905
 Alpha virt. eigenvalues --   -0.10238  -0.05573  -0.03389  -0.01998  -0.00065
 Alpha virt. eigenvalues --    0.01363   0.02594   0.03203   0.03289   0.03729
 Alpha virt. eigenvalues --    0.04127   0.04317   0.05085   0.05713   0.06089

 Mulliken charges:
               1
     1  O   -0.127988
     2  O   -0.253412
     3  O   -0.269405
     4  O   -0.219913
     5  O   -0.109007
     6  O   -0.270296
     7  N   -0.054626
     8  N   -0.065341
     9  N   -0.109088
    10  N   -0.263256
    11  C   -0.136783
    12  C    0.097118
    13  C   -0.105212
    14  C   -0.018810
    15  C   -0.067259
    16  C    0.092000
    17  C   -0.012610
    18  C   -0.114028
    19  C    0.126772
    20  C   -0.069622
    21  C    0.165671
    22  C    0.060437
    23  C    0.021567
    24  C    0.091693
    25  C   -0.104800
    26  C    0.041077
    27  C    0.087519
    28  C   -0.008853
    29  C   -0.039369
    30  C   -0.011989
    31  C   -0.154135
    32  C    0.099293
    33  C   -0.131958
    34  C    0.050524
    35  C   -0.124942
    36  C   -0.149574
    37  C    0.155588
    38  C    0.128516
    39  C    0.124685
    40  C    0.163806
    41  C    0.128704
    42  C    0.166175
    43  C   -0.088140
    44  H    0.108421
    45  H   -0.036217
    46  H    0.021086
    47  H   -0.018306
    48  H    0.038502
    49  H    0.032461
    50  H   -0.018437
    51  H    0.002260
    52  H    0.140796
    53  H    0.003839
    54  H    0.042142
    55  H    0.021649
    56  H    0.096854
    57  H    0.034495
    58  H    0.062450
    59  H    0.057350
    60  H    0.033675
    61  H    0.056376
    62  H    0.064860
    63  H    0.039532
    64  H    0.019383
    65  H    0.005079
    66  H   -0.007805
    67  H    0.024972
    68  H   -0.037141
    69  H    0.060497
    70  H   -0.023629
    71  H    0.015671
    72  H   -0.017681
    73  H   -0.014743
    74  H    0.028274
    75  H   -0.045525
    76  H    0.010459
    77  H    0.013135
    78  H    0.022963
    79  H    0.056651
    80  H    0.208637
    81  H    0.176283
 Sum of Mulliken charges =  -0.00000

 Dipole moment (field-independent basis, Debye):
    X=              2.6578    Y=             -0.4941    Z=              1.4999  Tot=              3.0916
 Quadrupole moment (field-independent basis, Debye-Ang):
   XX=           -247.9239   YY=           -235.0524   ZZ=           -249.3195
   XY=            -11.6593   XZ=             12.0047   YZ=             10.8517

 Normal termination of Gaussian 16 at Sat Jul  6 07:38:07 2019.
