 Gaussian 16, Revision A.03,
 Gaussian 16:  ES64L-G16RevA.03 25-Dec-2016

 --------------------------
 # td=(NStates=1) B3LYP/SVP
 --------------------------

 --
 TD
 --
 Symbolic Z-matrix:
 Charge =  0 Multiplicity = 1

                         Standard orientation:
 ---------------------------------------------------------------------
 Center     Atomic      Atomic             Coordinates (Angstroms)
 Number     Number       Type             X           Y           Z
 ---------------------------------------------------------------------
      1          8           0        4.162642   -4.956870   -1.880259
      2          8           0       -3.229416   -4.809095   -1.171865
      3          8           0       -7.134596   -1.274913   -1.853734
      4          8           0       -4.024496   -3.093703   -0.077441
      5          8           0       -7.521756   -0.408954    0.233455
      6          8           0        3.101890    2.415442    0.311952
      7          7           0        0.252511   -0.490491    0.577451
      8          7           0       -1.515931    1.841311    0.437015
      9          7           0        3.295022   -3.261537   -0.644889
     10          7           0        0.954411    2.943884    0.132733
     11          6           0       -0.710962   -2.294436    1.390526
     12          6           0       -0.991684   -1.027917    0.902178
     13          6           0        0.640684   -2.567658    1.232714
     14          6           0        1.258157   -1.414511    0.649411
     15          6           0       -3.782535    1.567461    0.277204
     16          6           0       -2.565947    0.951115    0.606190
     17          6           0       -2.220132   -0.349879    0.791401
     18          6           0       -3.440599    2.910618   -0.143285
     19          6           0       -1.739216   -3.353427    1.939627
     20          6           0        5.488597   -2.856705   -1.280606
     21          6           0        3.544991   -1.967109   -0.156826
     22          6           0       -2.012846    3.066878    0.029196
     23          6           0        4.931322   -1.694926   -0.403399
     24          6           0       -5.047388    0.841866    0.299388
     25          6           0        2.603029   -1.107320    0.425484
     26          6           0        1.387329   -3.808228    1.813530
     27          6           0        4.231750   -3.869196   -1.359662
     28          6           0       -2.184162   -4.405505    0.945249
     29          6           0       -5.326163   -0.089107   -0.853281
     30          6           0       -4.422565    3.949896   -0.359512
     31          6           0       -1.123061    4.159304   -0.169944
     32          6           0        6.837482   -3.368432   -1.126049
     33          6           0        5.769643   -0.887997    0.177205
     34          6           0        0.268840    4.108206   -0.118077
     35          6           0        1.204016    5.189155   -0.419647
     36          6           0        2.377961    4.578454   -0.386878
     37          6           0       -3.191863   -3.997150   -0.097143
     38          6           0        5.463752    0.201983    1.237052
     39          6           0       -6.723996   -0.632515   -0.759330
     40          6           0        3.801991    5.087602   -0.498710
     41          6           0        2.252874    3.268475    0.039371
     42          6           0        0.953904    6.609708   -0.864803
     43          6           0        4.414028    5.485118    0.857645
     44          1           0        0.380059    0.396470    0.097272
     45          1           0       -3.018563   -1.195803    0.835601
     46          1           0       -2.561652   -2.777774    2.115238
     47          1           0       -1.492693   -3.789976    2.969589
     48          1           0        5.478136   -2.361842   -2.370152
     49          1           0       -4.936995    0.100375    1.106969
     50          1           0       -6.025137    1.500250    0.320701
     51          1           0        2.838258    0.003565    0.379870
     52          1           0       -0.495686    1.704131    0.571180
     53          1           0        1.372494   -4.613655    1.126551
     54          1           0        2.298236   -3.480068    2.112265
     55          1           0        0.970256   -4.060959    2.787046
     56          1           0        2.410442   -3.761197   -0.524857
     57          1           0       -1.431738   -4.815314    0.504385
     58          1           0       -2.534277   -5.506296    1.269130
     59          1           0       -4.511400   -0.863172   -0.882293
     60          1           0       -5.296748    0.318326   -1.993227
     61          1           0       -4.583677    4.729365    0.511005
     62          1           0       -5.371324    3.795583   -0.282890
     63          1           0       -4.324578    4.190528   -1.395335
     64          1           0       -1.496863    5.171621   -0.573368
     65          1           0        7.749826   -2.694468   -1.255023
     66          1           0        6.976488   -4.211070   -1.882091
     67          1           0        6.947649   -3.864764   -0.100269
     68          1           0        6.909872   -1.034634   -0.038418
     69          1           0        5.013733    0.985685    0.727463
     70          1           0        6.294938    0.651295    1.717133
     71          1           0        4.777712   -0.196056    1.946558
     72          1           0        3.789033    6.010107   -1.155641
     73          1           0        4.436076    4.352084   -1.227516
     74          1           0        0.149125    6.480766   -1.821178
     75          1           0        1.846982    7.158789   -1.138553
     76          1           0        0.314113    7.429991   -0.280381
     77          1           0        3.651902    5.889802    1.357406
     78          1           0        5.319011    6.144197    0.633358
     79          1           0        4.845772    4.531155    1.462830
     80          1           0       -3.961715   -4.688961   -1.647383
     81          1           0       -8.146687   -1.538438   -1.693306
 ---------------------------------------------------------------------

 SCF Done:  E(RB3LYP) =  -1949.10231792     A.U. after   23 cycles

 Excitation energies and oscillator strengths:

 Excited State   1:      Singlet-A      1.8171 eV  682.33 nm  f=0.3558  <S**2>=0.000
     156 ->157         0.70769
     156 <-157        -0.12766
 This state for optimization and/or second-order correction.
 Total Energy, E(TD-HF/TD-DFT) =  -1949.03554160
 Copying the excited state density for this state as the 1-particle RhoCI density.

 The electronic state is 1-A.
 Alpha  occ. eigenvalues --  -19.19795 -19.18742 -19.14449 -19.11997 -19.11291
 Alpha  occ. eigenvalues --  -19.08255 -14.38219 -14.37940 -14.36140 -14.26834
 Alpha  occ. eigenvalues --  -10.34412 -10.32531 -10.29503 -10.25640 -10.24519
 Alpha  occ. eigenvalues --  -10.23855 -10.23512 -10.23340 -10.23053 -10.22440
 Alpha  occ. eigenvalues --  -10.21857 -10.21823 -10.21649 -10.21643 -10.21534
 Alpha  occ. eigenvalues --  -10.21132 -10.20814 -10.20682 -10.20525 -10.20449
 Alpha  occ. eigenvalues --  -10.20147 -10.19910 -10.19714 -10.19640 -10.19595
 Alpha  occ. eigenvalues --  -10.19519 -10.19441 -10.19161 -10.19113 -10.18371
 Alpha  occ. eigenvalues --  -10.17860 -10.16982 -10.16395  -1.12514  -1.08677
 Alpha  occ. eigenvalues --   -1.04492  -1.01730  -0.99999  -0.99194  -0.97520
 Alpha  occ. eigenvalues --   -0.96846  -0.96534  -0.91424  -0.83424  -0.82808
 Alpha  occ. eigenvalues --   -0.82412  -0.81835  -0.79718  -0.79294  -0.79180
 Alpha  occ. eigenvalues --   -0.77764  -0.76462  -0.74964  -0.74180  -0.73032
 Alpha  occ. eigenvalues --   -0.72840  -0.70928  -0.70587  -0.69312  -0.68210
 Alpha  occ. eigenvalues --   -0.67845  -0.65967  -0.65366  -0.63781  -0.62975
 Alpha  occ. eigenvalues --   -0.61062  -0.59380  -0.59009  -0.58401  -0.57434
 Alpha  occ. eigenvalues --   -0.56813  -0.55848  -0.54892  -0.54415  -0.53807
 Alpha  occ. eigenvalues --   -0.53682  -0.52407  -0.51103  -0.50379  -0.49722
 Alpha  occ. eigenvalues --   -0.49230  -0.48972  -0.48800  -0.48117  -0.47771
 Alpha  occ. eigenvalues --   -0.47264  -0.46795  -0.46560  -0.46245  -0.45858
 Alpha  occ. eigenvalues --   -0.45188  -0.44547  -0.44328  -0.44148  -0.43939
 Alpha  occ. eigenvalues --   -0.43759  -0.43522  -0.43244  -0.42830  -0.42307
 Alpha  occ. eigenvalues --   -0.42158  -0.41762  -0.41526  -0.41274  -0.41051
 Alpha  occ. eigenvalues --   -0.40857  -0.40693  -0.40461  -0.40227  -0.39527
 Alpha  occ. eigenvalues --   -0.39270  -0.39078  -0.38900  -0.38698  -0.38553
 Alpha  occ. eigenvalues --   -0.38188  -0.37478  -0.37096  -0.36851  -0.36478
 Alpha  occ. eigenvalues --   -0.36251  -0.36050  -0.35091  -0.34878  -0.34561
 Alpha  occ. eigenvalues --   -0.34090  -0.33914  -0.33625  -0.32813  -0.32526
 Alpha  occ. eigenvalues --   -0.32001  -0.31159  -0.30946  -0.29968  -0.29862
 Alpha  occ. eigenvalues --   -0.27423  -0.27256  -0.26634  -0.26388  -0.26195
 Alpha  occ. eigenvalues --   -0.25446  -0.24739  -0.23375  -0.23225  -0.21176
 Alpha  occ. eigenvalues --   -0.17978
 Alpha virt. eigenvalues --   -0.10837  -0.06226  -0.04381  -0.02700  -0.01307
 Alpha virt. eigenvalues --    0.01022   0.02072   0.02585   0.03152   0.03558
 Alpha virt. eigenvalues --    0.04583   0.04858   0.05160   0.05955   0.06192

 Mulliken charges:
               1
     1  O   -0.201925
     2  O   -0.121722
     3  O   -0.204114
     4  O   -0.243909
     5  O   -0.315434
     6  O   -0.224613
     7  N   -0.079303
     8  N   -0.125599
     9  N   -0.079521
    10  N   -0.267586
    11  C   -0.112177
    12  C    0.027770
    13  C   -0.218404
    14  C    0.084352
    15  C   -0.032982
    16  C    0.140361
    17  C   -0.111307
    18  C   -0.145519
    19  C    0.175641
    20  C   -0.126936
    21  C    0.086069
    22  C    0.125627
    23  C    0.055918
    24  C    0.099616
    25  C   -0.134660
    26  C    0.171098
    27  C    0.106323
    28  C    0.109000
    29  C   -0.081043
    30  C    0.169695
    31  C   -0.130104
    32  C    0.016947
    33  C   -0.223854
    34  C    0.052368
    35  C   -0.024511
    36  C   -0.182254
    37  C    0.097117
    38  C    0.135642
    39  C    0.189866
    40  C    0.026780
    41  C    0.102488
    42  C   -0.007502
    43  C    0.028923
    44  H    0.130896
    45  H    0.041797
    46  H   -0.027621
    47  H    0.028753
    48  H    0.048217
    49  H    0.023450
    50  H    0.043751
    51  H    0.058341
    52  H    0.132698
    53  H    0.025357
    54  H   -0.004284
    55  H    0.004788
    56  H    0.127542
    57  H   -0.053246
    58  H    0.055686
    59  H    0.063691
    60  H    0.045198
    61  H    0.037531
    62  H   -0.074412
    63  H    0.012792
    64  H   -0.012077
    65  H    0.036987
    66  H    0.037197
    67  H    0.016026
    68  H    0.017197
    69  H    0.038973
    70  H   -0.010360
    71  H    0.015021
    72  H   -0.016303
    73  H    0.025050
    74  H    0.037873
    75  H    0.023261
    76  H    0.040685
    77  H   -0.008851
    78  H    0.022770
    79  H    0.045725
    80  H    0.136028
    81  H    0.227250
 Sum of Mulliken charges =  -0.00000

 Dipole moment (field-independent basis, Debye):
    X=             -2.8447    Y=             -1.1334    Z=             -0.5996  Tot=              3.1203
 Quadrupole moment (field-independent basis, Debye-Ang):
   XX=           -248.2367   YY=           -237.3717   ZZ=           -255.1631
   XY=             14.7391   XZ=             19.1838   YZ=            -16.0785

 Normal termination of Gaussian 16 at Sat Jun 29 21:28:08 2019.
