 Gaussian 16, Revision A.03,
 Gaussian 16:  ES64L-G16RevA.03 25-Dec-2016

 --------------------------
 # td=(NStates=1) B3LYP/SVP
 --------------------------

 --
 TD
 --
 Symbolic Z-matrix:
 Charge =  0 Multiplicity = 1

                         Standard orientation:
 ---------------------------------------------------------------------
 Center     Atomic      Atomic             Coordinates (Angstroms)
 Number     Number       Type             X           Y           Z
 ---------------------------------------------------------------------
      1          8           0        4.645949   -4.718011   -1.756828
      2          8           0       -2.901460   -4.878070   -1.266853
      3          8           0       -7.120810   -1.677871   -1.830617
      4          8           0       -3.661986   -3.111577   -0.090095
      5          8           0       -7.599902   -0.642767    0.148576
      6          8           0        3.018525    2.393523    0.088769
      7          7           0        0.312498   -0.577953    0.600404
      8          7           0       -1.634972    1.838050    0.571509
      9          7           0        3.547641   -3.162759   -0.575101
     10          7           0        0.745974    2.838949    0.071676
     11          6           0       -0.556384   -2.443158    1.327063
     12          6           0       -0.899431   -1.159242    0.872716
     13          6           0        0.815708   -2.587554    1.199325
     14          6           0        1.381370   -1.437066    0.770081
     15          6           0       -3.747802    1.403723    0.344843
     16          6           0       -2.519361    0.783065    0.658490
     17          6           0       -2.232100   -0.535873    0.941171
     18          6           0       -3.611234    2.674696    0.021177
     19          6           0       -1.583943   -3.469178    1.865900
     20          6           0        5.737294   -2.493441   -1.340512
     21          6           0        3.734366   -1.834439   -0.120512
     22          6           0       -2.143374    2.965459    0.104052
     23          6           0        5.049156   -1.394920   -0.442006
     24          6           0       -5.142969    0.679659    0.393569
     25          6           0        2.598246   -1.068388    0.306619
     26          6           0        1.582273   -3.867811    1.649870
     27          6           0        4.642358   -3.569806   -1.299744
     28          6           0       -1.998517   -4.535622    0.830556
     29          6           0       -5.446545   -0.132786   -0.896269
     30          6           0       -4.666760    3.705438   -0.366789
     31          6           0       -1.315751    4.057548   -0.165268
     32          6           0        7.039350   -3.059968   -0.783673
     33          6           0        5.638401   -0.324689    0.053626
     34          6           0        0.027879    3.958245   -0.146761
     35          6           0        0.961613    5.159322   -0.516582
     36          6           0        2.174401    4.612379   -0.452060
     37          6           0       -2.962460   -4.061149   -0.224791
     38          6           0        5.257057    0.536467    1.205590
     39          6           0       -6.892713   -0.762772   -0.747281
     40          6           0        3.503584    5.325097   -0.556236
     41          6           0        1.995689    3.156429   -0.043813
     42          6           0        0.470011    6.612937   -0.774263
     43          6           0        4.088150    5.751377    0.855080
     44          1           0        0.362642    0.332986    0.220800
     45          1           0       -2.960446   -1.220645    1.298697
     46          1           0       -2.543526   -2.962089    2.083467
     47          1           0       -1.379579   -4.079764    2.660826
     48          1           0        5.824655   -2.375887   -2.500469
     49          1           0       -5.154328   -0.067054    1.250745
     50          1           0       -5.991828    1.232813    0.642511
     51          1           0        3.018645   -0.024509    0.400466
     52          1           0       -0.514405    1.963119    0.579705
     53          1           0        1.493229   -4.773312    1.017776
     54          1           0        2.513594   -3.574671    2.108567
     55          1           0        1.044003   -4.508167    2.312643
     56          1           0        2.702232   -3.556774   -0.696230
     57          1           0       -1.268896   -5.128673    0.185831
     58          1           0       -2.543354   -5.408053    1.288364
     59          1           0       -4.836699   -1.027310   -1.239774
     60          1           0       -5.390768    0.759879   -1.701789
     61          1           0       -4.893982    4.665847    0.555885
     62          1           0       -5.608899    3.321107   -0.714954
     63          1           0       -4.146055    4.502824   -1.395785
     64          1           0       -1.812774    5.142306   -0.478979
     65          1           0        7.771032   -2.217369   -0.992541
     66          1           0        7.396700   -4.035273   -1.314746
     67          1           0        6.993487   -3.326334    0.319793
     68          1           0        6.832012   -0.227339   -0.139646
     69          1           0        4.956476    1.371700    0.524899
     70          1           0        6.222288    0.759381    1.792744
     71          1           0        4.606337    0.268272    1.962228
     72          1           0        3.317815    6.109584   -1.390155
     73          1           0        4.159810    4.605564   -0.958006
     74          1           0       -0.085510    6.799849   -1.600418
     75          1           0        1.430911    7.261010   -0.530712
     76          1           0       -0.115794    6.831730    0.186966
     77          1           0        3.346161    6.585826    1.147370
     78          1           0        5.084272    6.236956    0.771257
     79          1           0        4.279389    4.950891    1.554468
     80          1           0       -3.671662   -4.474166   -1.768778
     81          1           0       -8.143064   -2.053967   -1.605061
 ---------------------------------------------------------------------

 SCF Done:  E(RB3LYP) =  -1949.06835740     A.U. after   17 cycles

 Excitation energies and oscillator strengths:

 Excited State   1:      Singlet-A      1.9023 eV  651.76 nm  f=0.4415  <S**2>=0.000
     156 ->157         0.70930
     156 <-157        -0.11375
 This state for optimization and/or second-order correction.
 Total Energy, E(TD-HF/TD-DFT) =  -1948.99844942
 Copying the excited state density for this state as the 1-particle RhoCI density.

 The electronic state is 1-A.
 Alpha  occ. eigenvalues --  -19.20502 -19.17632 -19.14585 -19.14430 -19.09888
 Alpha  occ. eigenvalues --  -19.08481 -14.36698 -14.35983 -14.35821 -14.29769
 Alpha  occ. eigenvalues --  -10.32723 -10.32123 -10.28365 -10.25631 -10.24526
 Alpha  occ. eigenvalues --  -10.24270 -10.24154 -10.23382 -10.23097 -10.22925
 Alpha  occ. eigenvalues --  -10.22722 -10.22113 -10.22100 -10.21997 -10.21451
 Alpha  occ. eigenvalues --  -10.21118 -10.20824 -10.20402 -10.20378 -10.20292
 Alpha  occ. eigenvalues --  -10.20276 -10.20104 -10.20080 -10.19821 -10.19681
 Alpha  occ. eigenvalues --  -10.19477 -10.19303 -10.19040 -10.18603 -10.18577
 Alpha  occ. eigenvalues --  -10.18570 -10.17947 -10.17853  -1.12830  -1.10229
 Alpha  occ. eigenvalues --   -1.03699  -1.02420  -0.99793  -0.99203  -0.98807
 Alpha  occ. eigenvalues --   -0.98447  -0.94355  -0.92162  -0.82621  -0.82413
 Alpha  occ. eigenvalues --   -0.81949  -0.81170  -0.79362  -0.79177  -0.77979
 Alpha  occ. eigenvalues --   -0.77100  -0.76409  -0.75364  -0.73604  -0.72509
 Alpha  occ. eigenvalues --   -0.70882  -0.69947  -0.69319  -0.68746  -0.67422
 Alpha  occ. eigenvalues --   -0.66078  -0.65596  -0.65337  -0.62466  -0.61585
 Alpha  occ. eigenvalues --   -0.59917  -0.59186  -0.58109  -0.57128  -0.56708
 Alpha  occ. eigenvalues --   -0.55921  -0.55330  -0.54566  -0.53821  -0.53434
 Alpha  occ. eigenvalues --   -0.52676  -0.52124  -0.51342  -0.51099  -0.49715
 Alpha  occ. eigenvalues --   -0.49169  -0.48991  -0.48693  -0.48176  -0.47251
 Alpha  occ. eigenvalues --   -0.46905  -0.46719  -0.46070  -0.45822  -0.45733
 Alpha  occ. eigenvalues --   -0.45374  -0.45005  -0.44715  -0.43892  -0.43591
 Alpha  occ. eigenvalues --   -0.43427  -0.43195  -0.43025  -0.42807  -0.42407
 Alpha  occ. eigenvalues --   -0.42259  -0.41673  -0.41428  -0.40972  -0.40874
 Alpha  occ. eigenvalues --   -0.40709  -0.40171  -0.39868  -0.39408  -0.38870
 Alpha  occ. eigenvalues --   -0.38851  -0.38411  -0.38102  -0.37997  -0.37470
 Alpha  occ. eigenvalues --   -0.37182  -0.36980  -0.36808  -0.36615  -0.36175
 Alpha  occ. eigenvalues --   -0.36142  -0.35422  -0.35245  -0.34907  -0.34748
 Alpha  occ. eigenvalues --   -0.34499  -0.33973  -0.33596  -0.33280  -0.33074
 Alpha  occ. eigenvalues --   -0.32511  -0.32382  -0.32197  -0.29990  -0.29516
 Alpha  occ. eigenvalues --   -0.29137  -0.27880  -0.26485  -0.26168  -0.25377
 Alpha  occ. eigenvalues --   -0.25216  -0.24919  -0.24221  -0.23320  -0.21823
 Alpha  occ. eigenvalues --   -0.17894
 Alpha virt. eigenvalues --   -0.10423  -0.05612  -0.03764  -0.00108   0.00182
 Alpha virt. eigenvalues --    0.00473   0.01738   0.02139   0.02717   0.02906
 Alpha virt. eigenvalues --    0.03570   0.04324   0.04616   0.04739   0.05945

 Mulliken charges:
               1
     1  O   -0.239042
     2  O   -0.159974
     3  O   -0.318864
     4  O   -0.209457
     5  O   -0.148099
     6  O   -0.297061
     7  N   -0.047955
     8  N   -0.114930
     9  N   -0.040129
    10  N   -0.211991
    11  C   -0.063078
    12  C   -0.016654
    13  C   -0.188693
    14  C    0.166115
    15  C   -0.056072
    16  C    0.135282
    17  C   -0.014103
    18  C   -0.055865
    19  C    0.205387
    20  C   -0.038626
    21  C    0.015690
    22  C    0.052221
    23  C    0.023245
    24  C    0.099070
    25  C   -0.106551
    26  C    0.126494
    27  C    0.069696
    28  C   -0.069357
    29  C   -0.083116
    30  C   -0.058256
    31  C   -0.169340
    32  C    0.000495
    33  C   -0.211642
    34  C    0.065578
    35  C   -0.105530
    36  C   -0.206196
    37  C    0.095459
    38  C    0.062244
    39  C    0.162411
    40  C    0.081771
    41  C    0.129549
    42  C    0.109277
    43  C    0.001460
    44  H    0.106220
    45  H   -0.011370
    46  H    0.006369
    47  H   -0.027095
    48  H    0.062200
    49  H    0.009934
    50  H   -0.000330
    51  H    0.030556
    52  H    0.187745
    53  H    0.005549
    54  H    0.039611
    55  H   -0.034470
    56  H    0.091151
    57  H    0.034381
    58  H    0.037735
    59  H    0.069609
    60  H    0.054694
    61  H    0.057857
    62  H    0.034383
    63  H    0.035138
    64  H    0.023808
    65  H    0.030323
    66  H    0.051262
    67  H    0.031053
    68  H    0.032198
    69  H    0.092851
    70  H    0.012721
    71  H    0.016263
    72  H    0.016367
    73  H   -0.014114
    74  H    0.020025
    75  H    0.033293
    76  H    0.027449
    77  H    0.016173
    78  H    0.010566
    79  H    0.033195
    80  H    0.184924
    81  H    0.220913
 Sum of Mulliken charges =  -0.00000

 Dipole moment (field-independent basis, Debye):
    X=             -3.0120    Y=              0.1771    Z=              0.6481  Tot=              3.0860
 Quadrupole moment (field-independent basis, Debye-Ang):
   XX=           -242.9775   YY=           -242.8590   ZZ=           -256.1022
   XY=             17.3875   XZ=             13.7858   YZ=            -13.3018

 Normal termination of Gaussian 16 at Thu Jun 27 10:38:39 2019.
