 Gaussian 16, Revision A.03,
 Gaussian 16:  ES64L-G16RevA.03 25-Dec-2016

 --------------------------
 # td=(NStates=1) B3LYP/SVP
 --------------------------

 --
 TD
 --
 Symbolic Z-matrix:
 Charge =  0 Multiplicity = 1

                         Standard orientation:
 ---------------------------------------------------------------------
 Center     Atomic      Atomic             Coordinates (Angstroms)
 Number     Number       Type             X           Y           Z
 ---------------------------------------------------------------------
      1          8           0       -4.432303   -4.612109    1.847049
      2          8           0        2.748546   -4.671964    1.516032
      3          8           0        7.007212   -1.532758    1.847140
      4          8           0        3.659939   -2.968892    0.168715
      5          8           0        7.408342   -0.776625   -0.224133
      6          8           0       -2.922375    2.440208   -0.184727
      7          7           0       -0.249237   -0.510901   -0.744152
      8          7           0        1.551894    1.803539   -0.490632
      9          7           0       -3.422302   -3.079688    0.628574
     10          7           0       -0.787910    2.959758   -0.164460
     11          6           0        0.676526   -2.445741   -1.301930
     12          6           0        0.967412   -1.130894   -0.946500
     13          6           0       -0.729009   -2.664707   -1.280740
     14          6           0       -1.285916   -1.453203   -0.835694
     15          6           0        3.729686    1.444513   -0.417985
     16          6           0        2.533311    0.862753   -0.583140
     17          6           0        2.200938   -0.477337   -0.926970
     18          6           0        3.604525    2.819645   -0.051310
     19          6           0        1.724453   -3.504448   -1.799432
     20          6           0       -5.558971   -2.601438    1.326861
     21          6           0       -3.596156   -1.820075    0.083806
     22          6           0        2.153443    2.966402   -0.158847
     23          6           0       -5.015729   -1.439690    0.339028
     24          6           0        5.122746    0.668632   -0.450813
     25          6           0       -2.614426   -1.019982   -0.552463
     26          6           0       -1.364912   -3.921656   -1.810966
     27          6           0       -4.430398   -3.644226    1.283771
     28          6           0        2.009064   -4.523872   -0.678049
     29          6           0        5.438559   -0.120681    0.858649
     30          6           0        4.596009    3.828697    0.376119
     31          6           0        1.297089    4.044147    0.247808
     32          6           0       -6.947381   -3.053460    0.960289
     33          6           0       -5.807064   -0.536214   -0.290660
     34          6           0        0.022496    4.010224    0.204998
     35          6           0       -0.990467    5.122908    0.530161
     36          6           0       -2.213239    4.675916    0.475405
     37          6           0        2.897044   -3.968539    0.301860
     38          6           0       -5.253003    0.608252   -1.251848
     39          6           0        6.665161   -0.822768    0.789369
     40          6           0       -3.614693    5.182516    0.640532
     41          6           0       -2.060948    3.163085   -0.033976
     42          6           0       -0.563602    6.546423    0.786670
     43          6           0       -4.277736    5.369119   -0.713664
     44          1           0       -0.296166    0.338213   -0.033416
     45          1           0        3.009594   -1.111572   -1.039135
     46          1           0        2.589526   -3.106764   -2.124902
     47          1           0        1.429404   -4.035284   -2.558485
     48          1           0       -5.785186   -2.309844    2.417121
     49          1           0        5.051116    0.128048   -1.220422
     50          1           0        5.898811    1.363570   -0.451960
     51          1           0       -2.699568    0.012325   -0.653134
     52          1           0        0.497444    1.728238   -0.806582
     53          1           0       -1.443016   -4.974369   -1.195413
     54          1           0       -2.361257   -3.786804   -2.170029
     55          1           0       -0.722574   -4.293015   -2.821007
     56          1           0       -2.515697   -3.757932    0.394408
     57          1           0        1.170736   -5.051264   -0.339806
     58          1           0        2.556757   -5.379569   -1.261563
     59          1           0        4.539326   -0.913902    0.889554
     60          1           0        5.110572    0.472123    1.776822
     61          1           0        4.462753    4.667750   -0.294874
     62          1           0        5.552793    3.567491   -0.087726
     63          1           0        4.640181    4.103833    1.441629
     64          1           0        1.689649    5.108798    0.698246
     65          1           0       -7.825032   -2.373519    1.087289
     66          1           0       -7.145135   -3.893186    1.754688
     67          1           0       -7.072950   -3.511475    0.074121
     68          1           0       -6.813677   -0.490480    0.075951
     69          1           0       -4.995030    1.495455   -0.466451
     70          1           0       -6.217900    0.952530   -1.670732
     71          1           0       -4.440904    0.257107   -1.857549
     72          1           0       -3.587711    5.893034    1.291923
     73          1           0       -4.064323    4.203614    1.207950
     74          1           0        0.426802    6.454834    1.425464
     75          1           0       -1.449089    7.212045    1.192592
     76          1           0       -0.097813    6.887502   -0.348189
     77          1           0       -3.778845    6.072994   -1.382151
     78          1           0       -5.459484    5.616115   -0.535071
     79          1           0       -4.235043    4.411905   -1.304642
     80          1           0        3.321625   -4.341433    2.237448
     81          1           0        7.768439   -1.834747    1.570074
 ---------------------------------------------------------------------

 SCF Done:  E(RB3LYP) =  -1949.01008950     A.U. after   19 cycles

 Excitation energies and oscillator strengths:

 Excited State   1:      Singlet-A      1.9039 eV  651.23 nm  f=0.3651  <S**2>=0.000
     156 ->157         0.70052
     156 <-157        -0.11856
 This state for optimization and/or second-order correction.
 Total Energy, E(TD-HF/TD-DFT) =  -1948.94012426
 Copying the excited state density for this state as the 1-particle RhoCI density.

 The electronic state is 1-A.
 Alpha  occ. eigenvalues --  -19.19649 -19.18471 -19.15511 -19.11838 -19.11652
 Alpha  occ. eigenvalues --  -19.08107 -14.38573 -14.38103 -14.35911 -14.25711
 Alpha  occ. eigenvalues --  -10.35018 -10.31924 -10.28766 -10.26078 -10.24646
 Alpha  occ. eigenvalues --  -10.23935 -10.23427 -10.23363 -10.22898 -10.22679
 Alpha  occ. eigenvalues --  -10.22488 -10.21517 -10.21360 -10.21158 -10.20886
 Alpha  occ. eigenvalues --  -10.20746 -10.20706 -10.20357 -10.20356 -10.20302
 Alpha  occ. eigenvalues --  -10.20261 -10.20211 -10.20001 -10.19743 -10.19148
 Alpha  occ. eigenvalues --  -10.18977 -10.18531 -10.18358 -10.17935 -10.17818
 Alpha  occ. eigenvalues --  -10.17177 -10.16892 -10.15076  -1.13173  -1.09513
 Alpha  occ. eigenvalues --   -1.08492  -1.04183  -1.00808  -0.99203  -0.99136
 Alpha  occ. eigenvalues --   -0.98102  -0.96986  -0.90224  -0.83801  -0.82131
 Alpha  occ. eigenvalues --   -0.81566  -0.80532  -0.79519  -0.78935  -0.78344
 Alpha  occ. eigenvalues --   -0.77762  -0.76788  -0.74865  -0.73664  -0.72615
 Alpha  occ. eigenvalues --   -0.72277  -0.70500  -0.69786  -0.69196  -0.68173
 Alpha  occ. eigenvalues --   -0.66500  -0.65114  -0.64150  -0.62665  -0.61063
 Alpha  occ. eigenvalues --   -0.60663  -0.60243  -0.58904  -0.57808  -0.57552
 Alpha  occ. eigenvalues --   -0.57113  -0.55728  -0.54666  -0.54155  -0.53761
 Alpha  occ. eigenvalues --   -0.53003  -0.51108  -0.50983  -0.50783  -0.50372
 Alpha  occ. eigenvalues --   -0.49417  -0.49328  -0.49031  -0.48819  -0.48427
 Alpha  occ. eigenvalues --   -0.47832  -0.46998  -0.46056  -0.45672  -0.45612
 Alpha  occ. eigenvalues --   -0.45094  -0.44968  -0.44393  -0.44012  -0.43791
 Alpha  occ. eigenvalues --   -0.43379  -0.43151  -0.43037  -0.42688  -0.42416
 Alpha  occ. eigenvalues --   -0.42266  -0.41685  -0.41639  -0.41274  -0.41020
 Alpha  occ. eigenvalues --   -0.40920  -0.40654  -0.40353  -0.40091  -0.39955
 Alpha  occ. eigenvalues --   -0.38975  -0.38707  -0.38500  -0.38371  -0.38013
 Alpha  occ. eigenvalues --   -0.37808  -0.37569  -0.37294  -0.37144  -0.36837
 Alpha  occ. eigenvalues --   -0.36666  -0.35944  -0.35852  -0.35486  -0.35140
 Alpha  occ. eigenvalues --   -0.34215  -0.33961  -0.33698  -0.33438  -0.32579
 Alpha  occ. eigenvalues --   -0.31878  -0.31567  -0.31465  -0.30707  -0.30150
 Alpha  occ. eigenvalues --   -0.27821  -0.27180  -0.26699  -0.26425  -0.25558
 Alpha  occ. eigenvalues --   -0.25187  -0.24374  -0.22390  -0.21116  -0.20884
 Alpha  occ. eigenvalues --   -0.18154
 Alpha virt. eigenvalues --   -0.10715  -0.05179  -0.04386  -0.02323  -0.00936
 Alpha virt. eigenvalues --    0.00666   0.01036   0.02556   0.02982   0.03965
 Alpha virt. eigenvalues --    0.04361   0.04759   0.05441   0.05782   0.06495

 Mulliken charges:
               1
     1  O   -0.100495
     2  O   -0.232623
     3  O   -0.069067
     4  O   -0.257053
     5  O   -0.291580
     6  O   -0.140745
     7  N   -0.145383
     8  N   -0.107237
     9  N   -0.143869
    10  N   -0.273277
    11  C   -0.111914
    12  C    0.063637
    13  C   -0.099229
    14  C    0.073014
    15  C   -0.157049
    16  C    0.067818
    17  C   -0.010603
    18  C   -0.158368
    19  C    0.290158
    20  C   -0.128244
    21  C    0.116097
    22  C    0.080681
    23  C    0.000255
    24  C    0.290357
    25  C   -0.077851
    26  C   -0.049389
    27  C    0.080916
    28  C   -0.000177
    29  C   -0.097671
    30  C    0.158241
    31  C   -0.189922
    32  C    0.039531
    33  C   -0.147528
    34  C    0.133917
    35  C   -0.093832
    36  C   -0.258524
    37  C    0.197024
    38  C    0.046160
    39  C    0.165851
    40  C    0.169469
    41  C    0.035643
    42  C   -0.012269
    43  C   -0.014674
    44  H    0.190061
    45  H   -0.039524
    46  H   -0.029652
    47  H   -0.079252
    48  H    0.048894
    49  H   -0.049765
    50  H   -0.020394
    51  H   -0.003193
    52  H    0.179694
    53  H    0.052022
    54  H    0.028085
    55  H    0.046722
    56  H    0.182144
    57  H    0.014805
    58  H    0.063671
    59  H    0.074259
    60  H    0.047311
    61  H    0.005223
    62  H   -0.003532
    63  H    0.050340
    64  H   -0.001559
    65  H    0.026776
    66  H    0.020858
    67  H   -0.023485
    68  H   -0.010039
    69  H    0.101194
    70  H    0.011215
    71  H    0.044909
    72  H   -0.072603
    73  H    0.020477
    74  H    0.030937
    75  H    0.048140
    76  H    0.039521
    77  H    0.011445
    78  H    0.020481
    79  H    0.029507
    80  H    0.195790
    81  H    0.108320
 Sum of Mulliken charges =  -0.00000

 Dipole moment (field-independent basis, Debye):
    X=              1.9339    Y=             -3.6477    Z=              0.2557  Tot=              4.1365
 Quadrupole moment (field-independent basis, Debye-Ang):
   XX=           -255.7322   YY=           -244.1765   ZZ=           -252.2447
   XY=             -4.8738   XZ=             15.4554   YZ=             13.1316

 Normal termination of Gaussian 16 at Wed Jul  3 23:10:44 2019.
