 Gaussian 16, Revision A.03,
 Gaussian 16:  ES64L-G16RevA.03 25-Dec-2016

 --------------------------
 # td=(NStates=1) B3LYP/SVP
 --------------------------

 --
 TD
 --
 Symbolic Z-matrix:
 Charge =  0 Multiplicity = 1

                         Standard orientation:
 ---------------------------------------------------------------------
 Center     Atomic      Atomic             Coordinates (Angstroms)
 Number     Number       Type             X           Y           Z
 ---------------------------------------------------------------------
      1          8           0        4.332637   -4.849621   -1.830440
      2          8           0       -3.008465   -4.940029   -1.130842
      3          8           0       -6.970186   -1.706743   -1.755151
      4          8           0       -3.659381   -3.120311   -0.093727
      5          8           0       -7.643762   -0.686535    0.100201
      6          8           0        3.021092    2.387310    0.229092
      7          7           0        0.249648   -0.534719    0.505076
      8          7           0       -1.537073    1.914717    0.298909
      9          7           0        3.237650   -3.154113   -0.524366
     10          7           0        0.692542    2.926880   -0.038611
     11          6           0       -0.592413   -2.463287    1.411185
     12          6           0       -0.915579   -1.116971    0.988217
     13          6           0        0.840719   -2.586525    1.350135
     14          6           0        1.365639   -1.365490    0.771922
     15          6           0       -3.741707    1.500685    0.225641
     16          6           0       -2.539283    0.785664    0.443226
     17          6           0       -2.144701   -0.474887    0.848579
     18          6           0       -3.477811    2.832746   -0.014404
     19          6           0       -1.631145   -3.431196    1.945504
     20          6           0        5.433083   -2.672971   -1.353247
     21          6           0        3.545301   -1.841766   -0.098231
     22          6           0       -2.086735    3.071388    0.015059
     23          6           0        5.011716   -1.618157   -0.447498
     24          6           0       -5.073196    0.723670    0.295242
     25          6           0        2.629707   -0.959240    0.475190
     26          6           0        1.594325   -3.670985    1.948409
     27          6           0        4.276416   -3.700500   -1.370641
     28          6           0       -1.971564   -4.571095    1.031561
     29          6           0       -5.365438   -0.195404   -0.940016
     30          6           0       -4.519904    3.919839   -0.349127
     31          6           0       -1.303836    4.214176   -0.224475
     32          6           0        6.840134   -3.361162   -1.240134
     33          6           0        5.785354   -0.661733    0.042219
     34          6           0        0.035289    4.067987   -0.253092
     35          6           0        0.924322    5.251804   -0.514416
     36          6           0        2.156683    4.676199   -0.403216
     37          6           0       -2.878923   -4.085713   -0.117109
     38          6           0        5.558777    0.434403    0.979614
     39          6           0       -6.784090   -0.803586   -0.833149
     40          6           0        3.517949    5.360942   -0.381416
     41          6           0        2.083170    3.106069   -0.073908
     42          6           0        0.644034    6.718926   -0.641689
     43          6           0        4.145442    5.639899    0.996878
     44          1           0        0.488247    0.312837    0.316128
     45          1           0       -2.961524   -1.034057    1.036411
     46          1           0       -2.553718   -2.982476    2.412046
     47          1           0       -1.125499   -3.996416    2.621543
     48          1           0        5.416483   -2.241159   -2.336133
     49          1           0       -5.053170    0.103000    1.157146
     50          1           0       -5.747966    1.752595    0.519536
     51          1           0        3.048949    0.026843    0.745442
     52          1           0       -0.531668    1.830032    0.311423
     53          1           0        1.554165   -4.645212    1.248928
     54          1           0        2.569026   -3.330727    2.380031
     55          1           0        1.220710   -4.123448    2.887420
     56          1           0        2.364015   -3.446281   -0.613559
     57          1           0       -0.989425   -5.037191    0.598336
     58          1           0       -2.704683   -5.216207    1.680440
     59          1           0       -4.559615   -1.021828   -0.926519
     60          1           0       -5.349314    0.431713   -1.719974
     61          1           0       -4.163244    4.852780    0.160683
     62          1           0       -5.393009    3.759562    0.177659
     63          1           0       -4.487063    3.978812   -1.493079
     64          1           0       -1.799297    5.207137   -0.478138
     65          1           0        7.460093   -2.516232   -1.395420
     66          1           0        7.074300   -4.116701   -1.861927
     67          1           0        6.942971   -3.795924   -0.313719
     68          1           0        6.875472   -0.671741   -0.398360
     69          1           0        5.238473    1.462288    0.772268
     70          1           0        6.454298    0.753513    1.487969
     71          1           0        4.738387    0.203586    1.859821
     72          1           0        3.517062    6.229918   -1.104846
     73          1           0        4.129598    4.581764   -0.995737
     74          1           0        0.228013    6.694476   -1.737118
     75          1           0        1.539549    7.285823   -0.742054
     76          1           0       -0.124336    7.055371    0.113137
     77          1           0        3.508340    6.406182    1.613074
     78          1           0        5.381002    5.917523    0.839056
     79          1           0        4.166913    4.755686    1.594225
     80          1           0       -3.709932   -4.569888   -1.654635
     81          1           0       -7.907862   -1.940243   -1.678489
 ---------------------------------------------------------------------

 SCF Done:  E(RB3LYP) =  -1949.10828723     A.U. after   16 cycles

 Excitation energies and oscillator strengths:

 Excited State   1:      Singlet-A      2.0527 eV  604.01 nm  f=0.4255  <S**2>=0.000
     156 ->157         0.70484
     156 <-157        -0.10174
 This state for optimization and/or second-order correction.
 Total Energy, E(TD-HF/TD-DFT) =  -1949.03285230
 Copying the excited state density for this state as the 1-particle RhoCI density.

 The electronic state is 1-A.
 Alpha  occ. eigenvalues --  -19.19761 -19.19223 -19.14200 -19.12304 -19.11928
 Alpha  occ. eigenvalues --  -19.10869 -14.36952 -14.36858 -14.34052 -14.27868
 Alpha  occ. eigenvalues --  -10.33905 -10.32375 -10.30359 -10.26812 -10.25279
 Alpha  occ. eigenvalues --  -10.24201 -10.23820 -10.23760 -10.23094 -10.22998
 Alpha  occ. eigenvalues --  -10.21840 -10.21291 -10.20977 -10.20931 -10.20919
 Alpha  occ. eigenvalues --  -10.20898 -10.20874 -10.20714 -10.20644 -10.20626
 Alpha  occ. eigenvalues --  -10.20379 -10.20129 -10.19894 -10.19815 -10.19460
 Alpha  occ. eigenvalues --  -10.19390 -10.18820 -10.18810 -10.18658 -10.18378
 Alpha  occ. eigenvalues --  -10.17966 -10.17591 -10.17547  -1.12277  -1.11356
 Alpha  occ. eigenvalues --   -1.02646  -1.01082  -1.00770  -0.98279  -0.97460
 Alpha  occ. eigenvalues --   -0.96831  -0.95198  -0.90833  -0.83786  -0.83089
 Alpha  occ. eigenvalues --   -0.82378  -0.81287  -0.79469  -0.78593  -0.78264
 Alpha  occ. eigenvalues --   -0.77247  -0.76778  -0.75587  -0.73756  -0.72612
 Alpha  occ. eigenvalues --   -0.71371  -0.71121  -0.69719  -0.68276  -0.67966
 Alpha  occ. eigenvalues --   -0.66790  -0.66268  -0.65419  -0.62632  -0.62131
 Alpha  occ. eigenvalues --   -0.61164  -0.59873  -0.59233  -0.58494  -0.57649
 Alpha  occ. eigenvalues --   -0.56280  -0.55737  -0.54213  -0.53604  -0.53260
 Alpha  occ. eigenvalues --   -0.52221  -0.51894  -0.50860  -0.50507  -0.49904
 Alpha  occ. eigenvalues --   -0.49558  -0.49260  -0.48773  -0.48397  -0.48104
 Alpha  occ. eigenvalues --   -0.47268  -0.46511  -0.46075  -0.46001  -0.45606
 Alpha  occ. eigenvalues --   -0.45196  -0.44995  -0.44565  -0.44395  -0.43945
 Alpha  occ. eigenvalues --   -0.43640  -0.43266  -0.43181  -0.42586  -0.42455
 Alpha  occ. eigenvalues --   -0.41951  -0.41727  -0.41587  -0.41209  -0.40962
 Alpha  occ. eigenvalues --   -0.40810  -0.40394  -0.40127  -0.39701  -0.39352
 Alpha  occ. eigenvalues --   -0.39260  -0.39124  -0.38503  -0.38269  -0.38117
 Alpha  occ. eigenvalues --   -0.38064  -0.37563  -0.37509  -0.37293  -0.37125
 Alpha  occ. eigenvalues --   -0.37013  -0.36860  -0.36201  -0.35682  -0.35170
 Alpha  occ. eigenvalues --   -0.34575  -0.33617  -0.33394  -0.32976  -0.32694
 Alpha  occ. eigenvalues --   -0.32458  -0.31170  -0.31077  -0.30370  -0.29564
 Alpha  occ. eigenvalues --   -0.27410  -0.27308  -0.27279  -0.26160  -0.25480
 Alpha  occ. eigenvalues --   -0.25444  -0.24349  -0.22568  -0.22354  -0.21637
 Alpha  occ. eigenvalues --   -0.18397
 Alpha virt. eigenvalues --   -0.10171  -0.05232  -0.03757  -0.02606  -0.01207
 Alpha virt. eigenvalues --   -0.00839   0.01460   0.02124   0.03618   0.04177
 Alpha virt. eigenvalues --    0.04797   0.05034   0.05797   0.05940   0.06085

 Mulliken charges:
               1
     1  O   -0.221035
     2  O   -0.136349
     3  O   -0.128039
     4  O   -0.269236
     5  O   -0.296107
     6  O   -0.214378
     7  N   -0.012098
     8  N   -0.104896
     9  N   -0.103647
    10  N   -0.332388
    11  C   -0.103433
    12  C    0.095658
    13  C   -0.141954
    14  C    0.092465
    15  C   -0.058949
    16  C    0.063997
    17  C    0.046161
    18  C   -0.208434
    19  C    0.200626
    20  C   -0.054086
    21  C    0.031941
    22  C    0.111226
    23  C    0.021373
    24  C    0.032156
    25  C   -0.102779
    26  C    0.028237
    27  C    0.152206
    28  C   -0.048748
    29  C    0.055960
    30  C    0.134205
    31  C   -0.181426
    32  C    0.160661
    33  C   -0.141114
    34  C    0.122280
    35  C   -0.115294
    36  C   -0.246915
    37  C    0.126503
    38  C    0.026258
    39  C    0.134606
    40  C    0.033914
    41  C    0.205924
    42  C    0.123251
    43  C   -0.014087
    44  H    0.050371
    45  H   -0.076861
    46  H    0.035878
    47  H   -0.046178
    48  H    0.034212
    49  H    0.013300
    50  H    0.038515
    51  H    0.033150
    52  H    0.113148
    53  H    0.033066
    54  H    0.038403
    55  H    0.012416
    56  H    0.088666
    57  H    0.062471
    58  H    0.073732
    59  H    0.089126
    60  H   -0.001315
    61  H    0.013637
    62  H   -0.004091
    63  H    0.055139
    64  H   -0.012566
    65  H    0.001667
    66  H   -0.003144
    67  H   -0.006571
    68  H    0.010229
    69  H    0.057103
    70  H   -0.007285
    71  H    0.033793
    72  H   -0.001652
    73  H    0.012736
    74  H    0.029056
    75  H    0.004660
    76  H    0.044015
    77  H    0.026815
    78  H    0.027820
    79  H    0.015054
    80  H    0.171076
    81  H    0.176190
 Sum of Mulliken charges =  -0.00000

 Dipole moment (field-independent basis, Debye):
    X=             -1.7413    Y=             -1.0714    Z=             -0.2720  Tot=              2.0625
 Quadrupole moment (field-independent basis, Debye-Ang):
   XX=           -254.1260   YY=           -245.5303   ZZ=           -250.6810
   XY=             11.3838   XZ=             15.9595   YZ=            -12.5622

 Normal termination of Gaussian 16 at Fri Jun 28 23:36:31 2019.
