 Gaussian 16, Revision A.03,
 Gaussian 16:  ES64L-G16RevA.03 25-Dec-2016

 --------------------------
 # td=(NStates=1) B3LYP/SVP
 --------------------------

 --
 TD
 --
 Symbolic Z-matrix:
 Charge =  0 Multiplicity = 1

                         Standard orientation:
 ---------------------------------------------------------------------
 Center     Atomic      Atomic             Coordinates (Angstroms)
 Number     Number       Type             X           Y           Z
 ---------------------------------------------------------------------
      1          8           0        4.386193   -4.763412   -1.802989
      2          8           0       -3.119541   -4.867292   -1.332209
      3          8           0       -7.104544   -1.698390   -1.573400
      4          8           0       -3.772738   -3.115675    0.016843
      5          8           0       -7.650574   -0.371773    0.288442
      6          8           0        2.989533    2.331993    0.195635
      7          7           0        0.324110   -0.510377    0.525581
      8          7           0       -1.591363    1.873740    0.190020
      9          7           0        3.515467   -3.066489   -0.582474
     10          7           0        0.749318    2.924174    0.069375
     11          6           0       -0.691087   -2.459287    1.314761
     12          6           0       -0.892062   -1.109415    0.919637
     13          6           0        0.731105   -2.651123    1.168317
     14          6           0        1.350760   -1.430379    0.690036
     15          6           0       -3.817024    1.391366    0.307911
     16          6           0       -2.480921    0.821358    0.474971
     17          6           0       -2.153510   -0.440900    0.853035
     18          6           0       -3.659542    2.730830   -0.004930
     19          6           0       -1.605857   -3.499048    1.725792
     20          6           0        5.527055   -2.608956   -1.411913
     21          6           0        3.689759   -1.840494   -0.112305
     22          6           0       -2.173823    2.997376   -0.035652
     23          6           0        5.108290   -1.462948   -0.421279
     24          6           0       -5.153919    0.613792    0.406181
     25          6           0        2.736966   -0.980075    0.399276
     26          6           0        1.560549   -3.837692    1.786271
     27          6           0        4.448227   -3.643083   -1.303602
     28          6           0       -1.893888   -4.483198    0.727220
     29          6           0       -5.586098    0.015738   -0.854069
     30          6           0       -4.682114    3.755123   -0.211025
     31          6           0       -1.323153    4.111022   -0.349293
     32          6           0        6.924769   -3.096475   -1.036434
     33          6           0        5.804061   -0.566407    0.193504
     34          6           0        0.115413    4.083316   -0.202638
     35          6           0        1.004809    5.134143   -0.569252
     36          6           0        2.249202    4.651251   -0.373604
     37          6           0       -3.012822   -4.055158   -0.182888
     38          6           0        5.462102    0.280301    1.312733
     39          6           0       -6.915707   -0.681528   -0.648247
     40          6           0        3.581591    5.389464   -0.375227
     41          6           0        2.094166    3.197280    0.004346
     42          6           0        0.608292    6.553250   -0.869763
     43          6           0        4.421005    5.401920    0.867181
     44          1           0        0.543124    0.439424    0.200955
     45          1           0       -3.096202   -1.127088    1.050543
     46          1           0       -2.605221   -3.076201    2.117253
     47          1           0       -1.193230   -3.823126    2.554160
     48          1           0        5.360629   -2.285456   -2.298925
     49          1           0       -5.162368   -0.292176    1.144263
     50          1           0       -6.131813    1.134635    0.996676
     51          1           0        2.990662    0.051663    0.518376
     52          1           0       -0.540948    1.888144    0.296966
     53          1           0        1.614683   -4.741675    1.270772
     54          1           0        2.618701   -3.390454    2.019514
     55          1           0        1.241119   -4.057003    2.909391
     56          1           0        2.674145   -3.783978   -0.479195
     57          1           0       -1.071515   -4.701019   -0.193418
     58          1           0       -2.258807   -5.544692    1.156290
     59          1           0       -4.769338   -0.679739   -1.217615
     60          1           0       -5.735358    0.793886   -1.805532
     61          1           0       -4.304901    4.627533    0.235139
     62          1           0       -5.840334    3.552865    0.031034
     63          1           0       -4.469660    4.089767   -1.083144
     64          1           0       -1.833639    5.011372   -0.648887
     65          1           0        7.767605   -2.189668   -1.279717
     66          1           0        7.318648   -3.899384   -1.767157
     67          1           0        7.074874   -3.405415   -0.009523
     68          1           0        6.989781   -0.688413    0.231361
     69          1           0        5.297537    1.336151    1.048021
     70          1           0        6.273415    0.493772    2.314716
     71          1           0        4.522365   -0.113427    1.892844
     72          1           0        3.749411    6.603826   -0.796141
     73          1           0        4.208286    4.728742   -1.034631
     74          1           0        0.101678    6.590970   -1.790711
     75          1           0        1.520689    7.316508   -0.918337
     76          1           0        0.010300    7.098402    0.046234
     77          1           0        3.693997    5.862945    1.753335
     78          1           0        5.335804    5.997748    0.667019
     79          1           0        4.856943    4.396294    1.243527
     80          1           0       -3.936490   -4.375994   -1.741499
     81          1           0       -7.883475   -2.198862   -1.524345
 ---------------------------------------------------------------------

 SCF Done:  E(RB3LYP) =  -1949.04996121     A.U. after   16 cycles

 Excitation energies and oscillator strengths:

 Excited State   1:      Singlet-A      1.9770 eV  627.13 nm  f=0.3342  <S**2>=0.000
     156 ->157         0.70630
 This state for optimization and/or second-order correction.
 Total Energy, E(TD-HF/TD-DFT) =  -1948.97730794
 Copying the excited state density for this state as the 1-particle RhoCI density.

 The electronic state is 1-A.
 Alpha  occ. eigenvalues --  -19.19655 -19.18625 -19.15311 -19.13778 -19.10673
 Alpha  occ. eigenvalues --  -19.09887 -14.38107 -14.37817 -14.35931 -14.28869
 Alpha  occ. eigenvalues --  -10.33894 -10.33345 -10.28447 -10.26528 -10.24464
 Alpha  occ. eigenvalues --  -10.24404 -10.24038 -10.23960 -10.23511 -10.23148
 Alpha  occ. eigenvalues --  -10.22895 -10.21760 -10.21733 -10.21580 -10.21139
 Alpha  occ. eigenvalues --  -10.20867 -10.20782 -10.20637 -10.20572 -10.20454
 Alpha  occ. eigenvalues --  -10.20374 -10.20308 -10.20055 -10.19976 -10.19764
 Alpha  occ. eigenvalues --  -10.19617 -10.19590 -10.19405 -10.19295 -10.19226
 Alpha  occ. eigenvalues --  -10.19209 -10.18942 -10.18698  -1.09395  -1.08697
 Alpha  occ. eigenvalues --   -1.04372  -1.01366  -1.01057  -0.99750  -0.99121
 Alpha  occ. eigenvalues --   -0.97188  -0.96695  -0.92180  -0.84504  -0.82473
 Alpha  occ. eigenvalues --   -0.82267  -0.80877  -0.79466  -0.79138  -0.78424
 Alpha  occ. eigenvalues --   -0.77790  -0.76457  -0.75346  -0.74374  -0.72601
 Alpha  occ. eigenvalues --   -0.71828  -0.69723  -0.68831  -0.68540  -0.67797
 Alpha  occ. eigenvalues --   -0.67351  -0.65873  -0.64784  -0.63354  -0.61458
 Alpha  occ. eigenvalues --   -0.60106  -0.59188  -0.58553  -0.58224  -0.56843
 Alpha  occ. eigenvalues --   -0.56148  -0.55378  -0.54985  -0.53372  -0.52896
 Alpha  occ. eigenvalues --   -0.52203  -0.51387  -0.50943  -0.50582  -0.50241
 Alpha  occ. eigenvalues --   -0.49574  -0.48930  -0.48551  -0.48052  -0.47968
 Alpha  occ. eigenvalues --   -0.47101  -0.46285  -0.45802  -0.45394  -0.45239
 Alpha  occ. eigenvalues --   -0.45046  -0.44621  -0.44319  -0.44254  -0.43572
 Alpha  occ. eigenvalues --   -0.43370  -0.43012  -0.42886  -0.42493  -0.42160
 Alpha  occ. eigenvalues --   -0.42043  -0.41902  -0.41699  -0.41013  -0.40752
 Alpha  occ. eigenvalues --   -0.40692  -0.40417  -0.40104  -0.39906  -0.39808
 Alpha  occ. eigenvalues --   -0.39570  -0.39379  -0.38927  -0.38712  -0.38553
 Alpha  occ. eigenvalues --   -0.37998  -0.37579  -0.36829  -0.36533  -0.36412
 Alpha  occ. eigenvalues --   -0.36298  -0.35501  -0.35272  -0.34886  -0.34306
 Alpha  occ. eigenvalues --   -0.33688  -0.33263  -0.32988  -0.32833  -0.32740
 Alpha  occ. eigenvalues --   -0.31710  -0.31324  -0.30462  -0.30111  -0.30006
 Alpha  occ. eigenvalues --   -0.28853  -0.28016  -0.27054  -0.26203  -0.25634
 Alpha  occ. eigenvalues --   -0.25265  -0.24464  -0.24193  -0.23525  -0.21556
 Alpha  occ. eigenvalues --   -0.18090
 Alpha virt. eigenvalues --   -0.10093  -0.05865  -0.03664  -0.02395  -0.01427
 Alpha virt. eigenvalues --    0.01333   0.01973   0.02506   0.02872   0.03598
 Alpha virt. eigenvalues --    0.04115   0.04693   0.04939   0.05056   0.05488

 Mulliken charges:
               1
     1  O   -0.233133
     2  O   -0.248287
     3  O   -0.195236
     4  O   -0.238156
     5  O   -0.234222
     6  O   -0.251392
     7  N   -0.113989
     8  N   -0.045219
     9  N   -0.047495
    10  N   -0.307415
    11  C   -0.132317
    12  C    0.089108
    13  C   -0.175475
    14  C    0.071242
    15  C   -0.029015
    16  C    0.080390
    17  C   -0.105206
    18  C   -0.176817
    19  C    0.271421
    20  C    0.099411
    21  C    0.056221
    22  C    0.035583
    23  C    0.005227
    24  C   -0.049183
    25  C   -0.062372
    26  C   -0.004741
    27  C    0.039391
    28  C   -0.073598
    29  C   -0.028413
    30  C    0.271582
    31  C   -0.101915
    32  C   -0.008284
    33  C   -0.161070
    34  C    0.083409
    35  C   -0.096463
    36  C   -0.108828
    37  C    0.146883
    38  C   -0.051191
    39  C    0.185451
    40  C    0.005905
    41  C    0.162914
    42  C    0.040717
    43  C   -0.066606
    44  H    0.145583
    45  H    0.049103
    46  H    0.019843
    47  H   -0.058209
    48  H   -0.028454
    49  H    0.028672
    50  H    0.065592
    51  H    0.013175
    52  H    0.148200
    53  H    0.023257
    54  H    0.044952
    55  H    0.038211
    56  H    0.167886
    57  H    0.085096
    58  H    0.073738
    59  H    0.045171
    60  H    0.057152
    61  H   -0.027858
    62  H    0.062117
    63  H   -0.064711
    64  H   -0.042052
    65  H    0.033036
    66  H    0.038076
    67  H    0.027386
    68  H    0.029031
    69  H    0.060202
    70  H    0.020577
    71  H    0.043328
    72  H    0.037003
    73  H    0.016215
    74  H    0.020511
    75  H    0.025578
    76  H    0.045304
    77  H    0.024101
    78  H    0.017341
    79  H    0.044312
    80  H    0.208224
    81  H    0.164490
 Sum of Mulliken charges =  -0.00000

 Dipole moment (field-independent basis, Debye):
    X=             -3.4800    Y=              0.0316    Z=             -0.0710  Tot=              3.4809
 Quadrupole moment (field-independent basis, Debye-Ang):
   XX=           -247.5824   YY=           -242.4442   ZZ=           -256.4972
   XY=             18.7411   XZ=             17.9137   YZ=            -16.1391

 Normal termination of Gaussian 16 at Thu Jul  4 06:54:42 2019.
