 Gaussian 16, Revision A.03,
 Gaussian 16:  ES64L-G16RevA.03 25-Dec-2016

 --------------------------
 # td=(NStates=1) B3LYP/SVP
 --------------------------

 --
 TD
 --
 Symbolic Z-matrix:
 Charge =  0 Multiplicity = 1

                         Standard orientation:
 ---------------------------------------------------------------------
 Center     Atomic      Atomic             Coordinates (Angstroms)
 Number     Number       Type             X           Y           Z
 ---------------------------------------------------------------------
      1          8           0        4.510105   -4.924676   -1.746757
      2          8           0       -2.981092   -4.797465   -1.354557
      3          8           0       -7.194950   -1.294844   -1.826833
      4          8           0       -3.704014   -3.095467   -0.222732
      5          8           0       -7.497335   -0.743177    0.310170
      6          8           0        3.036406    2.384748    0.339133
      7          7           0        0.295968   -0.569081    0.502693
      8          7           0       -1.523122    1.866588    0.312687
      9          7           0        3.513457   -3.256062   -0.484319
     10          7           0        0.825656    2.882414    0.193148
     11          6           0       -0.692780   -2.511298    1.363877
     12          6           0       -0.965951   -1.237380    0.896969
     13          6           0        0.753647   -2.657629    1.288984
     14          6           0        1.196648   -1.505630    0.718752
     15          6           0       -3.796256    1.486246    0.233308
     16          6           0       -2.463555    0.845575    0.430687
     17          6           0       -2.207996   -0.496021    0.793669
     18          6           0       -3.437917    2.839757   -0.100016
     19          6           0       -1.767136   -3.466697    1.878558
     20          6           0        5.566262   -2.589905   -1.431628
     21          6           0        3.594390   -1.888054   -0.118544
     22          6           0       -2.069777    3.013543    0.022671
     23          6           0        5.033249   -1.548213   -0.379999
     24          6           0       -5.098955    0.901108    0.344811
     25          6           0        2.633294   -1.150302    0.499055
     26          6           0        1.380948   -3.945270    1.849195
     27          6           0        4.513013   -3.768912   -1.312025
     28          6           0       -2.137697   -4.608268    0.868452
     29          6           0       -5.422843   -0.155260   -0.740138
     30          6           0       -4.468179    3.862243   -0.345621
     31          6           0       -1.285842    4.202189   -0.148569
     32          6           0        6.976546   -3.041497   -1.148856
     33          6           0        5.715978   -0.560845    0.286822
     34          6           0        0.156782    4.137001   -0.101704
     35          6           0        0.974484    5.186125   -0.392633
     36          6           0        2.249568    4.654630   -0.340852
     37          6           0       -2.977118   -4.086495   -0.332648
     38          6           0        5.365024    0.437205    1.144628
     39          6           0       -6.831699   -0.711480   -0.672543
     40          6           0        3.608859    5.376630   -0.565380
     41          6           0        2.102646    3.117845    0.055395
     42          6           0        0.581777    6.580203   -0.722258
     43          6           0        4.236199    5.672186    0.814057
     44          1           0        0.492120    0.204655    0.087569
     45          1           0       -3.065744   -1.182864    0.943167
     46          1           0       -2.650027   -2.970529    2.262454
     47          1           0       -1.498916   -3.829917    2.897377
     48          1           0        5.249054   -2.243727   -2.476341
     49          1           0       -5.203705    0.445145    1.387806
     50          1           0       -5.825314    1.801829    0.328992
     51          1           0        2.737019   -0.194765    0.606762
     52          1           0       -0.503259    1.823089    0.805072
     53          1           0        1.344124   -4.828463    1.237195
     54          1           0        2.471871   -3.748446    1.743983
     55          1           0        1.011732   -4.274401    2.803490
     56          1           0        2.608101   -3.746788   -0.602196
     57          1           0       -1.208501   -5.108257    0.508089
     58          1           0       -2.592963   -5.386492    1.666419
     59          1           0       -4.708960   -1.063608   -0.809271
     60          1           0       -5.233093    0.259843   -1.817630
     61          1           0       -4.280196    4.706667    0.129347
     62          1           0       -5.440642    3.435807   -0.628646
     63          1           0       -4.340336    4.216405   -1.365673
     64          1           0       -1.869617    5.124562   -0.507265
     65          1           0        7.626309   -2.142346   -1.510150
     66          1           0        7.008004   -3.774921   -1.914196
     67          1           0        7.089707   -3.232713   -0.031495
     68          1           0        6.833920   -0.459317   -0.128929
     69          1           0        4.769225    1.289028    0.739422
     70          1           0        6.132073    0.856111    1.677617
     71          1           0        4.555990    0.159416    1.878530
     72          1           0        3.565596    6.152442   -1.434328
     73          1           0        4.251794    4.703031   -0.993812
     74          1           0        0.122553    6.691029   -1.580152
     75          1           0        1.511295    7.107889   -1.138847
     76          1           0       -0.019387    7.021010    0.028758
     77          1           0        3.773748    6.353022    1.371337
     78          1           0        5.320341    6.080088    0.704689
     79          1           0        4.386665    4.652687    1.350634
     80          1           0       -3.609876   -4.376155   -1.961917
     81          1           0       -8.041064   -1.519993   -1.733585
 ---------------------------------------------------------------------

 SCF Done:  E(RB3LYP) =  -1949.08450649     A.U. after   17 cycles

 Excitation energies and oscillator strengths:

 Excited State   1:      Singlet-A      1.9871 eV  623.94 nm  f=0.3429  <S**2>=0.000
     154 ->157         0.11803
     156 ->157         0.69878
     156 <-157        -0.10125
 This state for optimization and/or second-order correction.
 Total Energy, E(TD-HF/TD-DFT) =  -1949.01148109
 Copying the excited state density for this state as the 1-particle RhoCI density.

 The electronic state is 1-A.
 Alpha  occ. eigenvalues --  -19.22363 -19.17820 -19.13860 -19.12771 -19.11490
 Alpha  occ. eigenvalues --  -19.08441 -14.36930 -14.36735 -14.35844 -14.27562
 Alpha  occ. eigenvalues --  -10.34465 -10.31929 -10.29311 -10.24786 -10.24121
 Alpha  occ. eigenvalues --  -10.23774 -10.23712 -10.23632 -10.23318 -10.23263
 Alpha  occ. eigenvalues --  -10.22446 -10.22328 -10.21774 -10.21464 -10.21361
 Alpha  occ. eigenvalues --  -10.21143 -10.20879 -10.20671 -10.19729 -10.19668
 Alpha  occ. eigenvalues --  -10.19605 -10.19585 -10.19576 -10.19498 -10.19159
 Alpha  occ. eigenvalues --  -10.19068 -10.18578 -10.18467 -10.17993 -10.17776
 Alpha  occ. eigenvalues --  -10.17652 -10.17487 -10.15768  -1.16733  -1.11876
 Alpha  occ. eigenvalues --   -1.02446  -1.02412  -1.02017  -0.99991  -0.99213
 Alpha  occ. eigenvalues --   -0.98497  -0.93896  -0.90355  -0.83012  -0.82279
 Alpha  occ. eigenvalues --   -0.80853  -0.80694  -0.79160  -0.78890  -0.78133
 Alpha  occ. eigenvalues --   -0.77279  -0.76523  -0.75505  -0.74383  -0.72272
 Alpha  occ. eigenvalues --   -0.72032  -0.70879  -0.69799  -0.69170  -0.68852
 Alpha  occ. eigenvalues --   -0.67724  -0.65425  -0.64366  -0.63404  -0.62430
 Alpha  occ. eigenvalues --   -0.61558  -0.60274  -0.59252  -0.58281  -0.56822
 Alpha  occ. eigenvalues --   -0.55877  -0.54950  -0.54669  -0.53866  -0.52411
 Alpha  occ. eigenvalues --   -0.52251  -0.51838  -0.51699  -0.50971  -0.50616
 Alpha  occ. eigenvalues --   -0.50124  -0.49361  -0.48927  -0.48620  -0.47649
 Alpha  occ. eigenvalues --   -0.47219  -0.47056  -0.46670  -0.46271  -0.45897
 Alpha  occ. eigenvalues --   -0.45190  -0.44396  -0.44236  -0.44195  -0.43887
 Alpha  occ. eigenvalues --   -0.43279  -0.43137  -0.43038  -0.42774  -0.42624
 Alpha  occ. eigenvalues --   -0.42233  -0.42049  -0.41739  -0.41373  -0.41215
 Alpha  occ. eigenvalues --   -0.40997  -0.40803  -0.40471  -0.40040  -0.39885
 Alpha  occ. eigenvalues --   -0.39376  -0.38990  -0.38667  -0.38449  -0.37742
 Alpha  occ. eigenvalues --   -0.37574  -0.37263  -0.37128  -0.37065  -0.36275
 Alpha  occ. eigenvalues --   -0.36034  -0.35564  -0.35447  -0.34724  -0.34190
 Alpha  occ. eigenvalues --   -0.33950  -0.33647  -0.33520  -0.33267  -0.33209
 Alpha  occ. eigenvalues --   -0.32608  -0.32086  -0.31178  -0.30218  -0.29882
 Alpha  occ. eigenvalues --   -0.28547  -0.26743  -0.26511  -0.26148  -0.25241
 Alpha  occ. eigenvalues --   -0.24422  -0.23819  -0.22731  -0.22007  -0.21400
 Alpha  occ. eigenvalues --   -0.18467
 Alpha virt. eigenvalues --   -0.10486  -0.05346  -0.03264  -0.02483   0.00318
 Alpha virt. eigenvalues --    0.00588   0.01876   0.02960   0.03678   0.04452
 Alpha virt. eigenvalues --    0.04723   0.05619   0.06209   0.06305   0.06540

 Mulliken charges:
               1
     1  O   -0.230009
     2  O   -0.049793
     3  O   -0.119234
     4  O   -0.267462
     5  O   -0.202507
     6  O   -0.235083
     7  N    0.004779
     8  N   -0.073404
     9  N   -0.150686
    10  N   -0.307493
    11  C   -0.083676
    12  C    0.051308
    13  C   -0.154173
    14  C   -0.018942
    15  C   -0.070566
    16  C    0.073638
    17  C   -0.051784
    18  C   -0.201083
    19  C    0.081723
    20  C   -0.105738
    21  C    0.134187
    22  C    0.071695
    23  C   -0.042848
    24  C    0.089617
    25  C   -0.011866
    26  C    0.102756
    27  C    0.112920
    28  C   -0.032906
    29  C   -0.078242
    30  C    0.252796
    31  C   -0.167489
    32  C    0.085588
    33  C   -0.153474
    34  C    0.127826
    35  C   -0.124518
    36  C   -0.241128
    37  C    0.123071
    38  C    0.121756
    39  C    0.114792
    40  C    0.121401
    41  C    0.135430
    42  C    0.237954
    43  C   -0.002203
    44  H    0.062657
    45  H    0.020930
    46  H    0.006321
    47  H    0.002758
    48  H    0.050210
    49  H    0.038238
    50  H    0.022668
    51  H   -0.094882
    52  H    0.199727
    53  H    0.006156
    54  H    0.026741
    55  H    0.018909
    56  H    0.134759
    57  H    0.035684
    58  H    0.074471
    59  H    0.079747
    60  H    0.028657
    61  H   -0.023135
    62  H    0.004351
    63  H   -0.023076
    64  H   -0.007775
    65  H    0.030595
    66  H    0.022203
    67  H    0.048679
    68  H    0.002916
    69  H    0.071275
    70  H   -0.019783
    71  H    0.010816
    72  H    0.010156
    73  H   -0.028320
    74  H   -0.043755
    75  H   -0.001783
    76  H    0.013708
    77  H   -0.011382
    78  H    0.007554
    79  H    0.046277
    80  H    0.188384
    81  H    0.121414
 Sum of Mulliken charges =  -0.00000

 Dipole moment (field-independent basis, Debye):
    X=             -4.7238    Y=             -0.1568    Z=             -1.5144  Tot=              4.9631
 Quadrupole moment (field-independent basis, Debye-Ang):
   XX=           -255.8183   YY=           -241.2261   ZZ=           -249.5638
   XY=             17.8276   XZ=             16.2581   YZ=            -13.0201

 Normal termination of Gaussian 16 at Thu Jun 27 11:50:04 2019.
