 Gaussian 16, Revision A.03,
 Gaussian 16:  ES64L-G16RevA.03 25-Dec-2016

 --------------------------
 # td=(NStates=1) B3LYP/SVP
 --------------------------

 --
 TD
 --
 Symbolic Z-matrix:
 Charge =  0 Multiplicity = 1

                         Standard orientation:
 ---------------------------------------------------------------------
 Center     Atomic      Atomic             Coordinates (Angstroms)
 Number     Number       Type             X           Y           Z
 ---------------------------------------------------------------------
      1          8           0       -4.562840   -4.774381    1.975153
      2          8           0        3.135553   -4.703161    1.293633
      3          8           0        7.089574   -1.263960    1.930724
      4          8           0        4.050511   -3.064163   -0.013538
      5          8           0        7.678011   -0.490654   -0.064282
      6          8           0       -3.079229    2.399975   -0.272131
      7          7           0       -0.301743   -0.664184   -0.470057
      8          7           0        1.518546    1.782349   -0.294759
      9          7           0       -3.388325   -3.215301    0.681094
     10          7           0       -0.822566    2.880565   -0.232922
     11          6           0        0.743266   -2.485328   -1.365718
     12          6           0        1.071240   -1.147187   -0.943595
     13          6           0       -0.657500   -2.704078   -1.161396
     14          6           0       -1.333939   -1.550187   -0.730053
     15          6           0        3.697693    1.535843   -0.299050
     16          6           0        2.460852    0.856186   -0.577027
     17          6           0        2.188172   -0.407249   -0.865419
     18          6           0        3.471725    2.862223   -0.053588
     19          6           0        1.777293   -3.479279   -1.859830
     20          6           0       -5.563910   -2.614177    1.354027
     21          6           0       -3.644285   -1.986425    0.083139
     22          6           0        2.029826    3.033486    0.060992
     23          6           0       -5.041371   -1.654519    0.265456
     24          6           0        5.060945    0.923412   -0.437587
     25          6           0       -2.715629   -1.201241   -0.472824
     26          6           0       -1.247156   -3.902864   -1.702241
     27          6           0       -4.485865   -3.642653    1.394791
     28          6           0        2.222435   -4.468237   -0.869546
     29          6           0        5.467855    0.044702    0.776182
     30          6           0        4.462438    4.024951    0.165724
     31          6           0        1.224503    4.113975    0.304126
     32          6           0       -6.914937   -3.173783    1.182117
     33          6           0       -5.857212   -0.813151   -0.416404
     34          6           0       -0.183834    4.008638    0.172823
     35          6           0       -1.164563    5.073950    0.467345
     36          6           0       -2.437091    4.633666    0.348926
     37          6           0        3.266249   -3.924117    0.206962
     38          6           0       -5.277016    0.278046   -1.409511
     39          6           0        6.837287   -0.595405    0.778137
     40          6           0       -3.867945    5.224783    0.681681
     41          6           0       -2.214742    3.168340   -0.045240
     42          6           0       -0.766118    6.467812    0.885613
     43          6           0       -4.452692    5.534294   -0.819353
     44          1           0       -0.602676    0.594480   -0.621975
     45          1           0        3.043161   -1.051252   -1.178108
     46          1           0        2.652042   -2.890980   -2.221565
     47          1           0        1.407590   -3.984749   -2.766655
     48          1           0       -5.545251   -2.043358    2.397855
     49          1           0        5.118816    0.293045   -1.386183
     50          1           0        5.926231    1.697528   -0.610589
     51          1           0       -2.819849   -0.209820   -0.670666
     52          1           0        0.390104    1.923317   -0.505442
     53          1           0       -1.476821   -4.803084   -0.929901
     54          1           0       -2.256055   -3.900317   -2.237139
     55          1           0       -0.549205   -4.364784   -2.426136
     56          1           0       -2.470344   -3.722215    0.508101
     57          1           0        1.376814   -4.808397   -0.245492
     58          1           0        2.852224   -5.551198   -1.318862
     59          1           0        4.667411   -0.726468    1.119428
     60          1           0        5.611343    0.637970    1.721953
     61          1           0        4.476871    4.615878   -0.741843
     62          1           0        5.511364    3.486381    0.470575
     63          1           0        4.308077    4.665994    1.120918
     64          1           0        1.707097    5.032077    0.607014
     65          1           0       -7.681788   -2.276828    1.086432
     66          1           0       -7.014276   -4.102206    1.961744
     67          1           0       -6.962155   -3.639496    0.085289
     68          1           0       -6.732181   -0.636850   -0.119470
     69          1           0       -4.737127    1.208708   -1.068539
     70          1           0       -6.081651    0.599263   -2.040609
     71          1           0       -4.712029   -0.233389   -2.247626
     72          1           0       -3.898687    6.028626    1.230936
     73          1           0       -4.492197    4.477227    1.185456
     74          1           0        0.070045    6.358116    1.590655
     75          1           0       -1.616267    6.886648    1.236796
     76          1           0       -0.334946    7.225522   -0.046731
     77          1           0       -3.874842    6.462319   -1.481279
     78          1           0       -5.443367    5.909480   -0.682533
     79          1           0       -4.321565    4.649977   -1.380266
     80          1           0        4.081144   -4.379369    1.564549
     81          1           0        7.953068   -1.947624    1.862006
 ---------------------------------------------------------------------

 SCF Done:  E(RB3LYP) =  -1949.05176803     A.U. after   16 cycles

 Excitation energies and oscillator strengths:

 Excited State   1:      Singlet-A      1.9583 eV  633.12 nm  f=0.4077  <S**2>=0.000
     156 ->157         0.70839
     156 <-157        -0.11899
 This state for optimization and/or second-order correction.
 Total Energy, E(TD-HF/TD-DFT) =  -1948.97980111
 Copying the excited state density for this state as the 1-particle RhoCI density.

 The electronic state is 1-A.
 Alpha  occ. eigenvalues --  -19.20962 -19.17640 -19.15794 -19.11739 -19.11543
 Alpha  occ. eigenvalues --  -19.10440 -14.38221 -14.37588 -14.34288 -14.30573
 Alpha  occ. eigenvalues --  -10.33876 -10.31292 -10.29376 -10.27574 -10.24587
 Alpha  occ. eigenvalues --  -10.23842 -10.23588 -10.23425 -10.23261 -10.23058
 Alpha  occ. eigenvalues --  -10.22425 -10.21405 -10.21219 -10.21192 -10.21152
 Alpha  occ. eigenvalues --  -10.21148 -10.21050 -10.20831 -10.20757 -10.20533
 Alpha  occ. eigenvalues --  -10.20469 -10.20212 -10.20168 -10.20149 -10.20044
 Alpha  occ. eigenvalues --  -10.19988 -10.19907 -10.19708 -10.19655 -10.19369
 Alpha  occ. eigenvalues --  -10.18920 -10.18659 -10.17979  -1.12934  -1.08019
 Alpha  occ. eigenvalues --   -1.04684  -1.04343  -1.01432  -0.98956  -0.97187
 Alpha  occ. eigenvalues --   -0.95025  -0.94007  -0.92092  -0.82788  -0.82261
 Alpha  occ. eigenvalues --   -0.81834  -0.81053  -0.79665  -0.79172  -0.77613
 Alpha  occ. eigenvalues --   -0.76913  -0.76261  -0.75078  -0.74601  -0.72188
 Alpha  occ. eigenvalues --   -0.70442  -0.69212  -0.68954  -0.67331  -0.66696
 Alpha  occ. eigenvalues --   -0.66357  -0.65742  -0.64899  -0.63120  -0.62270
 Alpha  occ. eigenvalues --   -0.60096  -0.58219  -0.57495  -0.57253  -0.56155
 Alpha  occ. eigenvalues --   -0.55487  -0.55314  -0.55100  -0.53807  -0.52811
 Alpha  occ. eigenvalues --   -0.52612  -0.52371  -0.51362  -0.50387  -0.49872
 Alpha  occ. eigenvalues --   -0.49300  -0.48939  -0.48852  -0.48264  -0.47250
 Alpha  occ. eigenvalues --   -0.46935  -0.46745  -0.46325  -0.46312  -0.45911
 Alpha  occ. eigenvalues --   -0.45431  -0.45096  -0.44582  -0.44044  -0.43816
 Alpha  occ. eigenvalues --   -0.43741  -0.42875  -0.42478  -0.42279  -0.41900
 Alpha  occ. eigenvalues --   -0.41616  -0.41478  -0.41273  -0.41057  -0.40507
 Alpha  occ. eigenvalues --   -0.40192  -0.39804  -0.39771  -0.39506  -0.39382
 Alpha  occ. eigenvalues --   -0.39047  -0.38978  -0.38520  -0.38239  -0.38069
 Alpha  occ. eigenvalues --   -0.37938  -0.37902  -0.37695  -0.37102  -0.36710
 Alpha  occ. eigenvalues --   -0.35976  -0.35721  -0.35399  -0.35281  -0.35008
 Alpha  occ. eigenvalues --   -0.34559  -0.34437  -0.34258  -0.33718  -0.33493
 Alpha  occ. eigenvalues --   -0.33357  -0.31698  -0.31571  -0.30946  -0.30005
 Alpha  occ. eigenvalues --   -0.29195  -0.27234  -0.26645  -0.26484  -0.25338
 Alpha  occ. eigenvalues --   -0.25276  -0.25125  -0.24282  -0.23875  -0.22636
 Alpha  occ. eigenvalues --   -0.18222
 Alpha virt. eigenvalues --   -0.10553  -0.06269  -0.04348  -0.01682  -0.01186
 Alpha virt. eigenvalues --    0.00497   0.00763   0.02153   0.02426   0.03082
 Alpha virt. eigenvalues --    0.03355   0.03724   0.04567   0.04736   0.05225

 Mulliken charges:
               1
     1  O   -0.271830
     2  O   -0.175509
     3  O   -0.279227
     4  O   -0.198177
     5  O   -0.207994
     6  O   -0.157102
     7  N   -0.285265
     8  N   -0.189190
     9  N   -0.106900
    10  N   -0.358742
    11  C   -0.087939
    12  C    0.053633
    13  C   -0.121819
    14  C    0.086127
    15  C   -0.050993
    16  C    0.122581
    17  C   -0.045779
    18  C   -0.115234
    19  C    0.138248
    20  C   -0.058867
    21  C    0.131958
    22  C    0.090190
    23  C   -0.013081
    24  C    0.048636
    25  C   -0.020036
    26  C   -0.019039
    27  C    0.142283
    28  C   -0.052673
    29  C   -0.042331
    30  C    0.031786
    31  C   -0.116611
    32  C   -0.034940
    33  C   -0.021922
    34  C    0.136643
    35  C   -0.138880
    36  C   -0.181439
    37  C    0.125335
    38  C    0.012072
    39  C    0.134904
    40  C    0.170342
    41  C    0.148217
    42  C    0.104010
    43  C   -0.046810
    44  H    0.225996
    45  H    0.002006
    46  H    0.012699
    47  H    0.011794
    48  H    0.069234
    49  H    0.032165
    50  H    0.031705
    51  H   -0.042307
    52  H    0.205246
    53  H    0.019730
    54  H    0.038128
    55  H    0.007741
    56  H    0.157158
    57  H    0.034588
    58  H    0.067927
    59  H    0.060160
    60  H    0.032401
    61  H    0.042277
    62  H    0.036227
    63  H    0.041429
    64  H   -0.037690
    65  H    0.041280
    66  H    0.077614
    67  H    0.019886
    68  H   -0.089865
    69  H    0.094044
    70  H   -0.021094
    71  H    0.016597
    72  H   -0.044511
    73  H    0.022703
    74  H    0.026807
    75  H   -0.014562
    76  H    0.042836
    77  H    0.027802
    78  H    0.013904
    79  H    0.034100
    80  H    0.183737
    81  H    0.241473
 Sum of Mulliken charges =  -0.00000

 Dipole moment (field-independent basis, Debye):
    X=              1.7906    Y=              1.6734    Z=             -0.3734  Tot=              2.4791
 Quadrupole moment (field-independent basis, Debye-Ang):
   XX=           -255.6089   YY=           -239.7290   ZZ=           -256.7887
   XY=            -28.5980   XZ=             15.7021   YZ=             16.5136

 Normal termination of Gaussian 16 at Wed Jul  3 16:40:28 2019.
