 Gaussian 16, Revision A.03,
 Gaussian 16:  ES64L-G16RevA.03 25-Dec-2016

 --------------------------
 # td=(NStates=1) B3LYP/SVP
 --------------------------

 --
 TD
 --
 Symbolic Z-matrix:
 Charge =  0 Multiplicity = 1

                         Standard orientation:
 ---------------------------------------------------------------------
 Center     Atomic      Atomic             Coordinates (Angstroms)
 Number     Number       Type             X           Y           Z
 ---------------------------------------------------------------------
      1          8           0       -4.359113   -4.742856    1.968908
      2          8           0        3.039501   -4.728353    1.473641
      3          8           0        7.148840   -1.214838    1.957532
      4          8           0        3.686065   -2.978361    0.174837
      5          8           0        7.635524   -0.608581   -0.201279
      6          8           0       -3.113800    2.389291   -0.474347
      7          7           0       -0.251461   -0.613069   -0.688647
      8          7           0        1.567414    1.857545   -0.510934
      9          7           0       -3.317736   -3.182294    0.617284
     10          7           0       -0.844578    2.923296   -0.167359
     11          6           0        0.683166   -2.491498   -1.479735
     12          6           0        0.987766   -1.148095   -0.967565
     13          6           0       -0.660224   -2.620498   -1.319376
     14          6           0       -1.366094   -1.456209   -0.845776
     15          6           0        3.815666    1.479797   -0.403469
     16          6           0        2.533983    0.800629   -0.647480
     17          6           0        2.272830   -0.549533   -0.941410
     18          6           0        3.574027    2.782937   -0.051506
     19          6           0        1.786069   -3.484932   -1.824612
     20          6           0       -5.544654   -2.568354    1.422860
     21          6           0       -3.566458   -1.921502    0.036351
     22          6           0        2.105771    2.990681   -0.030691
     23          6           0       -5.049905   -1.594939    0.339102
     24          6           0        5.082933    0.679509   -0.600198
     25          6           0       -2.643919   -1.195135   -0.539757
     26          6           0       -1.440482   -3.828665   -1.800874
     27          6           0       -4.456833   -3.633517    1.396208
     28          6           0        2.028016   -4.540346   -0.691672
     29          6           0        5.492610    0.025078    0.708349
     30          6           0        4.539156    3.847687    0.332379
     31          6           0        1.227490    4.050263    0.291884
     32          6           0       -6.996793   -3.054307    1.257380
     33          6           0       -5.819417   -0.684223   -0.208631
     34          6           0       -0.196054    3.898075    0.217666
     35          6           0       -1.086538    5.011093    0.662615
     36          6           0       -2.346671    4.528454    0.331048
     37          6           0        3.028907   -3.955274    0.279775
     38          6           0       -5.512744    0.218115   -1.323154
     39          6           0        6.872355   -0.573955    0.751429
     40          6           0       -3.640480    5.286390    0.476810
     41          6           0       -2.145988    3.145835   -0.121331
     42          6           0       -0.710204    6.398518    1.227002
     43          6           0       -4.225622    5.784451   -0.830671
     44          1           0       -0.397735    0.487643   -0.464118
     45          1           0        3.161759   -1.135204   -1.347238
     46          1           0        2.751247   -2.963647   -2.226019
     47          1           0        1.334536   -4.163596   -2.504673
     48          1           0       -5.551464   -2.166842    2.344499
     49          1           0        5.146241    0.132408   -1.485533
     50          1           0        5.831383    1.338291   -0.872401
     51          1           0       -2.856161   -0.024692   -0.714600
     52          1           0        0.637179    1.676208   -0.585375
     53          1           0       -1.722001   -4.538531   -0.971848
     54          1           0       -2.392926   -3.636005   -2.290131
     55          1           0       -0.945130   -4.526792   -2.505860
     56          1           0       -2.409777   -3.547130    0.334332
     57          1           0        1.228992   -4.997929   -0.003243
     58          1           0        2.585708   -5.506145   -1.212001
     59          1           0        4.960527   -0.771791    1.183279
     60          1           0        5.482758    0.740695    1.488440
     61          1           0        4.366640    4.612394   -0.308635
     62          1           0        5.585566    3.619147    0.266536
     63          1           0        4.114250    4.139052    1.476005
     64          1           0        1.648556    4.900978    0.576071
     65          1           0       -7.642418   -2.020855    1.340094
     66          1           0       -7.193119   -3.877405    2.060239
     67          1           0       -7.302802   -3.586389    0.265596
     68          1           0       -6.761380   -0.291275    0.187078
     69          1           0       -4.915540    1.259423   -1.166853
     70          1           0       -6.376695    0.538065   -1.705634
     71          1           0       -4.969791   -0.053485   -2.285176
     72          1           0       -3.646018    6.197201    0.954321
     73          1           0       -4.417298    4.430767    0.842380
     74          1           0        0.051543    6.177539    2.152167
     75          1           0       -1.550623    6.857428    1.714029
     76          1           0       -0.355673    7.066838    0.524888
     77          1           0       -3.729332    6.698347   -1.114736
     78          1           0       -5.425994    6.064966   -0.804653
     79          1           0       -4.103708    5.176180   -1.765383
     80          1           0        3.682848   -4.253531    2.064598
     81          1           0        7.994259   -1.640264    1.995089
 ---------------------------------------------------------------------

 SCF Done:  E(RB3LYP) =  -1949.08737474     A.U. after   17 cycles

 Excitation energies and oscillator strengths:

 Excited State   1:      Singlet-A      1.8433 eV  672.62 nm  f=0.3693  <S**2>=0.000
     156 ->157         0.71045
     156 <-157        -0.12610
 This state for optimization and/or second-order correction.
 Total Energy, E(TD-HF/TD-DFT) =  -1949.01963425
 Copying the excited state density for this state as the 1-particle RhoCI density.

 The electronic state is 1-A.
 Alpha  occ. eigenvalues --  -19.17790 -19.17686 -19.15045 -19.12754 -19.11370
 Alpha  occ. eigenvalues --  -19.10193 -14.38666 -14.36753 -14.36245 -14.28535
 Alpha  occ. eigenvalues --  -10.33042 -10.32317 -10.30563 -10.26337 -10.24614
 Alpha  occ. eigenvalues --  -10.24433 -10.23787 -10.23753 -10.23485 -10.23447
 Alpha  occ. eigenvalues --  -10.22584 -10.22224 -10.22195 -10.21599 -10.21183
 Alpha  occ. eigenvalues --  -10.20797 -10.20746 -10.20488 -10.20456 -10.20256
 Alpha  occ. eigenvalues --  -10.20078 -10.19896 -10.19890 -10.19691 -10.19665
 Alpha  occ. eigenvalues --  -10.19590 -10.19299 -10.18808 -10.18600 -10.18231
 Alpha  occ. eigenvalues --  -10.18202 -10.18120 -10.16912  -1.09984  -1.08092
 Alpha  occ. eigenvalues --   -1.01579  -1.01175  -1.00364  -1.00097  -0.98241
 Alpha  occ. eigenvalues --   -0.97228  -0.94406  -0.93701  -0.83137  -0.82351
 Alpha  occ. eigenvalues --   -0.82053  -0.81479  -0.79616  -0.79344  -0.78455
 Alpha  occ. eigenvalues --   -0.77580  -0.76808  -0.75660  -0.74287  -0.72926
 Alpha  occ. eigenvalues --   -0.71684  -0.70020  -0.69456  -0.68882  -0.68110
 Alpha  occ. eigenvalues --   -0.67810  -0.66279  -0.65253  -0.62711  -0.61043
 Alpha  occ. eigenvalues --   -0.60483  -0.59763  -0.58871  -0.58211  -0.57880
 Alpha  occ. eigenvalues --   -0.56332  -0.56069  -0.54791  -0.53954  -0.53342
 Alpha  occ. eigenvalues --   -0.53051  -0.52296  -0.51332  -0.50278  -0.49994
 Alpha  occ. eigenvalues --   -0.49655  -0.49334  -0.48435  -0.48135  -0.47740
 Alpha  occ. eigenvalues --   -0.47238  -0.47153  -0.46591  -0.45632  -0.45250
 Alpha  occ. eigenvalues --   -0.45145  -0.44849  -0.44575  -0.44443  -0.44071
 Alpha  occ. eigenvalues --   -0.43063  -0.42944  -0.42835  -0.42761  -0.42417
 Alpha  occ. eigenvalues --   -0.41887  -0.41737  -0.41665  -0.41519  -0.40987
 Alpha  occ. eigenvalues --   -0.40495  -0.40362  -0.40064  -0.39853  -0.39690
 Alpha  occ. eigenvalues --   -0.39454  -0.39411  -0.38890  -0.38065  -0.37932
 Alpha  occ. eigenvalues --   -0.37604  -0.37418  -0.37312  -0.37007  -0.36772
 Alpha  occ. eigenvalues --   -0.36520  -0.36045  -0.35688  -0.35197  -0.34672
 Alpha  occ. eigenvalues --   -0.34441  -0.34112  -0.33736  -0.33355  -0.32959
 Alpha  occ. eigenvalues --   -0.32523  -0.32393  -0.31485  -0.30377  -0.29607
 Alpha  occ. eigenvalues --   -0.28022  -0.27105  -0.26385  -0.26337  -0.25700
 Alpha  occ. eigenvalues --   -0.25387  -0.25226  -0.24172  -0.23296  -0.22259
 Alpha  occ. eigenvalues --   -0.17705
 Alpha virt. eigenvalues --   -0.10516  -0.06338  -0.03351  -0.01515  -0.01379
 Alpha virt. eigenvalues --    0.00218   0.01927   0.03149   0.03544   0.04160
 Alpha virt. eigenvalues --    0.04723   0.04973   0.05041   0.05437   0.05535

 Mulliken charges:
               1
     1  O   -0.234174
     2  O   -0.254329
     3  O   -0.219994
     4  O   -0.183161
     5  O   -0.231825
     6  O   -0.268487
     7  N   -0.161983
     8  N   -0.036334
     9  N   -0.146304
    10  N   -0.122886
    11  C   -0.107178
    12  C    0.061380
    13  C   -0.160638
    14  C    0.134508
    15  C   -0.121401
    16  C    0.029360
    17  C   -0.026644
    18  C   -0.139269
    19  C    0.159042
    20  C    0.027550
    21  C    0.089527
    22  C    0.087834
    23  C    0.067418
    24  C    0.236809
    25  C   -0.160154
    26  C    0.037192
    27  C    0.173529
    28  C   -0.081290
    29  C    0.062389
    30  C    0.122500
    31  C   -0.078866
    32  C   -0.051618
    33  C   -0.152577
    34  C    0.042650
    35  C   -0.153431
    36  C   -0.155506
    37  C    0.140608
    38  C    0.003646
    39  C    0.129651
    40  C    0.125769
    41  C    0.128556
    42  C    0.116454
    43  C   -0.060690
    44  H    0.177678
    45  H    0.037317
    46  H    0.052032
    47  H   -0.018293
    48  H    0.014472
    49  H   -0.006862
    50  H   -0.041072
    51  H    0.075891
    52  H    0.058436
    53  H    0.009534
    54  H    0.029129
    55  H    0.005769
    56  H    0.125408
    57  H    0.074350
    58  H    0.070329
    59  H    0.026693
    60  H    0.009278
    61  H    0.002221
    62  H    0.012402
    63  H    0.049896
    64  H   -0.100488
    65  H    0.048382
    66  H    0.054257
    67  H    0.036178
    68  H    0.004572
    69  H    0.089800
    70  H   -0.039107
    71  H    0.013673
    72  H   -0.023589
    73  H    0.033299
    74  H    0.033252
    75  H    0.004712
    76  H    0.019553
    77  H   -0.008721
    78  H    0.021575
    79  H    0.019992
    80  H    0.186723
    81  H    0.173699
 Sum of Mulliken charges =  -0.00000

 Dipole moment (field-independent basis, Debye):
    X=              2.8954    Y=              0.9169    Z=              0.2100  Tot=              3.0443
 Quadrupole moment (field-independent basis, Debye-Ang):
   XX=           -247.7315   YY=           -245.0244   ZZ=           -254.2866
   XY=             -9.7263   XZ=             13.7094   YZ=             15.4773

 Normal termination of Gaussian 16 at Mon Jul  1 06:36:08 2019.
