 Gaussian 16, Revision A.03,
 Gaussian 16:  ES64L-G16RevA.03 25-Dec-2016

 --------------------------
 # td=(NStates=1) B3LYP/SVP
 --------------------------

 --
 TD
 --
 Symbolic Z-matrix:
 Charge =  0 Multiplicity = 1

                         Standard orientation:
 ---------------------------------------------------------------------
 Center     Atomic      Atomic             Coordinates (Angstroms)
 Number     Number       Type             X           Y           Z
 ---------------------------------------------------------------------
      1          8           0       -4.568618   -4.625621    1.944060
      2          8           0        2.962978   -4.816911    1.423761
      3          8           0        7.268147   -1.211223    1.982521
      4          8           0        3.936699   -3.314906    0.136642
      5          8           0        7.601696   -0.684628   -0.285768
      6          8           0       -2.964169    2.400028   -0.079635
      7          7           0       -0.398730   -0.578512   -0.744281
      8          7           0        1.498669    1.749399   -0.492812
      9          7           0       -3.557025   -3.084831    0.679941
     10          7           0       -0.796614    2.822818   -0.036868
     11          6           0        0.571308   -2.419512   -1.376775
     12          6           0        0.863775   -1.178464   -0.976626
     13          6           0       -0.857521   -2.707898   -1.137751
     14          6           0       -1.413025   -1.428211   -0.740219
     15          6           0        3.759988    1.280169   -0.457219
     16          6           0        2.475139    0.745045   -0.751476
     17          6           0        2.124472   -0.570400   -0.949702
     18          6           0        3.496136    2.620209   -0.202045
     19          6           0        1.677049   -3.451629   -1.807287
     20          6           0       -5.676106   -2.426685    1.311096
     21          6           0       -3.715870   -1.843636    0.003656
     22          6           0        2.087315    2.876079   -0.169857
     23          6           0       -5.106454   -1.409959    0.309411
     24          6           0        5.133220    0.625089   -0.473848
     25          6           0       -2.693581   -0.952422   -0.485515
     26          6           0       -1.520165   -3.996111   -1.734924
     27          6           0       -4.574571   -3.574122    1.327012
     28          6           0        1.936299   -4.526797   -0.773533
     29          6           0        5.458085   -0.108537    0.748450
     30          6           0        4.407913    3.666961    0.516837
     31          6           0        1.403120    3.969752    0.348506
     32          6           0       -7.083214   -3.021222    1.068193
     33          6           0       -5.869167   -0.444302   -0.244559
     34          6           0        0.037142    3.936669    0.258416
     35          6           0       -0.847616    5.197019    0.461403
     36          6           0       -2.105784    4.729364    0.363771
     37          6           0        3.037446   -4.058065    0.304590
     38          6           0       -5.499720    0.647128   -1.216793
     39          6           0        6.968993   -0.592470    0.697603
     40          6           0       -3.425791    5.358349    0.497091
     41          6           0       -2.061214    3.232492   -0.024449
     42          6           0       -0.268887    6.463071    0.812343
     43          6           0       -4.122138    5.695376   -0.807360
     44          1           0       -0.254852    0.305963   -0.339907
     45          1           0        3.077533   -1.148024   -1.079950
     46          1           0        2.731131   -3.102252   -2.249800
     47          1           0        1.023341   -4.032066   -2.632743
     48          1           0       -5.610808   -2.063319    2.363121
     49          1           0        4.977882   -0.051461   -1.444439
     50          1           0        6.090254    1.353074   -0.973879
     51          1           0       -3.023494    0.125094   -0.590108
     52          1           0        0.482433    1.633563   -0.381283
     53          1           0       -1.069859   -5.108314   -1.398914
     54          1           0       -2.531971   -3.874189   -1.550672
     55          1           0       -1.314127   -3.946522   -3.019379
     56          1           0       -2.770340   -3.747364    0.543641
     57          1           0        1.063726   -4.839957   -0.306449
     58          1           0        2.285235   -5.408258   -1.207259
     59          1           0        4.737827   -0.907554    0.915854
     60          1           0        5.303549    0.394914    1.669875
     61          1           0        4.085783    4.690954    0.435947
     62          1           0        5.458355    3.457044   -0.291868
     63          1           0        4.688929    3.320296    1.801883
     64          1           0        1.931700    4.952742    0.498338
     65          1           0       -7.825786   -2.339396    1.262535
     66          1           0       -7.185530   -3.751648    1.705460
     67          1           0       -7.287127   -3.430431    0.091209
     68          1           0       -6.991442   -0.542042    0.174906
     69          1           0       -5.126659    1.455149   -0.746789
     70          1           0       -6.350387    0.924422   -1.945965
     71          1           0       -4.660912    0.171948   -1.779626
     72          1           0       -3.106566    6.263465    1.048584
     73          1           0       -4.072224    4.777104    1.209522
     74          1           0        0.499683    6.617513    1.572657
     75          1           0       -1.001823    7.241431    1.116182
     76          1           0        0.015388    6.887738   -0.319611
     77          1           0       -3.566759    6.219104   -1.241092
     78          1           0       -5.044401    6.450626   -0.411653
     79          1           0       -4.389190    4.817690   -1.367886
     80          1           0        3.763000   -4.504920    1.961391
     81          1           0        8.271086   -1.592135    1.903015
 ---------------------------------------------------------------------

 SCF Done:  E(RB3LYP) =  -1948.99016771     A.U. after   19 cycles

 Excitation energies and oscillator strengths:

 Excited State   1:      Singlet-A      1.9745 eV  627.94 nm  f=0.4097  <S**2>=0.000
     156 ->157         0.70643
     156 <-157        -0.10085
 This state for optimization and/or second-order correction.
 Total Energy, E(TD-HF/TD-DFT) =  -1948.91760742
 Copying the excited state density for this state as the 1-particle RhoCI density.

 The electronic state is 1-A.
 Alpha  occ. eigenvalues --  -19.19255 -19.18156 -19.15319 -19.14864 -19.10277
 Alpha  occ. eigenvalues --  -19.08894 -14.38000 -14.37322 -14.36403 -14.28167
 Alpha  occ. eigenvalues --  -10.33366 -10.33196 -10.28255 -10.25762 -10.24972
 Alpha  occ. eigenvalues --  -10.24654 -10.23808 -10.23795 -10.23681 -10.23209
 Alpha  occ. eigenvalues --  -10.23130 -10.22966 -10.22770 -10.22475 -10.22235
 Alpha  occ. eigenvalues --  -10.21426 -10.21060 -10.20973 -10.20961 -10.20815
 Alpha  occ. eigenvalues --  -10.20697 -10.20522 -10.20387 -10.20243 -10.20224
 Alpha  occ. eigenvalues --  -10.20027 -10.19701 -10.18810 -10.18270 -10.18077
 Alpha  occ. eigenvalues --  -10.17935 -10.16838 -10.16458  -1.11728  -1.09072
 Alpha  occ. eigenvalues --   -1.03810  -1.02435  -1.00307  -0.99936  -0.99682
 Alpha  occ. eigenvalues --   -0.99072  -0.95517  -0.89768  -0.83563  -0.82429
 Alpha  occ. eigenvalues --   -0.81442  -0.81303  -0.80231  -0.79240  -0.78052
 Alpha  occ. eigenvalues --   -0.77559  -0.76998  -0.76014  -0.74992  -0.72815
 Alpha  occ. eigenvalues --   -0.70413  -0.70304  -0.69155  -0.68389  -0.66974
 Alpha  occ. eigenvalues --   -0.66538  -0.65520  -0.64816  -0.63401  -0.62062
 Alpha  occ. eigenvalues --   -0.60033  -0.59265  -0.58262  -0.58231  -0.57211
 Alpha  occ. eigenvalues --   -0.56150  -0.55755  -0.54308  -0.53981  -0.53131
 Alpha  occ. eigenvalues --   -0.52209  -0.51614  -0.51025  -0.50441  -0.50069
 Alpha  occ. eigenvalues --   -0.49459  -0.48812  -0.48627  -0.48514  -0.47813
 Alpha  occ. eigenvalues --   -0.47242  -0.46807  -0.46456  -0.45877  -0.45635
 Alpha  occ. eigenvalues --   -0.45185  -0.44843  -0.44381  -0.43693  -0.43531
 Alpha  occ. eigenvalues --   -0.43304  -0.42960  -0.42779  -0.42466  -0.42192
 Alpha  occ. eigenvalues --   -0.42118  -0.41846  -0.41814  -0.41397  -0.41212
 Alpha  occ. eigenvalues --   -0.40909  -0.40472  -0.40261  -0.39870  -0.39430
 Alpha  occ. eigenvalues --   -0.39211  -0.38852  -0.38650  -0.38492  -0.38251
 Alpha  occ. eigenvalues --   -0.38048  -0.37938  -0.37633  -0.37487  -0.36972
 Alpha  occ. eigenvalues --   -0.36759  -0.36028  -0.35505  -0.35069  -0.34726
 Alpha  occ. eigenvalues --   -0.34555  -0.34229  -0.34004  -0.33409  -0.33182
 Alpha  occ. eigenvalues --   -0.32151  -0.32120  -0.31901  -0.30494  -0.29895
 Alpha  occ. eigenvalues --   -0.29745  -0.27057  -0.26460  -0.26216  -0.25450
 Alpha  occ. eigenvalues --   -0.25217  -0.24539  -0.23517  -0.23258  -0.21595
 Alpha  occ. eigenvalues --   -0.18477
 Alpha virt. eigenvalues --   -0.10549  -0.06135  -0.04537  -0.01561  -0.00595
 Alpha virt. eigenvalues --    0.01038   0.01260   0.01916   0.02290   0.02717
 Alpha virt. eigenvalues --    0.03399   0.03625   0.04084   0.04507   0.05230

 Mulliken charges:
               1
     1  O   -0.229415
     2  O   -0.198918
     3  O   -0.313524
     4  O   -0.195523
     5  O   -0.156962
     6  O   -0.234636
     7  N   -0.010737
     8  N   -0.081456
     9  N   -0.070575
    10  N   -0.297222
    11  C   -0.092465
    12  C    0.085759
    13  C   -0.169321
    14  C    0.129840
    15  C   -0.047524
    16  C    0.049914
    17  C   -0.074381
    18  C   -0.143530
    19  C    0.008922
    20  C   -0.111767
    21  C    0.078158
    22  C    0.114732
    23  C   -0.034884
    24  C   -0.028585
    25  C   -0.115662
    26  C   -0.021675
    27  C    0.066617
    28  C    0.094243
    29  C    0.054626
    30  C   -0.037001
    31  C   -0.140873
    32  C    0.170072
    33  C   -0.174451
    34  C    0.086191
    35  C   -0.040280
    36  C   -0.228882
    37  C    0.115592
    38  C    0.112770
    39  C    0.185839
    40  C    0.063971
    41  C    0.139924
    42  C    0.030223
    43  C    0.142260
    44  H    0.089600
    45  H    0.013240
    46  H    0.057077
    47  H    0.016899
    48  H    0.046917
    49  H    0.043479
    50  H    0.065397
    51  H    0.062751
    52  H    0.133475
    53  H    0.060567
    54  H    0.009883
    55  H    0.061931
    56  H    0.140050
    57  H   -0.001848
    58  H    0.021283
    59  H    0.040596
    60  H    0.010276
    61  H    0.033843
    62  H    0.041530
    63  H    0.066036
    64  H   -0.005394
    65  H   -0.014044
    66  H   -0.024960
    67  H    0.000806
    68  H    0.015597
    69  H    0.032725
    70  H    0.025534
    71  H    0.023775
    72  H   -0.024652
    73  H    0.018630
    74  H    0.042816
    75  H    0.005773
    76  H    0.044946
    77  H   -0.094475
    78  H    0.018103
    79  H    0.031722
    80  H    0.193809
    81  H    0.216904
 Sum of Mulliken charges =  -0.00000

 Dipole moment (field-independent basis, Debye):
    X=              3.6658    Y=              1.0012    Z=             -0.3605  Tot=              3.8171
 Quadrupole moment (field-independent basis, Debye-Ang):
   XX=           -248.9055   YY=           -241.0613   ZZ=           -257.3548
   XY=            -13.2849   XZ=             18.4158   YZ=             13.7890

 Normal termination of Gaussian 16 at Wed Jul  3 10:16:14 2019.
